   * xtb version 6.7.1 (edcfbbe) compiled by 'conda@3ef47c1a292c' on 2024-11-25

   ID    Z sym.   atoms
    1    6 C      1, 3, 4, 6-8, 10-19
    2    7 N      2, 5
    3    8 O      9
    4    1 H      20-34

          program call               : xtb C0666.xyz --opt --namespace C0666 --charge +1
          :  Hamiltonian                  GFN2-xTB          :
 * total energy  :   -51.4263704 Eh     change       -0.1090541E-08 Eh
 * total energy  :   -51.4337379 Eh     change       -0.7367464E-02 Eh
 * total energy  :   -51.4357748 Eh     change       -0.2036970E-02 Eh
 * total energy  :   -51.4360645 Eh     change       -0.2896386E-03 Eh
 * total energy  :   -51.4362451 Eh     change       -0.1806135E-03 Eh
 * total energy  :   -51.4363453 Eh     change       -0.1001946E-03 Eh
 * total energy  :   -51.4365191 Eh     change       -0.1738270E-03 Eh
 * total energy  :   -51.4367566 Eh     change       -0.2374639E-03 Eh
 * total energy  :   -51.4370147 Eh     change       -0.2581160E-03 Eh
 * total energy  :   -51.4372800 Eh     change       -0.2652699E-03 Eh
 * total energy  :   -51.4422547 Eh     change       -0.1123584E-04 Eh
 * total energy  :   -51.4422638 Eh     change       -0.9118186E-05 Eh
 * total energy  :   -51.4422761 Eh     change       -0.1235136E-04 Eh
 * total energy  :   -51.4422859 Eh     change       -0.9801021E-05 Eh
 * total energy  :   -51.4422945 Eh     change       -0.8556795E-05 Eh
 * total energy  :   -51.4423045 Eh     change       -0.1001039E-04 Eh
 * total energy  :   -51.4423166 Eh     change       -0.1205434E-04 Eh
 * total energy  :   -51.4423252 Eh     change       -0.8627067E-05 Eh
 * total energy  :   -51.4423291 Eh     change       -0.3965280E-05 Eh
   *** GEOMETRY OPTIMIZATION CONVERGED AFTER 56 ITERATIONS ***

 final structure:
================
34
 xtb: 6.7.1 (edcfbbe)
C           -1.30032954810600       -1.12555123219765       -0.25361977676905
N           -0.57879922572572       -0.11006077333076       -0.97117125294571
C            0.01672496403358        0.98095255991341       -0.41121137839971
C            0.59142091816302        1.69165711042355       -1.41834991860456
N            0.32384314323669        1.03343120882710       -2.58222416335970
C           -0.37174141482992       -0.06432630150317       -2.28369440772936
C            0.90023624839886        1.28751676556506       -3.86783195055477
C            1.80055585750014        0.06751804368403       -4.23860764488092
O            1.71020936836770       -0.92904627956101       -3.55402186993496
C            2.67036941979909        0.21575547527104       -5.39128020075164
C            2.66035306503945        1.35520659462616       -6.23634892103409
C            3.50119483181225        1.42128657133691       -7.30625935149577
C            4.40225396628062        0.37255733397019       -7.60290187203014
C            4.41748133559674       -0.77705918828340       -6.76268559811365
C            3.54125237284400       -0.82727309519573       -5.67085567146078
C            5.31206195871089       -1.83181361645206       -7.05435192178926
C            6.15106792453675       -1.74857305328903       -8.13020324563915
C            6.13464930282051       -0.61348260154331       -8.95799636093501
C            5.27987462624035        0.42558649207197       -8.70116088572696
H           -1.56696753666428       -1.93473827296258       -0.92932904900411
H           -2.20936208459586       -0.70724480827495        0.18119981803503
H           -0.68156900747148       -1.52345561682335        0.55082375423883
H           -0.00456248083680        1.17134392042428        0.64232659990852
H            1.15483108802131        2.60165344502341       -1.38599144723140
H           -0.72718628716932       -0.78558070478169       -2.99273968356940
H            0.12181580191646        1.37734728193625       -4.63067292001178
H            1.48462409074006        2.20620756028609       -3.82863376477304
H            1.97943232790827        2.17025677872635       -6.04904558629501
H            3.48988492537001        2.28666472264462       -7.95189413305746
H            3.54121006016658       -1.69339920019260       -5.02475478152858
H            5.31772110697675       -2.70048939385394       -6.41314274770492
H            6.83316589280037       -2.55472754914918       -8.35231728844091
H            6.80503118565212       -0.56679246802490       -9.80260424456391
H            5.26855180246533        1.29809229067748       -9.33717813384944

          :  Hamiltonian                  GFN2-xTB          :
         :: total energy             -51.442329143674 Eh    ::
         :: gradient norm              0.000623327707 Eh/a0 ::
         :: HOMO-LUMO gap              2.187112115592 eV    ::
         :: SCC energy               -52.300683453539 Eh    ::
         :: -> dispersion             -0.033387749259 Eh    ::
         :: repulsion energy           0.858354309865 Eh    ::

    * Orbital Energies and Occupations

         #    Occupation            Energy/Eh            Energy/eV
      -------------------------------------------------------------
         1        2.0000           -0.8806319             -23.9632
       ...           ...                  ...                  ...
        35        2.0000           -0.5911495             -16.0860
        36        2.0000           -0.5833453             -15.8736
        37        2.0000           -0.5732646             -15.5993
        38        2.0000           -0.5715129             -15.5517
        39        2.0000           -0.5678814             -15.4528
        40        2.0000           -0.5571878             -15.1619
        41        2.0000           -0.5453551             -14.8399
        42        2.0000           -0.5330379             -14.5047
        43        2.0000           -0.5318487             -14.4723
        44        2.0000           -0.5161541             -14.0453
        45        2.0000           -0.5131790             -13.9643
        46        2.0000           -0.5066826             -13.7875
        47        2.0000           -0.4838396             -13.1659 (HOMO)
        48                         -0.4034647             -10.9788 (LUMO)
        49                         -0.3897583             -10.6059
        50                         -0.3578245              -9.7369
        51                         -0.3563686              -9.6973
        52                         -0.3156602              -8.5896
        53                         -0.2891446              -7.8680
        54                         -0.2384657              -6.4890
        55                         -0.1667564              -4.5377
        56                         -0.1574869              -4.2854
        57                         -0.1167287              -3.1763
        58                         -0.0781778              -2.1273
       ...                                ...                  ...
        91                          0.5972101              16.2509
      -------------------------------------------------------------
                  HL-Gap            0.0803749 Eh            2.1871 eV

     #   Z          covCN         q      C6AA      α(0)
     1   6 C        3.692    -0.085    22.313     6.759
     2   7 N        2.867     0.077    19.906     6.627
     3   6 C        3.070    -0.009    28.166     8.702
     4   6 C        3.066    -0.008    28.143     8.699
     5   7 N        2.872     0.072    19.982     6.639
     6   6 C        3.094     0.059    26.576     8.449
     7   6 C        3.743    -0.050    21.537     6.621
     8   6 C        2.825     0.224    23.292     7.908
     9   8 O        0.857    -0.370    21.088     6.157
    10   6 C        2.967    -0.022    28.562     8.766
    11   6 C        2.914    -0.038    28.946     8.822
    12   6 C        2.916    -0.027    28.668     8.780
    13   6 C        2.986     0.027    27.388     8.585
    14   6 C        2.984     0.021    27.532     8.607
    15   6 C        2.928    -0.011    28.290     8.723
    16   6 C        2.917    -0.026    28.643     8.776
    17   6 C        2.915    -0.019    28.471     8.750
    18   6 C        2.916    -0.013    28.345     8.730
    19   6 C        2.917    -0.028    28.712     8.787
    20   1 H        0.925     0.100     1.785     2.089
    21   1 H        0.924     0.103     1.762     2.076
    22   1 H        0.925     0.107     1.727     2.055
    23   1 H        0.926     0.107     1.724     2.053
    24   1 H        0.926     0.103     1.762     2.076
    25   1 H        0.926     0.121     1.603     1.980
    26   1 H        0.924     0.099     1.796     2.096
    27   1 H        0.925     0.099     1.791     2.093
    28   1 H        0.926     0.036     2.502     2.473
    29   1 H        0.926     0.056     2.241     2.341
    30   1 H        0.926     0.072     2.067     2.248
    31   1 H        0.926     0.054     2.276     2.359
    32   1 H        0.926     0.057     2.230     2.335
    33   1 H        0.926     0.059     2.216     2.328
    34   1 H        0.926     0.054     2.273     2.358

Wiberg/Mayer (AO) data.
largest (>0.10) Wiberg bond orders for each atom

     #   Z sym  total        # sym  WBO       # sym  WBO       # sym  WBO
 ---------------------------------------------------------------------------
     1   6 C    3.935 --     2 N    0.991    20 H    0.975    22 H    0.964
                            21 H    0.963
     2   7 N    3.716 --     6 C    1.360     3 C    1.219     1 C    0.991
     3   6 C    3.948 --     4 C    1.601     2 N    1.219    23 H    0.962
     4   6 C    3.948 --     3 C    1.601     5 N    1.213    24 H    0.962
     5   7 N    3.709 --     6 C    1.342     4 C    1.213     7 C    0.996
     6   6 C    3.945 --     2 N    1.360     5 N    1.342    25 H    0.952
     7   6 C    3.944 --     5 N    0.996    27 H    0.957    26 H    0.943
                             8 C    0.915
     8   6 C    3.922 --     9 O    1.780    10 C    1.101     7 C    0.915
     9   8 O    2.086 --     8 C    1.780
    10   6 C    3.980 --    15 C    1.423    11 C    1.247     8 C    1.101
    11   6 C    3.991 --    12 C    1.592    10 C    1.247    28 H    0.966
    12   6 C    3.990 --    11 C    1.592    13 C    1.261    29 H    0.966
    13   6 C    3.989 --    19 C    1.299    12 C    1.261    14 C    1.229
    14   6 C    3.990 --    15 C    1.325    16 C    1.264    13 C    1.229
    15   6 C    3.982 --    10 C    1.423    14 C    1.325    30 H    0.962
    16   6 C    3.989 --    17 C    1.560    14 C    1.264    31 H    0.967
                            19 C    0.112
    17   6 C    3.990 --    16 C    1.560    18 C    1.320    32 H    0.969
    18   6 C    3.969 --    19 C    1.539    17 C    1.320    33 H    0.969
    19   6 C    3.986 --    18 C    1.539    13 C    1.299    34 H    0.966
                            16 C    0.112
    20   1 H    0.990 --     1 C    0.975
    21   1 H    0.989 --     1 C    0.963
    22   1 H    0.988 --     1 C    0.964
    23   1 H    0.988 --     3 C    0.962
    24   1 H    0.989 --     4 C    0.962
    25   1 H    0.985 --     6 C    0.952
    26   1 H    0.989 --     7 C    0.943
    27   1 H    0.989 --     7 C    0.957
    28   1 H    0.998 --    11 C    0.966
    29   1 H    0.996 --    12 C    0.966
    30   1 H    0.994 --    15 C    0.962
    31   1 H    0.997 --    16 C    0.967
    32   1 H    0.996 --    17 C    0.969
    33   1 H    0.996 --    18 C    0.969
    34   1 H    0.997 --    19 C    0.966
 ---------------------------------------------------------------------------

molecular dipole:
                 x           y           z       tot (Debye)
 q only:        1.588       0.889      -5.769
   full:        1.498       1.049      -5.834      15.539

           -------------------------------------------------
          | TOTAL ENERGY              -51.442329143674 Eh   |
          | GRADIENT NORM               0.000623327707 Eh/α |
          | HOMO-LUMO GAP               2.187112115592 eV   |
           -------------------------------------------------

 * finished run on 2024/12/20 at 06:52:53.988
