   * xtb version 6.7.1 (edcfbbe) compiled by 'conda@3ef47c1a292c' on 2024-11-25

   ID    Z sym.   atoms
    1    6 C      1, 3, 4, 6-11, 13, 15, 16, 18, 19
    2    8 O      2, 5, 12
    3    7 N      14, 17
    4    1 H      20-36

          program call               : xtb C0664.xyz --opt --namespace C0664 --charge +1
          :  Hamiltonian                  GFN2-xTB          :
 * total energy  :   -56.2878869 Eh     change       -0.8527437E-09 Eh
 * total energy  :   -56.2958953 Eh     change       -0.8008399E-02 Eh
 * total energy  :   -56.2981431 Eh     change       -0.2247707E-02 Eh
 * total energy  :   -56.2988153 Eh     change       -0.6722052E-03 Eh
 * total energy  :   -56.2993207 Eh     change       -0.5054839E-03 Eh
 * total energy  :   -56.2996468 Eh     change       -0.3260862E-03 Eh
 * total energy  :   -56.2999162 Eh     change       -0.2693465E-03 Eh
 * total energy  :   -56.3001545 Eh     change       -0.2383121E-03 Eh
 * total energy  :   -56.3003319 Eh     change       -0.1774078E-03 Eh
 * total energy  :   -56.3004537 Eh     change       -0.1217992E-03 Eh
 * total energy  :   -56.3012608 Eh     change       -0.5029685E-04 Eh
 * total energy  :   -56.3012711 Eh     change       -0.1030282E-04 Eh
 * total energy  :   -56.3012871 Eh     change       -0.1597164E-04 Eh
 * total energy  :   -56.3012945 Eh     change       -0.7478895E-05 Eh
 * total energy  :   -56.3013006 Eh     change       -0.6041902E-05 Eh
 * total energy  :   -56.3013053 Eh     change       -0.4723141E-05 Eh
 * total energy  :   -56.3013118 Eh     change       -0.6476886E-05 Eh
 * total energy  :   -56.3013176 Eh     change       -0.5842540E-05 Eh
 * total energy  :   -56.3013220 Eh     change       -0.4383322E-05 Eh
   *** GEOMETRY OPTIMIZATION CONVERGED AFTER 45 ITERATIONS ***

 final structure:
================
36
 xtb: 6.7.1 (edcfbbe)
C           -0.22904871329441       -0.92814376811493       -1.92049642047244
O            0.61483463230677       -0.06299070511473       -1.16962233188176
C            0.76829093244645        1.23705860712205       -1.55652346583709
C           -0.27753648656816        2.00698209898459       -2.11279153917267
O           -1.50158085100053        1.41880115296773       -2.17614159834914
C           -2.55933615806791        2.10107910337732       -2.81800559991458
C           -0.02486114466025        3.30773381464681       -2.53002774937910
C            1.23391253527114        3.87232988429200       -2.38966996105783
C            2.24832165190170        3.14676651109057       -1.81502305787084
C            2.03122669970322        1.83077487019552       -1.38211406387765
C            3.20638321587385        1.15513842147537       -0.81020783316957
O            4.33746183695412        1.50312015920993       -1.03585515592320
C            2.97291516012888       -0.01292003284705        0.17677925494339
N            2.00605293156239        0.32769991881878        1.18411848442734
C            0.94675230951978       -0.42080309656488        1.59099593624757
C            0.28383205138450        0.29732620155717        2.53976898480103
N            0.95156816620486        1.47417756631022        2.69784793842597
C            1.98873818945409        1.47145957100526        1.86476569683004
C            0.57983332021436        2.53227774748974        3.59776745698109
H            0.13237051832709       -1.93613612377596       -1.71647977200924
H           -0.15242502276789       -0.73006102847587       -2.98935111483380
H           -1.26952319530115       -0.84003898074760       -1.60693528669702
H           -3.40067891254343        1.41103091736138       -2.79745870852321
H           -2.82940628705502        3.01526934228835       -2.28223679025224
H           -2.31208468962817        2.33901155836719       -3.85528206079925
H           -0.81605359382551        3.89458024464883       -2.96625711415975
H            1.40673023944266        4.88057796579945       -2.72920189562838
H            3.23493053636826        3.56369429408054       -1.68942255410529
H            2.62501049476070       -0.88701079302198       -0.37501471358416
H            3.93936046954713       -0.23963295102191        0.63974307706593
H            0.73580769052754       -1.38922787758152        1.18778874460698
H           -0.59597242613119        0.05504687438592        3.10057664848750
H            2.70693503546015        2.26217844193170        1.76059924292074
H            1.39851811008233        3.24158036579694        3.69454527205874
H           -0.30063931853135        3.05620135910162        3.22221894661148
H            0.34479007193243        2.12009836496945        4.57862310309695

          :  Hamiltonian                  GFN2-xTB          :
         :: total energy             -56.301322007940 Eh    ::
         :: gradient norm              0.000743979740 Eh/a0 ::
         :: HOMO-LUMO gap              2.401078964021 eV    ::
         :: SCC energy               -57.063454627105 Eh    ::
         :: -> dispersion             -0.035650793580 Eh    ::
         :: repulsion energy           0.762132619165 Eh    ::

    * Orbital Energies and Occupations

         #    Occupation            Energy/Eh            Energy/eV
      -------------------------------------------------------------
         1        2.0000           -0.8910380             -24.2464
       ...           ...                  ...                  ...
        38        2.0000           -0.6011667             -16.3586
        39        2.0000           -0.5980646             -16.2742
        40        2.0000           -0.5947957             -16.1852
        41        2.0000           -0.5828433             -15.8600
        42        2.0000           -0.5787786             -15.7494
        43        2.0000           -0.5753986             -15.6574
        44        2.0000           -0.5634938             -15.3334
        45        2.0000           -0.5599186             -15.2362
        46        2.0000           -0.5503808             -14.9766
        47        2.0000           -0.5429188             -14.7736
        48        2.0000           -0.5211411             -14.1810
        49        2.0000           -0.5169669             -14.0674
        50        2.0000           -0.4899144             -13.3313 (HOMO)
        51                         -0.4016764             -10.9302 (LUMO)
        52                         -0.3989984             -10.8573
        53                         -0.3642644              -9.9121
        54                         -0.3351053              -9.1187
        55                         -0.3165445              -8.6136
        56                         -0.2099069              -5.7119
        57                         -0.1727205              -4.7000
        58                         -0.1186109              -3.2276
        59                         -0.1075769              -2.9273
        60                         -0.0889770              -2.4212
        61                         -0.0712557              -1.9390
       ...                                ...                  ...
        93                          0.5454765              14.8432
      -------------------------------------------------------------
                  HL-Gap            0.0882380 Eh            2.4011 eV

     #   Z          covCN         q      C6AA      α(0)
     1   6 C        3.637     0.027    20.487     6.512
     2   8 O        1.703    -0.285    18.737     5.844
     3   6 C        2.854     0.119    25.387     8.258
     4   6 C        2.857     0.123    25.301     8.245
     5   8 O        1.704    -0.262    18.349     5.783
     6   6 C        3.642     0.027    20.469     6.505
     7   6 C        2.919    -0.058    29.436     8.897
     8   6 C        2.914    -0.033    28.815     8.802
     9   6 C        2.928    -0.033    28.825     8.805
    10   6 C        2.967    -0.049    29.207     8.865
    11   6 C        2.822     0.229    23.192     7.891
    12   8 O        0.858    -0.322    20.181     6.023
    13   6 C        3.742    -0.057    21.683     6.643
    14   7 N        2.871     0.083    19.792     6.607
    15   6 C        3.071     0.000    27.953     8.669
    16   6 C        3.074    -0.011    28.205     8.708
    17   7 N        2.867     0.077    19.899     6.625
    18   6 C        3.101     0.042    26.932     8.504
    19   6 C        3.692    -0.086    22.339     6.763
    20   1 H        0.925     0.063     2.164     2.301
    21   1 H        0.925     0.060     2.201     2.320
    22   1 H        0.924     0.068     2.112     2.273
    23   1 H        0.925     0.076     2.016     2.220
    24   1 H        0.924     0.051     2.309     2.376
    25   1 H        0.924     0.056     2.251     2.346
    26   1 H        0.926     0.067     2.115     2.274
    27   1 H        0.926     0.069     2.102     2.267
    28   1 H        0.926     0.079     1.994     2.208
    29   1 H        0.924     0.121     1.602     1.979
    30   1 H        0.924     0.110     1.699     2.038
    31   1 H        0.927     0.115     1.650     2.009
    32   1 H        0.926     0.109     1.705     2.042
    33   1 H        0.926     0.113     1.669     2.020
    34   1 H        0.925     0.100     1.785     2.089
    35   1 H        0.924     0.104     1.747     2.067
    36   1 H        0.925     0.108     1.716     2.048

Wiberg/Mayer (AO) data.
largest (>0.10) Wiberg bond orders for each atom

     #   Z sym  total        # sym  WBO       # sym  WBO       # sym  WBO
 ---------------------------------------------------------------------------
     1   6 C    3.927 --    21 H    0.981    20 H    0.978    22 H    0.975
                             2 O    0.958
     2   8 O    2.211 --     3 C    1.064     1 C    0.958
     3   6 C    3.941 --    10 C    1.325     4 C    1.288     2 O    1.064
     4   6 C    3.943 --     7 C    1.385     3 C    1.288     5 O    1.076
     5   8 O    2.245 --     4 C    1.076     6 C    0.972
     6   6 C    3.932 --    23 H    0.977    25 H    0.976    24 H    0.976
                             5 O    0.972
     7   6 C    3.988 --     8 C    1.407     4 C    1.385    26 H    0.962
     8   6 C    3.988 --     9 C    1.476     7 C    1.407    27 H    0.966
     9   6 C    3.985 --     8 C    1.476    10 C    1.337    28 H    0.963
    10   6 C    3.979 --     9 C    1.337     3 C    1.325    11 C    1.064
    11   6 C    3.938 --    12 O    1.840    10 C    1.064    13 C    0.933
    12   8 O    2.108 --    11 C    1.840
    13   6 C    3.933 --    14 N    0.980    30 H    0.947    29 H    0.943
                            11 C    0.933
    14   7 N    3.727 --    18 C    1.358    15 C    1.231    13 C    0.980
    15   6 C    3.949 --    16 C    1.587    14 N    1.231    31 H    0.959
    16   6 C    3.946 --    15 C    1.587    17 N    1.225    32 H    0.961
    17   7 N    3.720 --    18 C    1.360    16 C    1.225    19 C    0.991
    18   6 C    3.947 --    17 N    1.360    14 N    1.358    33 H    0.954
    19   6 C    3.934 --    17 N    0.991    34 H    0.975    36 H    0.966
                            35 H    0.960
    20   1 H    0.995 --     1 C    0.978
    21   1 H    0.996 --     1 C    0.981
    22   1 H    0.994 --     1 C    0.975
    23   1 H    0.994 --     6 C    0.977
    24   1 H    0.997 --     6 C    0.976
    25   1 H    0.997 --     6 C    0.976
    26   1 H    0.995 --     7 C    0.962
    27   1 H    0.995 --     8 C    0.966
    28   1 H    0.993 --     9 C    0.963
    29   1 H    0.984 --    13 C    0.943
    30   1 H    0.987 --    13 C    0.947
    31   1 H    0.986 --    15 C    0.959
    32   1 H    0.988 --    16 C    0.961
    33   1 H    0.987 --    18 C    0.954
    34   1 H    0.990 --    19 C    0.975
    35   1 H    0.988 --    19 C    0.960
    36   1 H    0.988 --    19 C    0.966
 ---------------------------------------------------------------------------

molecular dipole:
                 x           y           z       tot (Debye)
 q only:        0.619       2.280       2.472
   full:        0.355       2.316       2.305       8.355

           -------------------------------------------------
          | TOTAL ENERGY              -56.301322007940 Eh   |
          | GRADIENT NORM               0.000743979740 Eh/α |
          | HOMO-LUMO GAP               2.401078964021 eV   |
           -------------------------------------------------

 * finished run on 2024/12/20 at 06:52:51.434
