   * xtb version 6.7.1 (edcfbbe) compiled by 'conda@3ef47c1a292c' on 2024-11-25

   ID    Z sym.   atoms
    1    6 C      1-3, 5, 7-14
    2    7 N      4, 6
    3    1 H      15-31

          program call               : xtb C0668.xyz --opt --namespace C0668 --charge +1
          :  Hamiltonian                  GFN2-xTB          :
 * total energy  :   -39.8621469 Eh     change       -0.1006185E-08 Eh
 * total energy  :   -39.8658361 Eh     change       -0.3689208E-02 Eh
 * total energy  :   -39.8664043 Eh     change       -0.5681432E-03 Eh
 * total energy  :   -39.8664939 Eh     change       -0.8964638E-04 Eh
 * total energy  :   -39.8665888 Eh     change       -0.9489181E-04 Eh
 * total energy  :   -39.8666477 Eh     change       -0.5892092E-04 Eh
 * total energy  :   -39.8667342 Eh     change       -0.8644354E-04 Eh
 * total energy  :   -39.8668507 Eh     change       -0.1165334E-03 Eh
 * total energy  :   -39.8669404 Eh     change       -0.8967649E-04 Eh
 * total energy  :   -39.8670286 Eh     change       -0.8818092E-04 Eh
 * total energy  :   -39.8676062 Eh     change       -0.2141066E-04 Eh
 * total energy  :   -39.8676293 Eh     change       -0.2313236E-04 Eh
 * total energy  :   -39.8676423 Eh     change       -0.1303218E-04 Eh
 * total energy  :   -39.8676672 Eh     change       -0.2490651E-04 Eh
 * total energy  :   -39.8676767 Eh     change       -0.9454230E-05 Eh
 * total energy  :   -39.8677036 Eh     change       -0.2690696E-04 Eh
 * total energy  :   -39.8677140 Eh     change       -0.1036761E-04 Eh
 * total energy  :   -39.8677224 Eh     change       -0.8452910E-05 Eh
 * total energy  :   -39.8677273 Eh     change       -0.4878829E-05 Eh
   *** GEOMETRY OPTIMIZATION CONVERGED AFTER 30 ITERATIONS ***

 final structure:
================
31
 xtb: 6.7.1 (edcfbbe)
C            0.83184122430287       -0.12481866929179       -0.16531771943223
C            0.47842216511713       -1.17814720051841        0.88012218540593
C            1.14669254753418       -0.87390808219212        2.23823759408617
N            0.73827255355749        0.39526194014009        2.79085426411842
C            1.27219499684708        1.57539836323664        2.49290442656098
N            0.63776607166446        2.56717679541545        3.10914928138664
C           -0.37774245940674        2.01149949342146        3.85925867610895
C           -0.31318702282236        0.61882873073573        3.65672123365824
C           -1.19994871449565       -0.23853858616444        4.29934311364420
C           -2.14199851557185        0.33802387715958        5.12471639584523
C           -2.21084668722453        1.72207900834011        5.31479154513888
C           -1.33335396715591        2.58353325112873        4.69090908525897
C            0.94078171160172        3.97007538606081        3.02655509613798
C           -1.03378818640102       -1.32569580898246        1.01371942513955
H            0.37900533853434        0.83663183742048        0.07179723401707
H            0.45508284643706       -0.43369850838055       -1.13596356098604
H            1.90914581603151       -0.00195303291020       -0.25096971825360
H            0.89339164864643       -2.13740621898651        0.55735712310165
H            0.89086646414108       -1.65360796592458        2.95719432724724
H            2.23151837109801       -0.85811848269191        2.11075226544199
H            2.12091760927288        1.70978850338331        1.84868075349604
H           -1.15824302115918       -1.30589381026544        4.16184475782818
H           -2.84682901887684       -0.29430476026627        5.64031585869500
H           -2.96828067054000        2.12234482993781        5.96940013621762
H           -1.38482615309311        3.64888145478199        4.84279166778185
H            1.81042592384573        4.12343163486710        2.39212969042980
H            0.09180395420879        4.51184257208593        2.60666951740395
H            1.14880683088158        4.36541648540410        4.02159582361660
H           -1.46210271443090       -1.58639033050453        0.05023891307953
H           -1.28902686825182       -2.11566156997733        1.71484716539296
H           -1.49730207429300       -0.39850113646217        1.34483344243235

          :  Hamiltonian                  GFN2-xTB          :
         :: total energy             -39.867727310719 Eh    ::
         :: gradient norm              0.000471500761 Eh/a0 ::
         :: HOMO-LUMO gap              3.477150083409 eV    ::
         :: SCC energy               -40.523103026455 Eh    ::
         :: -> dispersion             -0.028175292937 Eh    ::
         :: repulsion energy           0.655375715735 Eh    ::

    * Orbital Energies and Occupations

         #    Occupation            Energy/Eh            Energy/eV
      -------------------------------------------------------------
         1        2.0000           -0.8823525             -24.0100
       ...           ...                  ...                  ...
        25        2.0000           -0.6281568             -17.0930
        26        2.0000           -0.6234909             -16.9661
        27        2.0000           -0.6190334             -16.8448
        28        2.0000           -0.6047612             -16.4564
        29        2.0000           -0.5930968             -16.1390
        30        2.0000           -0.5822188             -15.8430
        31        2.0000           -0.5793704             -15.7655
        32        2.0000           -0.5752440             -15.6532
        33        2.0000           -0.5684579             -15.4685
        34        2.0000           -0.5640263             -15.3479
        35        2.0000           -0.5589109             -15.2087
        36        2.0000           -0.5551955             -15.1076
        37        2.0000           -0.5433147             -14.7843 (HOMO)
        38                         -0.4155318             -11.3072 (LUMO)
        39                         -0.3655761              -9.9478
        40                         -0.3570228              -9.7151
        41                         -0.2397498              -6.5239
        42                         -0.1765543              -4.8043
        43                         -0.1304143              -3.5488
        44                         -0.0735372              -2.0010
        45                         -0.0605137              -1.6467
        46                         -0.0416042              -1.1321
        47                         -0.0296411              -0.8066
        48                         -0.0216769              -0.5899
       ...                                ...                  ...
        73                          0.5374809              14.6256
      -------------------------------------------------------------
                  HL-Gap            0.1277829 Eh            3.4772 eV

     #   Z          covCN         q      C6AA      α(0)
     1   6 C        3.755    -0.119    22.829     6.813
     2   6 C        3.849    -0.016    20.829     6.492
     3   6 C        3.743    -0.026    21.120     6.556
     4   7 N        2.825     0.042    20.512     6.727
     5   6 C        3.075     0.063    26.508     8.441
     6   7 N        2.824     0.040    20.536     6.730
     7   6 C        3.123     0.037    27.000     8.509
     8   6 C        3.119     0.041    26.913     8.497
     9   6 C        2.909    -0.031    28.765     8.794
    10   6 C        2.925    -0.018    28.457     8.748
    11   6 C        2.926    -0.017    28.438     8.745
    12   6 C        2.908    -0.033    28.826     8.804
    13   6 C        3.691    -0.076    22.151     6.735
    14   6 C        3.755    -0.118    22.808     6.810
    15   1 H        0.925     0.034     2.524     2.484
    16   1 H        0.925     0.068     2.111     2.272
    17   1 H        0.925     0.044     2.395     2.420
    18   1 H        0.924     0.066     2.126     2.280
    19   1 H        0.924     0.085     1.926     2.170
    20   1 H        0.924     0.077     2.011     2.218
    21   1 H        0.926     0.107     1.721     2.051
    22   1 H        0.926     0.073     2.050     2.239
    23   1 H        0.926     0.081     1.972     2.196
    24   1 H        0.926     0.081     1.971     2.196
    25   1 H        0.926     0.073     2.055     2.242
    26   1 H        0.925     0.093     1.853     2.128
    27   1 H        0.924     0.099     1.791     2.093
    28   1 H        0.924     0.100     1.786     2.090
    29   1 H        0.925     0.065     2.144     2.290
    30   1 H        0.925     0.048     2.348     2.396
    31   1 H        0.925     0.037     2.489     2.467

Wiberg/Mayer (AO) data.
largest (>0.10) Wiberg bond orders for each atom

     #   Z sym  total        # sym  WBO       # sym  WBO       # sym  WBO
 ---------------------------------------------------------------------------
     1   6 C    3.992 --     2 C    1.012    17 H    0.985    15 H    0.983
                            16 H    0.980
     2   6 C    3.985 --     1 C    1.012    14 C    1.011     3 C    0.966
                            18 H    0.960
     3   6 C    3.939 --     4 N    0.973     2 C    0.966    20 H    0.965
                            19 H    0.964
     4   7 N    3.689 --     5 C    1.369     8 C    1.130     3 C    0.973
                             6 N    0.103
     5   6 C    3.954 --     4 N    1.369     6 N    1.365    21 H    0.952
     6   7 N    3.686 --     5 C    1.365     7 C    1.127    13 C    0.992
                             4 N    0.103
     7   6 C    3.952 --    12 C    1.337     8 C    1.273     6 N    1.127
     8   6 C    3.954 --     9 C    1.335     7 C    1.273     4 N    1.130
     9   6 C    3.986 --    10 C    1.499     8 C    1.335    22 H    0.961
                            12 C    0.119
    10   6 C    3.985 --     9 C    1.499    11 C    1.374    23 H    0.966
    11   6 C    3.986 --    12 C    1.498    10 C    1.374    24 H    0.966
    12   6 C    3.985 --    11 C    1.498     7 C    1.337    25 H    0.964
                             9 C    0.119
    13   6 C    3.939 --     6 N    0.992    26 H    0.976    28 H    0.964
                            27 H    0.964
    14   6 C    3.992 --     2 C    1.011    31 H    0.985    30 H    0.984
                            29 H    0.982
    15   1 H    0.999 --     1 C    0.983
    16   1 H    0.995 --     1 C    0.980
    17   1 H    0.998 --     1 C    0.985
    18   1 H    0.994 --     2 C    0.960
    19   1 H    0.992 --     3 C    0.964
    20   1 H    0.993 --     3 C    0.965
    21   1 H    0.988 --     5 C    0.952
    22   1 H    0.994 --     9 C    0.961
    23   1 H    0.993 --    10 C    0.966
    24   1 H    0.993 --    11 C    0.966
    25   1 H    0.994 --    12 C    0.964
    26   1 H    0.991 --    13 C    0.976
    27   1 H    0.989 --    13 C    0.964
    28   1 H    0.989 --    13 C    0.964
    29   1 H    0.995 --    14 C    0.982
    30   1 H    0.998 --    14 C    0.984
    31   1 H    0.999 --    14 C    0.985
 ---------------------------------------------------------------------------

molecular dipole:
                 x           y           z       tot (Debye)
 q only:        0.507       2.484       5.655
   full:        0.707       2.551       5.596      15.733

           -------------------------------------------------
          | TOTAL ENERGY              -39.867727310719 Eh   |
          | GRADIENT NORM               0.000471500761 Eh/α |
          | HOMO-LUMO GAP               3.477150083409 eV   |
           -------------------------------------------------

 * finished run on 2024/12/20 at 06:52:55.851
