   * xtb version 6.7.1 (edcfbbe) compiled by 'conda@3ef47c1a292c' on 2024-11-25

   ID    Z sym.   atoms
    1    6 C      1, 3, 4, 6, 7, 9, 10
    2    8 O      2
    3    7 N      5, 8
    4    1 H      11-23

          program call               : xtb C0661.xyz --opt --namespace C0661 --charge +1
          :  Hamiltonian                  GFN2-xTB          :
 * total energy  :   -31.1368767 Eh     change       -0.2564633E-09 Eh
 * total energy  :   -31.1405441 Eh     change       -0.3667450E-02 Eh
 * total energy  :   -31.1415479 Eh     change       -0.1003767E-02 Eh
 * total energy  :   -31.1417112 Eh     change       -0.1633017E-03 Eh
 * total energy  :   -31.1418261 Eh     change       -0.1148930E-03 Eh
 * total energy  :   -31.1418948 Eh     change       -0.6869914E-04 Eh
 * total energy  :   -31.1420185 Eh     change       -0.1237410E-03 Eh
 * total energy  :   -31.1422144 Eh     change       -0.1958396E-03 Eh
 * total energy  :   -31.1424061 Eh     change       -0.1916946E-03 Eh
 * total energy  :   -31.1425928 Eh     change       -0.1867414E-03 Eh
 * total energy  :   -31.1493159 Eh     change       -0.4173699E-04 Eh
 * total energy  :   -31.1493393 Eh     change       -0.2340208E-04 Eh
 * total energy  :   -31.1493943 Eh     change       -0.5495423E-04 Eh
 * total energy  :   -31.1494137 Eh     change       -0.1944163E-04 Eh
 * total energy  :   -31.1494403 Eh     change       -0.2659119E-04 Eh
 * total energy  :   -31.1494553 Eh     change       -0.1498132E-04 Eh
 * total energy  :   -31.1494638 Eh     change       -0.8465150E-05 Eh
 * total energy  :   -31.1494719 Eh     change       -0.8103157E-05 Eh
 * total energy  :   -31.1494738 Eh     change       -0.1877916E-05 Eh
   *** GEOMETRY OPTIMIZATION CONVERGED AFTER 51 ITERATIONS ***

 final structure:
================
23
 xtb: 6.7.1 (edcfbbe)
C            1.34374018448790        0.76636940989894        1.37820902101432
O            0.79022550107058       -0.27247618003544        0.59664721382565
C            1.16904528222045       -1.55667760581345        1.02116740649206
C            0.40092519828673       -2.57187817748209        0.16471882214826
N            0.68540017571401       -2.35072277990666       -1.23218602087116
C            0.15720362079317       -1.34599280390533       -1.98221061544808
C            0.73566149669844       -1.41489203414563       -3.21304583427736
N            1.61011329693522       -2.45971881531637       -3.19339336518250
C            1.56647067098224       -3.00774522457391       -1.98257636883881
C            2.42347309309782       -2.88410989259451       -4.30077269285731
H            0.97586824499856        1.69590948286681        0.95217294706353
H            2.43731466620740        0.74957909098601        1.33705657414230
H            1.02306954138144        0.68749827098975        2.42084128153338
H            2.25554794716491       -1.69790428694888        0.90348519545505
H            0.91386672037633       -1.71635251158475        2.07783466243210
H            0.68258206241816       -3.58802214037472        0.44170571296919
H           -0.66946686506938       -2.42748657815764        0.32430939700234
H           -0.56029858928160       -0.65766301376616       -1.58556469874099
H            0.58667171175689       -0.80617234650084       -4.08149531249168
H            2.14367912192789       -3.85454146236370       -1.66448112058805
H            3.04643231983801       -3.72479530027694       -4.00439667484736
H            1.79134547982771       -3.18620305235886       -5.13665359496714
H            3.06263911816645       -2.06444204863520       -4.63060193496666

          :  Hamiltonian                  GFN2-xTB          :
         :: total energy             -31.149473757482 Eh    ::
         :: gradient norm              0.000345187195 Eh/a0 ::
         :: HOMO-LUMO gap              3.258657128104 eV    ::
         :: SCC energy               -31.563699018704 Eh    ::
         :: -> dispersion             -0.015325767630 Eh    ::
         :: repulsion energy           0.414225261222 Eh    ::

    * Orbital Energies and Occupations

         #    Occupation            Energy/Eh            Energy/eV
      -------------------------------------------------------------
         1        2.0000           -0.8966487             -24.3991
       ...           ...                  ...                  ...
        16        2.0000           -0.6803766             -18.5140
        17        2.0000           -0.6687130             -18.1966
        18        2.0000           -0.6632274             -18.0473
        19        2.0000           -0.6599610             -17.9585
        20        2.0000           -0.6529096             -17.7666
        21        2.0000           -0.6395409             -17.4028
        22        2.0000           -0.6328235             -17.2200
        23        2.0000           -0.6198141             -16.8660
        24        2.0000           -0.6013619             -16.3639
        25        2.0000           -0.5952162             -16.1967
        26        2.0000           -0.5857789             -15.9399
        27        2.0000           -0.5733795             -15.6025
        28        2.0000           -0.5270820             -14.3426 (HOMO)
        29                         -0.4073285             -11.0840 (LUMO)
        30                         -0.3684512             -10.0261
        31                         -0.1865092              -5.0752
        32                         -0.1287180              -3.5026
        33                         -0.1023648              -2.7855
        34                         -0.0626219              -1.7040
        35                         -0.0503107              -1.3690
        36                         -0.0372472              -1.0135
        37                         -0.0223778              -0.6089
        38                         -0.0112365              -0.3058
        39                         -0.0035784              -0.0974
       ...                                ...                  ...
        53                          0.4675404              12.7224
      -------------------------------------------------------------
                  HL-Gap            0.1197534 Eh            3.2587 eV

     #   Z          covCN         q      C6AA      α(0)
     1   6 C        3.651     0.027    20.424     6.491
     2   8 O        1.701    -0.314    19.248     5.923
     3   6 C        3.703     0.076    19.457     6.307
     4   6 C        3.742    -0.032    21.222     6.572
     5   7 N        2.873     0.078    19.880     6.622
     6   6 C        3.070     0.001    27.924     8.665
     7   6 C        3.075    -0.009    28.169     8.702
     8   7 N        2.867     0.080    19.842     6.616
     9   6 C        3.096     0.042    26.950     8.508
    10   6 C        3.692    -0.087    22.359     6.766
    11   1 H        0.925     0.077     2.008     2.216
    12   1 H        0.924     0.042     2.423     2.434
    13   1 H        0.924     0.049     2.329     2.387
    14   1 H        0.923     0.041     2.440     2.443
    15   1 H        0.923     0.063     2.167     2.302
    16   1 H        0.924     0.090     1.878     2.143
    17   1 H        0.924     0.109     1.702     2.040
    18   1 H        0.926     0.126     1.566     1.957
    19   1 H        0.926     0.112     1.680     2.027
    20   1 H        0.926     0.112     1.678     2.025
    21   1 H        0.925     0.100     1.788     2.091
    22   1 H        0.924     0.108     1.712     2.046
    23   1 H        0.924     0.109     1.709     2.044

Wiberg/Mayer (AO) data.
largest (>0.10) Wiberg bond orders for each atom

     #   Z sym  total        # sym  WBO       # sym  WBO       # sym  WBO
 ---------------------------------------------------------------------------
     1   6 C    3.935 --    12 H    0.979    13 H    0.978    11 H    0.978
                             2 O    0.977
     2   8 O    2.068 --     3 C    1.000     1 C    0.977
     3   6 C    3.959 --     2 O    1.000     4 C    0.981    14 H    0.964
                            15 H    0.959
     4   6 C    3.944 --     3 C    0.981     5 N    0.978    16 H    0.967
                            17 H    0.959
     5   7 N    3.723 --     9 C    1.357     6 C    1.230     4 C    0.978
     6   6 C    3.946 --     7 C    1.592     5 N    1.230    18 H    0.956
     7   6 C    3.947 --     6 C    1.592     8 N    1.225    19 H    0.961
     8   7 N    3.722 --     9 C    1.364     7 C    1.225    10 C    0.991
     9   6 C    3.946 --     8 N    1.364     5 N    1.357    20 H    0.954
    10   6 C    3.933 --     8 N    0.991    21 H    0.976    23 H    0.962
                            22 H    0.962
    11   1 H    0.994 --     1 C    0.978
    12   1 H    0.998 --     1 C    0.979
    13   1 H    0.997 --     1 C    0.978
    14   1 H    0.998 --     3 C    0.964
    15   1 H    0.995 --     3 C    0.959
    16   1 H    0.991 --     4 C    0.967
    17   1 H    0.988 --     4 C    0.959
    18   1 H    0.984 --     6 C    0.956
    19   1 H    0.987 --     7 C    0.961
    20   1 H    0.987 --     9 C    0.954
    21   1 H    0.990 --    10 C    0.976
    22   1 H    0.988 --    10 C    0.962
    23   1 H    0.988 --    10 C    0.962
 ---------------------------------------------------------------------------

molecular dipole:
                 x           y           z       tot (Debye)
 q only:        2.505      -4.325      -3.630
   full:        2.654      -4.450      -3.470      15.849

           -------------------------------------------------
          | TOTAL ENERGY              -31.149473757482 Eh   |
          | GRADIENT NORM               0.000345187195 Eh/α |
          | HOMO-LUMO GAP               3.258657128104 eV   |
           -------------------------------------------------

 * finished run on 2024/12/20 at 06:52:03.282
