   * xtb version 6.7.1 (edcfbbe) compiled by 'conda@3ef47c1a292c' on 2024-11-25

   ID    Z sym.   atoms
    1    7 N      1-3, 7, 9
    2    6 C      4-6, 8, 10-12
    3   35 Br     13
    4    1 H      14-24

          program call               : xtb C0660.xyz --opt --namespace C0660 --charge +1
          :  Hamiltonian                  GFN2-xTB          :
 * total energy  :   -38.8490602 Eh     change       -0.3451106E-09 Eh
 * total energy  :   -38.8578108 Eh     change       -0.8750667E-02 Eh
 * total energy  :   -38.8538901 Eh     change        0.3920750E-02 Eh
 * total energy  :   -38.8606211 Eh     change       -0.6731046E-02 Eh
 * total energy  :   -38.8613794 Eh     change       -0.7583259E-03 Eh
 * total energy  :   -38.8620477 Eh     change       -0.6682913E-03 Eh
 * total energy  :   -38.8626977 Eh     change       -0.6499309E-03 Eh
 * total energy  :   -38.8630589 Eh     change       -0.3612421E-03 Eh
 * total energy  :   -38.8632688 Eh     change       -0.2098547E-03 Eh
 * total energy  :   -38.8633898 Eh     change       -0.1210173E-03 Eh
 * total energy  :   -38.8643511 Eh     change       -0.4380653E-04 Eh
 * total energy  :   -38.8643941 Eh     change       -0.4295676E-04 Eh
 * total energy  :   -38.8644237 Eh     change       -0.2956232E-04 Eh
 * total energy  :   -38.8643904 Eh     change        0.3320856E-04 Eh
 * total energy  :   -38.8644484 Eh     change       -0.5799459E-04 Eh
 * total energy  :   -38.8644568 Eh     change       -0.8341057E-05 Eh
 * total energy  :   -38.8644467 Eh     change        0.1011026E-04 Eh
 * total energy  :   -38.8644779 Eh     change       -0.3121445E-04 Eh
 * total energy  :   -38.8644823 Eh     change       -0.4442779E-05 Eh
   *** GEOMETRY OPTIMIZATION CONVERGED AFTER 36 ITERATIONS ***

 final structure:
================
24
 xtb: 6.7.1 (edcfbbe)
N            1.38285046718285       -0.67134573589586       -0.01571455172126
N            0.59492078651212       -0.76040171924580       -0.91128760473478
N           -0.28229497966305       -0.91559145221784       -1.58593759005966
C            2.74284587476847       -0.23298979855707       -0.12197213434464
C            2.86660218498046        1.22696478000698        0.33514203089851
C            2.19087661804810        1.49544755969424        1.68750960098719
N            2.74600257314916        0.69105032795297        2.74715365081175
C            2.38652495487740       -0.55606849103749        3.05290187679327
N            3.15273754448185       -1.00327764994911        4.04099059053600
C            4.03168600530102       -0.01683968339137        4.37461867200899
C            3.77827873671813        1.04571728215041        3.56202444375411
C            3.08682470628167       -2.30073135854332        4.65774979465903
Br           4.78564485400523        1.69296321143567        0.43743927125513
H            3.34914049362917       -0.87746398162331        0.52340126569727
H            3.12712471963801       -0.32496703997785       -1.14366032623387
H            2.42810101719283        1.90052087516901       -0.40435278376995
H            2.31185072919838        2.54847239353652        1.95112504588684
H            1.12510799466394        1.26873272794739        1.59169864545464
H            1.59609847369726       -1.10086961346205        2.57146690098502
H            4.76223058868080       -0.13209246490514        5.14917871241315
H            4.25563701653829        2.00306935821090        3.51204975809008
H            2.21080178653936       -2.83818611673436        4.30177272545101
H            3.98138817853917       -2.87735003550521        4.41681276194738
H            3.02718867503822       -2.19552337505754        5.74101924323687

          :  Hamiltonian                  GFN2-xTB          :
         :: total energy             -38.864482332598 Eh    ::
         :: gradient norm              0.000728234609 Eh/a0 ::
         :: HOMO-LUMO gap              3.004371133292 eV    ::
         :: SCC energy               -39.374644315312 Eh    ::
         :: -> dispersion             -0.021979602382 Eh    ::
         :: repulsion energy           0.510161982714 Eh    ::

    * Orbital Energies and Occupations

         #    Occupation            Energy/Eh            Energy/eV
      -------------------------------------------------------------
         1        2.0000           -0.9656507             -26.2767
       ...           ...                  ...                  ...
        23        2.0000           -0.6702846             -18.2394
        24        2.0000           -0.6625272             -18.0283
        25        2.0000           -0.6463009             -17.5867
        26        2.0000           -0.6414179             -17.4539
        27        2.0000           -0.6350997             -17.2819
        28        2.0000           -0.6159395             -16.7606
        29        2.0000           -0.6134417             -16.6926
        30        2.0000           -0.5960690             -16.2199
        31        2.0000           -0.5878957             -15.9975
        32        2.0000           -0.5522640             -15.0279
        33        2.0000           -0.5432357             -14.7822
        34        2.0000           -0.5401138             -14.6972
        35        2.0000           -0.5278929             -14.3647 (HOMO)
        36                         -0.4174843             -11.3603 (LUMO)
        37                         -0.3804719             -10.3532
        38                         -0.3780853             -10.2882
        39                         -0.3609917              -9.8231
        40                         -0.3366750              -9.1614
        41                         -0.1966560              -5.3513
        42                         -0.1399481              -3.8082
        43                         -0.1314271              -3.5763
        44                         -0.1160250              -3.1572
        45                         -0.0975581              -2.6547
        46                         -0.0897760              -2.4429
       ...                                ...                  ...
        68                          0.9675132              26.3274
      -------------------------------------------------------------
                  HL-Gap            0.1104086 Eh            3.0044 eV

     #   Z          covCN         q      C6AA      α(0)
     1   7 N        1.903    -0.232    26.916     7.692
     2   7 N        1.975     0.311    16.861     6.089
     3   7 N        0.992    -0.173    24.313     7.088
     4   6 C        3.813     0.018    20.268     6.408
     5   6 C        3.789     0.040    19.911     6.355
     6   6 C        3.798    -0.028    21.074     6.536
     7   7 N        2.872     0.073    19.969     6.637
     8   6 C        3.091     0.042    26.955     8.510
     9   7 N        2.867     0.085    19.762     6.602
    10   6 C        3.074    -0.008    28.133     8.696
    11   6 C        3.065    -0.002    28.021     8.680
    12   6 C        3.692    -0.089    22.397     6.772
    13  35 Br       1.038    -0.155   189.310    22.185
    14   1 H        0.924     0.064     2.156     2.296
    15   1 H        0.924     0.069     2.094     2.263
    16   1 H        0.925     0.090     1.882     2.146
    17   1 H        0.924     0.108     1.718     2.050
    18   1 H        0.924     0.102     1.765     2.078
    19   1 H        0.926     0.124     1.582     1.967
    20   1 H        0.926     0.116     1.648     2.007
    21   1 H        0.926     0.123     1.592     1.973
    22   1 H        0.925     0.102     1.768     2.079
    23   1 H        0.924     0.110     1.694     2.035
    24   1 H        0.925     0.111     1.690     2.033

Wiberg/Mayer (AO) data.
largest (>0.10) Wiberg bond orders for each atom

     #   Z sym  total        # sym  WBO       # sym  WBO       # sym  WBO
 ---------------------------------------------------------------------------
     1   7 N    3.188 --     2 N    1.548     4 C    0.980     3 N    0.618
     2   7 N    3.833 --     3 N    2.253     1 N    1.548
     3   7 N    2.957 --     2 N    2.253     1 N    0.618
     4   6 C    3.974 --     5 C    0.982     1 N    0.980    14 H    0.963
                            15 H    0.963
     5   6 C    3.959 --     6 C    0.985     4 C    0.982    13 Br   0.961
                            16 H    0.961
     6   6 C    3.948 --     5 C    0.985     7 N    0.983    17 H    0.961
                            18 H    0.954
     7   7 N    3.715 --     8 C    1.347    11 C    1.225     6 C    0.983
     8   6 C    3.944 --     9 N    1.373     7 N    1.347    19 H    0.949
     9   7 N    3.727 --     8 C    1.373    10 C    1.225    12 C    0.990
    10   6 C    3.947 --    11 C    1.593     9 N    1.225    20 H    0.960
    11   6 C    3.947 --    10 C    1.593     7 N    1.225    21 H    0.957
    12   6 C    3.931 --     9 N    0.990    22 H    0.975    24 H    0.963
                            23 H    0.959
    13  35 Br   1.040 --     5 C    0.961
    14   1 H    0.996 --     4 C    0.963
    15   1 H    0.995 --     4 C    0.963
    16   1 H    0.991 --     5 C    0.961
    17   1 H    0.988 --     6 C    0.961
    18   1 H    0.989 --     6 C    0.954
    19   1 H    0.985 --     8 C    0.949
    20   1 H    0.987 --    10 C    0.960
    21   1 H    0.985 --    11 C    0.957
    22   1 H    0.989 --    12 C    0.975
    23   1 H    0.987 --    12 C    0.959
    24   1 H    0.987 --    12 C    0.963
 ---------------------------------------------------------------------------

molecular dipole:
                 x           y           z       tot (Debye)
 q only:        5.312      -0.560       6.241
   full:        5.262      -0.486       5.919      20.167

           -------------------------------------------------
          | TOTAL ENERGY              -38.864482332598 Eh   |
          | GRADIENT NORM               0.000728234609 Eh/α |
          | HOMO-LUMO GAP               3.004371133292 eV   |
           -------------------------------------------------

 * finished run on 2024/12/20 at 06:52:02.526
