   * xtb version 6.7.1 (edcfbbe) compiled by 'conda@3ef47c1a292c' on 2024-11-25

   ID    Z sym.   atoms
    1    6 C      1, 3, 4, 6, 8, 10-13
    2    8 O      2, 5
    3    7 N      7, 9
    4    1 H      14-30

          program call               : xtb C0665.xyz --opt --namespace C0665 --charge +1
          :  Hamiltonian                  GFN2-xTB          :
 * total energy  :   -41.5444211 Eh     change       -0.1388401E-09 Eh
 * total energy  :   -41.5494569 Eh     change       -0.5035833E-02 Eh
 * total energy  :   -41.5505679 Eh     change       -0.1111028E-02 Eh
 * total energy  :   -41.5507683 Eh     change       -0.2004211E-03 Eh
 * total energy  :   -41.5509309 Eh     change       -0.1625782E-03 Eh
 * total energy  :   -41.5509936 Eh     change       -0.6267340E-04 Eh
 * total energy  :   -41.5511029 Eh     change       -0.1093199E-03 Eh
 * total energy  :   -41.5512986 Eh     change       -0.1956879E-03 Eh
 * total energy  :   -41.5514876 Eh     change       -0.1889499E-03 Eh
 * total energy  :   -41.5517077 Eh     change       -0.2201470E-03 Eh
 * total energy  :   -41.5528053 Eh     change       -0.4161889E-04 Eh
 * total energy  :   -41.5528261 Eh     change       -0.2075130E-04 Eh
 * total energy  :   -41.5528555 Eh     change       -0.2937265E-04 Eh
 * total energy  :   -41.5528678 Eh     change       -0.1238848E-04 Eh
 * total energy  :   -41.5528858 Eh     change       -0.1794234E-04 Eh
 * total energy  :   -41.5528916 Eh     change       -0.5831326E-05 Eh
 * total energy  :   -41.5529099 Eh     change       -0.1827290E-04 Eh
 * total energy  :   -41.5529167 Eh     change       -0.6764336E-05 Eh
 * total energy  :   -41.5529196 Eh     change       -0.2984051E-05 Eh
   *** GEOMETRY OPTIMIZATION CONVERGED AFTER 40 ITERATIONS ***

 final structure:
================
30
 xtb: 6.7.1 (edcfbbe)
C            2.24697325849328        0.46793513838078        0.84059572980900
O            1.17275631172331       -0.14449684953122        0.15391385063755
C            1.32414926238880       -1.54870287488943        0.03933433105060
C            0.07197227728290       -2.15421845612136       -0.59323333446064
O            0.02134155505502       -2.01925059612172       -2.00668717342903
C           -0.14036927855689       -0.73470425343831       -2.49245573154399
N           -1.54467541368738       -0.32043914656899       -2.40071935068583
C           -2.07701390371951        0.65497762989176       -1.65171705089677
N           -3.40180506982272        0.64804650011198       -1.84291568959214
C           -3.71435797612838       -0.35885792129539       -2.71375580324079
C           -2.55364020038833       -0.96610352834376       -3.06174751649091
C           -4.35116905156076        1.55075998854764       -1.24444754246474
C           -1.34106865376518        1.59072431683636       -0.78165318023378
H            2.02886863741759        1.53288251822243        0.87591891485111
H            3.19173195892302        0.30357890642422        0.31438817551188
H            2.33183281578921        0.07616847172353        1.85818413484999
H            2.20152438526832       -1.78723903678140       -0.57629266277487
H            1.46637615314304       -1.98684162738437        1.03557808700743
H            0.07013715350554       -3.23141243072878       -0.42569766100122
H           -0.82043186859743       -1.71580367162351       -0.12905928261218
H            0.47330061470228        0.00192023756305       -1.96407985008979
H            0.13045352606341       -0.76831073795738       -3.55307545854573
H           -4.72033260729673       -0.56339068261028       -3.01676738811698
H           -2.35983379908979       -1.79735099916656       -3.70739931793694
H           -4.37513953270779        1.42210719284669       -0.16133121009758
H           -4.09187596547917        2.58458637448689       -1.47368449579276
H           -5.34088457858435        1.34008828729214       -1.64220537440656
H           -0.52130385170416        1.08111470687562       -0.27462338594284
H           -0.91471374934870        2.40361215504688       -1.37078441543748
H           -2.00301240931263        2.02325038831108       -0.03727034792831

          :  Hamiltonian                  GFN2-xTB          :
         :: total energy             -41.552919640248 Eh    ::
         :: gradient norm              0.000656754939 Eh/a0 ::
         :: HOMO-LUMO gap              3.417526014195 eV    ::
         :: SCC energy               -42.060487940136 Eh    ::
         :: -> dispersion             -0.023169908953 Eh    ::
         :: repulsion energy           0.507568299887 Eh    ::

    * Orbital Energies and Occupations

         #    Occupation            Energy/Eh            Energy/eV
      -------------------------------------------------------------
         1        2.0000           -0.8857093             -24.1014
       ...           ...                  ...                  ...
        25        2.0000           -0.6457518             -17.5718
        26        2.0000           -0.6398287             -17.4106
        27        2.0000           -0.6314924             -17.1838
        28        2.0000           -0.6279581             -17.0876
        29        2.0000           -0.6173424             -16.7987
        30        2.0000           -0.6076717             -16.5356
        31        2.0000           -0.6014075             -16.3651
        32        2.0000           -0.5905916             -16.0708
        33        2.0000           -0.5809540             -15.8086
        34        2.0000           -0.5709883             -15.5374
        35        2.0000           -0.5651007             -15.3772
        36        2.0000           -0.5492644             -14.9462
        37        2.0000           -0.5196833             -14.1413 (HOMO)
        38                         -0.3940916             -10.7238 (LUMO)
        39                         -0.3594605              -9.7814
        40                         -0.1882294              -5.1220
        41                         -0.1303846              -3.5479
        42                         -0.1140022              -3.1022
        43                         -0.0944398              -2.5698
        44                         -0.0568112              -1.5459
        45                         -0.0464467              -1.2639
        46                         -0.0374608              -1.0194
        47                         -0.0315342              -0.8581
        48                         -0.0170030              -0.4627
       ...                                ...                  ...
        69                          0.4819940              13.1157
      -------------------------------------------------------------
                  HL-Gap            0.1255918 Eh            3.4175 eV

     #   Z          covCN         q      C6AA      α(0)
     1   6 C        3.651     0.030    20.380     6.484
     2   8 O        1.699    -0.335    19.613     5.979
     3   6 C        3.700     0.066    19.631     6.336
     4   6 C        3.694     0.060    19.744     6.357
     5   8 O        1.702    -0.281    18.658     5.832
     6   6 C        3.635     0.115    19.052     6.281
     7   7 N        2.871     0.008    21.106     6.823
     8   6 C        3.090     0.112    25.427     8.265
     9   7 N        2.871     0.048    20.394     6.707
    10   6 C        3.046    -0.010    28.231     8.714
    11   6 C        3.044    -0.001    28.012     8.681
    12   6 C        3.692    -0.081    22.234     6.747
    13   6 C        3.754    -0.150    23.460     6.906
    14   1 H        0.925     0.065     2.140     2.288
    15   1 H        0.924     0.046     2.374     2.410
    16   1 H        0.924     0.047     2.358     2.402
    17   1 H        0.923     0.052     2.294     2.368
    18   1 H        0.924     0.048     2.341     2.393
    19   1 H        0.925     0.087     1.910     2.161
    20   1 H        0.924     0.044     2.399     2.422
    21   1 H        0.924     0.093     1.846     2.125
    22   1 H        0.924     0.098     1.800     2.098
    23   1 H        0.926     0.104     1.745     2.065
    24   1 H        0.927     0.112     1.683     2.029
    25   1 H        0.924     0.097     1.816     2.107
    26   1 H        0.924     0.098     1.800     2.098
    27   1 H        0.925     0.104     1.753     2.070
    28   1 H        0.924     0.125     1.577     1.964
    29   1 H        0.924     0.102     1.765     2.078
    30   1 H        0.925     0.096     1.825     2.112

Wiberg/Mayer (AO) data.
largest (>0.10) Wiberg bond orders for each atom

     #   Z sym  total        # sym  WBO       # sym  WBO       # sym  WBO
 ---------------------------------------------------------------------------
     1   6 C    3.939 --    14 H    0.979     2 O    0.979    15 H    0.979
                            16 H    0.978
     2   8 O    2.068 --     1 C    0.979     3 C    0.978
     3   6 C    3.953 --     4 C    0.997     2 O    0.978    17 H    0.965
                            18 H    0.965
     4   6 C    3.942 --     3 C    0.997    20 H    0.968     5 O    0.966
                            19 H    0.965
     5   8 O    2.127 --     6 C    1.032     4 C    0.966
     6   6 C    3.925 --     5 O    1.032    22 H    0.951    21 H    0.948
                             7 N    0.934
     7   7 N    3.674 --     8 C    1.322    11 C    1.204     6 C    0.934
     8   6 C    3.950 --     9 N    1.331     7 N    1.322    13 C    1.050
     9   7 N    3.695 --     8 C    1.331    10 C    1.201    12 C    0.990
    10   6 C    3.948 --    11 C    1.621     9 N    1.201    23 H    0.961
    11   6 C    3.948 --    10 C    1.621     7 N    1.204    24 H    0.960
    12   6 C    3.937 --     9 N    0.990    27 H    0.974    26 H    0.967
                            25 H    0.964
    13   6 C    3.971 --     8 C    1.050    30 H    0.967    29 H    0.941
                            28 H    0.941
    14   1 H    0.995 --     1 C    0.979
    15   1 H    0.998 --     1 C    0.979
    16   1 H    0.998 --     1 C    0.978
    17   1 H    0.997 --     3 C    0.965
    18   1 H    0.998 --     3 C    0.965
    19   1 H    0.992 --     4 C    0.965
    20   1 H    0.998 --     4 C    0.968
    21   1 H    0.991 --     6 C    0.948
    22   1 H    0.990 --     6 C    0.951
    23   1 H    0.989 --    10 C    0.961
    24   1 H    0.987 --    11 C    0.960
    25   1 H    0.990 --    12 C    0.964
    26   1 H    0.990 --    12 C    0.967
    27   1 H    0.989 --    12 C    0.974
    28   1 H    0.984 --    13 C    0.941
    29   1 H    0.990 --    13 C    0.941
    30   1 H    0.990 --    13 C    0.967
 ---------------------------------------------------------------------------

molecular dipole:
                 x           y           z       tot (Debye)
 q only:       -3.700       0.753      -2.765
   full:       -3.596       0.772      -2.660      11.537

           -------------------------------------------------
          | TOTAL ENERGY              -41.552919640248 Eh   |
          | GRADIENT NORM               0.000656754939 Eh/α |
          | HOMO-LUMO GAP               3.417526014195 eV   |
           -------------------------------------------------

 * finished run on 2024/12/20 at 06:52:52.315
