   * xtb version 6.7.1 (edcfbbe) compiled by 'conda@3ef47c1a292c' on 2024-11-25

   ID    Z sym.   atoms
    1    8 O      1
    2    6 C      2-9, 11-16, 18
    3    7 N      10, 17, 19, 20
    4    1 H      21-35

          program call               : xtb C0670.xyz --opt --namespace C0670 --charge +1
          :  Hamiltonian                  GFN2-xTB          :
 * total energy  :   -55.1040352 Eh     change       -0.3958647E-09 Eh
 * total energy  :   -55.1120926 Eh     change       -0.8057382E-02 Eh
 * total energy  :   -55.1136065 Eh     change       -0.1513908E-02 Eh
 * total energy  :   -55.1141051 Eh     change       -0.4986313E-03 Eh
 * total energy  :   -55.1148348 Eh     change       -0.7296519E-03 Eh
 * total energy  :   -55.1152852 Eh     change       -0.4504042E-03 Eh
 * total energy  :   -55.1161586 Eh     change       -0.8733601E-03 Eh
 * total energy  :   -55.1168534 Eh     change       -0.6948913E-03 Eh
 * total energy  :   -55.1178433 Eh     change       -0.9898366E-03 Eh
 * total energy  :   -55.1187183 Eh     change       -0.8750303E-03 Eh
 * total energy  :   -55.1289269 Eh     change       -0.1368050E-04 Eh
 * total energy  :   -55.1289419 Eh     change       -0.1508443E-04 Eh
 * total energy  :   -55.1289634 Eh     change       -0.2148967E-04 Eh
 * total energy  :   -55.1289855 Eh     change       -0.2210504E-04 Eh
 * total energy  :   -55.1290157 Eh     change       -0.3019460E-04 Eh
 * total energy  :   -55.1290448 Eh     change       -0.2909645E-04 Eh
 * total energy  :   -55.1290601 Eh     change       -0.1529815E-04 Eh
 * total energy  :   -55.1290683 Eh     change       -0.8179309E-05 Eh
 * total energy  :   -55.1290712 Eh     change       -0.2933391E-05 Eh
   *** GEOMETRY OPTIMIZATION CONVERGED AFTER 46 ITERATIONS ***

 final structure:
================
35
 xtb: 6.7.1 (edcfbbe)
O            2.65611421701841       -0.77138365084243        1.56874534885335
C            3.49491572281967       -0.40519511762370        0.76596250659771
C            4.21431604985333       -1.32540618218106       -0.10686222331228
C            4.28233983356901       -2.66971100337253        0.28245066552605
C            4.94536014427922       -3.59160447018239       -0.50092147597635
C            5.53048137250459       -3.19153685441340       -1.69328302881238
C            5.44451739488383       -1.86801688045944       -2.10268863957917
C            4.79896692966877       -0.93471929535670       -1.31646394496294
C            3.81853579218999        1.10241871875205        0.68942864737009
N            2.75534217172295        1.84548517302916        0.04417629605892
C            2.88332510055710        2.66406133369174       -1.07684858782185
C            3.96010988723849        2.95862469221100       -1.89477388259309
C            3.73947716314174        3.83518391021631       -2.94433292301585
C            2.49124002864197        4.40487308717684       -3.17302640608755
C            1.41070907340203        4.12542637920936       -2.35401052028104
C            1.62954990056978        3.25020717341999       -1.30640667886650
N            0.78278960963899        2.76817712783487       -0.31056700163276
C            1.48452742371666        1.92922458143823        0.48465140705978
N            0.98166855627351        1.34003740897616        1.55636191396637
N           -0.56125739310945        3.02898745033907       -0.08573955682122
H            3.82136945239827       -2.96108638791183        1.21390553445124
H            5.00447074681366       -4.62165853888853       -0.18674228394860
H            6.04753821138397       -3.91089394018442       -2.30922181608100
H            5.88384792983481       -1.56510534037672       -3.04057212097691
H            4.71267908617630        0.08147444970517       -1.66991704696737
H            3.92868643309916        1.45786631276084        1.72151579496640
H            4.74721010395527        1.28920913837353        0.15542409031204
H            4.94016401181831        2.54149339603432       -1.72937023456812
H            4.55888181052637        4.08450859412543       -3.59893275133984
H            2.36338369143805        5.08193338686854       -4.00184046701718
H            0.44574323826144        4.57406304185325       -2.52732687537087
H            1.47724561953754        0.54160690048736        1.96275115509921
H           -0.00531446588387        1.45888534930990        1.72763122268475
H           -1.12393953786604        2.78710035852194       -0.89818982943234
H           -0.71608531006501        4.00820969745404        0.14462371252629

          :  Hamiltonian                  GFN2-xTB          :
         :: total energy             -55.129071242346 Eh    ::
         :: gradient norm              0.000522261989 Eh/a0 ::
         :: HOMO-LUMO gap              2.868025308446 eV    ::
         :: SCC energy               -56.004048911799 Eh    ::
         :: -> dispersion             -0.037069569315 Eh    ::
         :: repulsion energy           0.874977669452 Eh    ::

    * Orbital Energies and Occupations

         #    Occupation            Energy/Eh            Energy/eV
      -------------------------------------------------------------
         1        2.0000           -0.8739786             -23.7822
       ...           ...                  ...                  ...
        38        2.0000           -0.5940427             -16.1647
        39        2.0000           -0.5909484             -16.0805
        40        2.0000           -0.5800489             -15.7839
        41        2.0000           -0.5736658             -15.6102
        42        2.0000           -0.5666227             -15.4186
        43        2.0000           -0.5541733             -15.0798
        44        2.0000           -0.5508572             -14.9896
        45        2.0000           -0.5383360             -14.6489
        46        2.0000           -0.5363199             -14.5940
        47        2.0000           -0.5288023             -14.3894
        48        2.0000           -0.5278237             -14.3628
        49        2.0000           -0.5239306             -14.2569
        50        2.0000           -0.5185606             -14.1108 (HOMO)
        51                         -0.4131626             -11.2427 (LUMO)
        52                         -0.3814332             -10.3793
        53                         -0.3530195              -9.6061
        54                         -0.3405639              -9.2672
        55                         -0.3382745              -9.2049
        56                         -0.3196746              -8.6988
        57                         -0.2273627              -6.1869
        58                         -0.2098481              -5.7103
        59                         -0.2040029              -5.5512
        60                         -0.1507736              -4.1028
        61                         -0.1132966              -3.0830
       ...                                ...                  ...
        95                          0.5549130              15.1000
      -------------------------------------------------------------
                  HL-Gap            0.1053980 Eh            2.8680 eV

     #   Z          covCN         q      C6AA      α(0)
     1   8 O        0.858    -0.363    20.959     6.138
     2   6 C        2.821     0.224    23.290     7.907
     3   6 C        2.971    -0.015    28.376     8.738
     4   6 C        2.926    -0.009    28.239     8.715
     5   6 C        2.916    -0.017    28.438     8.745
     6   6 C        2.920    -0.007    28.195     8.708
     7   6 C        2.917    -0.020    28.509     8.756
     8   6 C        2.919    -0.026    28.651     8.778
     9   6 C        3.738    -0.040    21.369     6.596
    10   7 N        2.816    -0.029    21.796     6.934
    11   6 C        3.077     0.037    27.093     8.534
    12   6 C        2.911    -0.037    28.917     8.818
    13   6 C        2.925    -0.023    28.584     8.768
    14   6 C        2.926    -0.023    28.574     8.766
    15   6 C        2.910    -0.036    28.898     8.815
    16   6 C        3.065     0.026    27.363     8.578
    17   7 N        2.893     0.035    20.632     6.746
    18   6 C        2.969     0.194    23.878     8.015
    19   7 N        2.637    -0.240    26.283     7.614
    20   7 N        2.706    -0.264    26.829     7.693
    21   1 H        0.926     0.073     2.053     2.241
    22   1 H        0.926     0.067     2.121     2.277
    23   1 H        0.926     0.067     2.118     2.276
    24   1 H        0.926     0.059     2.210     2.325
    25   1 H        0.926     0.041     2.441     2.443
    26   1 H        0.924     0.091     1.865     2.136
    27   1 H        0.925     0.093     1.852     2.128
    28   1 H        0.926     0.060     2.204     2.322
    29   1 H        0.926     0.074     2.043     2.235
    30   1 H        0.926     0.075     2.035     2.231
    31   1 H        0.926     0.063     2.165     2.301
    32   1 H        0.859     0.266     0.823     1.421
    33   1 H        0.860     0.231     0.960     1.534
    34   1 H        0.860     0.187     1.176     1.699
    35   1 H        0.860     0.187     1.175     1.698

Wiberg/Mayer (AO) data.
largest (>0.10) Wiberg bond orders for each atom

     #   Z sym  total        # sym  WBO       # sym  WBO       # sym  WBO
 ---------------------------------------------------------------------------
     1   8 O    2.100 --     2 C    1.775
     2   6 C    3.925 --     1 O    1.775     3 C    1.089     9 C    0.942
     3   6 C    3.986 --     8 C    1.351     4 C    1.347     2 C    1.089
     4   6 C    3.984 --     5 C    1.465     3 C    1.347    21 H    0.965
     5   6 C    3.989 --     4 C    1.465     6 C    1.426    22 H    0.967
                             8 C    0.102
     6   6 C    3.984 --     5 C    1.426     7 C    1.418    23 H    0.968
     7   6 C    3.990 --     8 C    1.471     6 C    1.418    24 H    0.968
     8   6 C    3.991 --     7 C    1.471     3 C    1.351    25 H    0.964
                             5 C    0.102
     9   6 C    3.948 --    10 N    0.973    27 H    0.963    26 H    0.952
                             2 C    0.942
    10   7 N    3.585 --    18 C    1.248    11 C    1.080     9 C    0.973
    11   6 C    3.948 --    12 C    1.375    16 C    1.282    10 N    1.080
    12   6 C    3.986 --    13 C    1.455    11 C    1.375    28 H    0.961
                            15 C    0.112
    13   6 C    3.981 --    12 C    1.455    14 C    1.416    29 H    0.967
    14   6 C    3.981 --    15 C    1.454    13 C    1.416    30 H    0.967
    15   6 C    3.986 --    14 C    1.454    16 C    1.377    31 H    0.965
                            12 C    0.112
    16   6 C    3.952 --    15 C    1.377    11 C    1.282    17 N    1.072
    17   7 N    3.585 --    18 C    1.227    16 C    1.072    20 N    1.024
    18   6 C    3.973 --    19 N    1.337    10 N    1.248    17 N    1.227
    19   7 N    3.394 --    18 C    1.337    33 H    0.921    32 H    0.858
    20   7 N    2.994 --    17 N    1.024    34 H    0.944    35 H    0.943
    21   1 H    0.995 --     4 C    0.965
    22   1 H    0.995 --     5 C    0.967
    23   1 H    0.995 --     6 C    0.968
    24   1 H    0.996 --     7 C    0.968
    25   1 H    0.998 --     8 C    0.964
    26   1 H    0.991 --     9 C    0.952
    27   1 H    0.991 --     9 C    0.963
    28   1 H    0.996 --    12 C    0.961
    29   1 H    0.994 --    13 C    0.967
    30   1 H    0.994 --    14 C    0.967
    31   1 H    0.995 --    15 C    0.965
    32   1 H    0.928 --    19 N    0.858
    33   1 H    0.946 --    19 N    0.921
    34   1 H    0.964 --    20 N    0.944
    35   1 H    0.964 --    20 N    0.943
 ---------------------------------------------------------------------------

molecular dipole:
                 x           y           z       tot (Debye)
 q only:        4.547       3.051      -1.089
   full:        4.515       3.272      -1.314      14.560

           -------------------------------------------------
          | TOTAL ENERGY              -55.129071242346 Eh   |
          | GRADIENT NORM               0.000522261989 Eh/α |
          | HOMO-LUMO GAP               2.868025308446 eV   |
           -------------------------------------------------

 * finished run on 2024/12/20 at 06:52:58.186
