   * xtb version 6.7.1 (edcfbbe) compiled by 'conda@3ef47c1a292c' on 2024-11-25

   ID    Z sym.   atoms
    1    6 C      1-3, 5, 6, 8, 9, 11-16, 19-24
    2    7 N      4, 7
    3    8 O      10, 18
    4   17 Cl     17
    5    1 H      25-42

          program call               : xtb C0672.xyz --opt --namespace C0672 --charge +1
          :  Hamiltonian                  GFN2-xTB          :
 * total energy  :   -67.9396597 Eh     change       -0.2137043E-08 Eh
 * total energy  :   -67.9479733 Eh     change       -0.8313524E-02 Eh
 * total energy  :   -67.9504085 Eh     change       -0.2435271E-02 Eh
 * total energy  :   -67.9509016 Eh     change       -0.4930770E-03 Eh
 * total energy  :   -67.9512889 Eh     change       -0.3873207E-03 Eh
 * total energy  :   -67.9514814 Eh     change       -0.1924739E-03 Eh
 * total energy  :   -67.9516773 Eh     change       -0.1958892E-03 Eh
 * total energy  :   -67.9518242 Eh     change       -0.1469251E-03 Eh
 * total energy  :   -67.9519068 Eh     change       -0.8255979E-04 Eh
 * total energy  :   -67.9519635 Eh     change       -0.5673463E-04 Eh
 * total energy  :   -67.9547664 Eh     change       -0.1463204E-04 Eh
 * total energy  :   -67.9547904 Eh     change       -0.2396406E-04 Eh
 * total energy  :   -67.9548190 Eh     change       -0.2863856E-04 Eh
 * total energy  :   -67.9548390 Eh     change       -0.1994100E-04 Eh
 * total energy  :   -67.9548526 Eh     change       -0.1362968E-04 Eh
 * total energy  :   -67.9548649 Eh     change       -0.1229474E-04 Eh
 * total energy  :   -67.9548751 Eh     change       -0.1022213E-04 Eh
 * total energy  :   -67.9548814 Eh     change       -0.6235379E-05 Eh
 * total energy  :   -67.9548859 Eh     change       -0.4585628E-05 Eh
   *** GEOMETRY OPTIMIZATION CONVERGED AFTER 59 ITERATIONS ***

 final structure:
================
42
 xtb: 6.7.1 (edcfbbe)
C            1.06663335339468       -0.84439763244548       -1.03235276268199
C            0.25619805329352       -1.68240587437877       -0.03379895471672
C            1.12839357780765       -2.49333178981161        0.84439177986852
N            1.37790842250326       -3.79823893757067        0.67722122842959
C            2.23935477700617       -4.23750405370850        1.63950190694207
C            2.52380745366031       -3.15835426090648        2.41263809384962
N            1.83538695486814       -2.08984742397062        1.91004607516521
C            1.92313603817009       -0.74860664581248        2.40399309276261
C            3.12119734288878        0.10537046137167        1.89124455580583
O            2.99569896144659        1.29703793055778        1.87849907317813
C            4.38478621586513       -0.59917036531774        1.58757920037661
C            4.49880235502829       -1.63262092942582        0.65864148074021
C            5.72134096204944       -2.23221196928908        0.42757751637328
C            6.84412448667895       -1.81345908632099        1.13170532252884
C            6.74897012482007       -0.76402585442897        2.03887457942354
C            5.53067503692615       -0.15282808754231        2.25030999289986
Cl           8.35638199201806       -2.58110860010012        0.86034315414425
O            0.88617219808644       -4.52291163051018       -0.35548921175436
C            0.18327023992530       -5.70124971421296       -0.02616595455712
C            0.12270097785269       -6.65590670441046       -1.02845202205101
C           -0.58842450229387       -7.81996380912686       -0.80111448458689
C           -1.21867190547545       -8.02661402768740        0.41585986945007
C           -1.14759107673277       -7.06308254147190        1.40612928758966
C           -0.44626856176830       -5.88690063492078        1.19176843358033
H            1.71550700507146       -0.13533820044311       -0.52427889039456
H            0.38251900269169       -0.28600472792332       -1.66351227984565
H            1.66981902320530       -1.48471681699428       -1.67073563957439
H           -0.36473979894315       -1.02056351634441        0.57370141282382
H           -0.39818721073460       -2.36056618565164       -0.58510698678896
H            2.56773906581492       -5.25496292351406        1.69507303823265
H            3.15824169288660       -3.07791321708778        3.27107747180128
H            1.00678601536909       -0.19836762371071        2.17937062425785
H            2.04381590467902       -0.77753570085139        3.49211241554424
H            3.65405559465437       -1.93144894374231        0.05775978231880
H            5.81234847195977       -3.01765734977675       -0.30522559241604
H            7.62721551583177       -0.42362732895359        2.56297867046275
H            5.44959914748047        0.67264731814704        2.94049610707623
H            0.62040223461233       -6.47025628434407       -1.96587135896054
H           -0.64408665284445       -8.56759474395014       -1.57576323463063
H           -1.76707032617908       -8.93793123044737        0.59147885654448
H           -1.64162988699027       -7.21677379923852        2.35229481429158
H           -0.40464827660927       -5.13488654369648        1.96672953652053

          :  Hamiltonian                  GFN2-xTB          :
         :: total energy             -67.954885942409 Eh    ::
         :: gradient norm              0.000573490459 Eh/a0 ::
         :: HOMO-LUMO gap              2.733604175471 eV    ::
         :: SCC energy               -68.956634844406 Eh    ::
         :: -> dispersion             -0.047517169522 Eh    ::
         :: repulsion energy           1.001748901997 Eh    ::

    * Orbital Energies and Occupations

         #    Occupation            Energy/Eh            Energy/eV
      -------------------------------------------------------------
         1        2.0000           -1.1492082             -31.2715
       ...           ...                  ...                  ...
        49        2.0000           -0.5851215             -15.9220
        50        2.0000           -0.5769463             -15.6995
        51        2.0000           -0.5730762             -15.5942
        52        2.0000           -0.5612849             -15.2733
        53        2.0000           -0.5551477             -15.1063
        54        2.0000           -0.5513136             -15.0020
        55        2.0000           -0.5431580             -14.7801
        56        2.0000           -0.5369571             -14.6113
        57        2.0000           -0.5308271             -14.4445
        58        2.0000           -0.5284431             -14.3797
        59        2.0000           -0.5197858             -14.1441
        60        2.0000           -0.5148217             -14.0090
        61        2.0000           -0.5047265             -13.7343 (HOMO)
        62                         -0.4042684             -11.0007 (LUMO)
        63                         -0.4006020             -10.9009
        64                         -0.3732565             -10.1568
        65                         -0.3537742              -9.6267
        66                         -0.3468734              -9.4389
        67                         -0.3444035              -9.3717
        68                         -0.3435446              -9.3483
        69                         -0.2471769              -6.7260
        70                         -0.2287759              -6.2253
        71                         -0.2277703              -6.1979
        72                         -0.2118112              -5.7637
       ...                                ...                  ...
       119                          0.5466821              14.8760
      -------------------------------------------------------------
                  HL-Gap            0.1004581 Eh            2.7336 eV

     #   Z          covCN         q      C6AA      α(0)
     1   6 C        3.753    -0.114    22.733     6.799
     2   6 C        3.803    -0.066    21.763     6.642
     3   6 C        3.073     0.089    25.953     8.353
     4   7 N        2.917     0.181    18.218     6.339
     5   6 C        3.016    -0.023    28.548     8.764
     6   6 C        3.058    -0.011    28.235     8.714
     7   7 N        2.873     0.045    20.460     6.718
     8   6 C        3.741    -0.051    21.575     6.627
     9   6 C        2.816     0.232    23.139     7.881
    10   8 O        0.858    -0.300    19.782     5.963
    11   6 C        2.969    -0.021    28.532     8.762
    12   6 C        2.921    -0.032    28.810     8.802
    13   6 C        2.955    -0.038    28.944     8.824
    14   6 C        2.886     0.112    25.539     8.285
    15   6 C        2.953    -0.031    28.762     8.796
    16   6 C        2.928    -0.015    28.379     8.736
    17  17 Cl       0.968    -0.118   102.835    15.514
    18   8 O        1.771    -0.202    17.349     5.624
    19   6 C        2.864     0.123    25.289     8.243
    20   6 C        2.917    -0.040    29.002     8.831
    21   6 C        2.924    -0.017    28.439     8.745
    22   6 C        2.919    -0.024    28.597     8.769
    23   6 C        2.924    -0.022    28.545     8.762
    24   6 C        2.915    -0.055    29.374     8.887
    25   1 H        0.925     0.058     2.227     2.334
    26   1 H        0.925     0.082     1.963     2.191
    27   1 H        0.925     0.061     2.188     2.313
    28   1 H        0.924     0.085     1.932     2.174
    29   1 H        0.924     0.093     1.848     2.126
    30   1 H        0.926     0.114     1.662     2.016
    31   1 H        0.926     0.107     1.723     2.052
    32   1 H        0.924     0.111     1.692     2.034
    33   1 H        0.924     0.109     1.709     2.044
    34   1 H        0.926     0.038     2.479     2.462
    35   1 H        0.926     0.074     2.044     2.235
    36   1 H        0.926     0.086     1.917     2.165
    37   1 H        0.926     0.076     2.019     2.222
    38   1 H        0.926     0.071     2.070     2.250
    39   1 H        0.926     0.071     2.078     2.254
    40   1 H        0.926     0.068     2.105     2.269
    41   1 H        0.926     0.063     2.167     2.302
    42   1 H        0.926     0.033     2.543     2.494

Wiberg/Mayer (AO) data.
largest (>0.10) Wiberg bond orders for each atom

     #   Z sym  total        # sym  WBO       # sym  WBO       # sym  WBO
 ---------------------------------------------------------------------------
     1   6 C    3.981 --    27 H    0.986    25 H    0.984     2 C    0.979
                            26 H    0.978
     2   6 C    3.976 --     3 C    1.031     1 C    0.979    29 H    0.961
                            28 H    0.950
     3   6 C    3.937 --     7 N    1.305     4 N    1.301     2 C    1.031
     4   7 N    3.703 --     3 C    1.301     5 C    1.193    18 O    1.007
     5   6 C    3.942 --     6 C    1.601     4 N    1.193    30 H    0.959
     6   6 C    3.947 --     5 C    1.601     7 N    1.204    31 H    0.960
     7   7 N    3.689 --     3 C    1.305     6 C    1.204     8 C    0.992
     8   6 C    3.938 --     7 N    0.992    32 H    0.951    33 H    0.939
                             9 C    0.913
     9   6 C    3.923 --    10 O    1.887    11 C    1.020     8 C    0.913
    10   8 O    2.130 --     9 C    1.887
    11   6 C    3.985 --    12 C    1.377    16 C    1.365     9 C    1.020
    12   6 C    3.990 --    13 C    1.459    11 C    1.377    34 H    0.967
                            15 C    0.101
    13   6 C    3.987 --    12 C    1.459    14 C    1.384    35 H    0.964
                            16 C    0.101
    14   6 C    3.928 --    13 C    1.384    15 C    1.384    17 Cl   1.022
    15   6 C    3.985 --    16 C    1.463    14 C    1.384    36 H    0.962
                            12 C    0.101
    16   6 C    3.986 --    15 C    1.463    11 C    1.365    37 H    0.965
                            13 C    0.101
    17  17 Cl   1.178 --    14 C    1.022
    18   8 O    2.161 --     4 N    1.007    19 C    0.928
    19   6 C    3.889 --    24 C    1.407    20 C    1.385    18 O    0.928
                            22 C    0.102
    20   6 C    3.984 --    21 C    1.445    19 C    1.385    38 H    0.965
                            23 C    0.112
    21   6 C    3.987 --    20 C    1.445    22 C    1.433    39 H    0.967
                            24 C    0.110
    22   6 C    3.987 --    23 C    1.446    21 C    1.433    40 H    0.968
                            19 C    0.102
    23   6 C    3.989 --    22 C    1.446    24 C    1.430    41 H    0.968
                            20 C    0.112
    24   6 C    3.988 --    23 C    1.430    19 C    1.407    42 H    0.967
                            21 C    0.110
    25   1 H    0.997 --     1 C    0.984
    26   1 H    0.992 --     1 C    0.978
    27   1 H    0.996 --     1 C    0.986
    28   1 H    0.993 --     2 C    0.950
    29   1 H    0.991 --     2 C    0.961
    30   1 H    0.986 --     5 C    0.959
    31   1 H    0.988 --     6 C    0.960
    32   1 H    0.987 --     8 C    0.951
    33   1 H    0.987 --     8 C    0.939
    34   1 H    0.999 --    12 C    0.967
    35   1 H    0.994 --    13 C    0.964
    36   1 H    0.992 --    15 C    0.962
    37   1 H    0.994 --    16 C    0.965
    38   1 H    0.995 --    20 C    0.965
    39   1 H    0.994 --    21 C    0.967
    40   1 H    0.995 --    22 C    0.968
    41   1 H    0.996 --    23 C    0.968
    42   1 H    0.999 --    24 C    0.967
 ---------------------------------------------------------------------------

molecular dipole:
                 x           y           z       tot (Debye)
 q only:        2.704      -6.568       2.421
   full:        3.091      -6.794       2.542      20.042

           -------------------------------------------------
          | TOTAL ENERGY              -67.954885942409 Eh   |
          | GRADIENT NORM               0.000573490459 Eh/α |
          | HOMO-LUMO GAP               2.733604175471 eV   |
           -------------------------------------------------

 * finished run on 2024/12/20 at 06:53:02.519
