   * xtb version 6.7.1 (edcfbbe) compiled by 'conda@3ef47c1a292c' on 2024-11-25

   ID    Z sym.   atoms
    1    6 C      1-4, 6-10, 12-18
    2    7 N      5
    3   16 S      11
    4    1 H      19-38

          program call               : xtb C0676.xyz --opt --namespace C0676 --charge +1
          :  Hamiltonian                  GFN2-xTB          :
 * total energy  :   -50.2057586 Eh     change       -0.9066241E-09 Eh
 * total energy  :   -50.2110122 Eh     change       -0.5253612E-02 Eh
 * total energy  :   -50.2124001 Eh     change       -0.1387876E-02 Eh
 * total energy  :   -50.2130336 Eh     change       -0.6335601E-03 Eh
 * total energy  :   -50.2136588 Eh     change       -0.6251963E-03 Eh
 * total energy  :   -50.2140919 Eh     change       -0.4330626E-03 Eh
 * total energy  :   -50.2144968 Eh     change       -0.4049049E-03 Eh
 * total energy  :   -50.2148931 Eh     change       -0.3962747E-03 Eh
 * total energy  :   -50.2152047 Eh     change       -0.3116561E-03 Eh
 * total energy  :   -50.2154148 Eh     change       -0.2101226E-03 Eh
 * total energy  :   -50.2164248 Eh     change       -0.3763745E-04 Eh
 * total energy  :   -50.2164389 Eh     change       -0.1404728E-04 Eh
 * total energy  :   -50.2164478 Eh     change       -0.8955734E-05 Eh
 * total energy  :   -50.2164606 Eh     change       -0.1271877E-04 Eh
 * total energy  :   -50.2164690 Eh     change       -0.8399412E-05 Eh
 * total energy  :   -50.2164785 Eh     change       -0.9538530E-05 Eh
 * total energy  :   -50.2164885 Eh     change       -0.1001024E-04 Eh
 * total energy  :   -50.2164942 Eh     change       -0.5650239E-05 Eh
 * total energy  :   -50.2164963 Eh     change       -0.2170477E-05 Eh
   *** GEOMETRY OPTIMIZATION CONVERGED AFTER 28 ITERATIONS ***

 final structure:
================
38
 xtb: 6.7.1 (edcfbbe)
C           -0.96329129859725       -1.51539821546539        1.17687882215489
C           -0.74622925025865       -0.70457714832009       -0.09445146857046
C           -0.20038613968538       -1.58326444588201       -1.21850545762386
C            0.09509235125618       -0.78807988071086       -2.49656348142718
N           -1.14248442353565       -0.32238680621400       -3.10541954287262
C           -1.90043102356926       -1.25887315545429       -3.71413866142087
C           -3.17542696504407       -1.01040216992230       -4.14405253311789
C           -3.72134028410586        0.25778776190523       -3.92175010714263
C           -2.92907795872642        1.22080410154639       -3.34493882036392
C           -1.60953578435768        0.93694216479263       -2.96287385293122
S           -0.75110275921816        2.29243774230323       -2.26668077810760
C            0.97944779866703        2.31528747820694       -2.92724941143137
C            2.02539172708451        1.81615124519773       -1.97700734506612
C            1.98475021337884        2.17560047997592       -0.63408512144168
C            2.96942699290911        1.74094341865175        0.23385644407788
C            4.00754792157585        0.95125900021349       -0.23373936124012
C            4.05840597306915        0.59726262882838       -1.57142181577106
C            3.06951254046565        1.02234562780345       -2.44148221350084
H           -1.67714560944226       -2.31737742188251        1.00550329717165
H           -1.34772232216400       -0.87939914584995        1.96876885355175
H           -0.02768172341670       -1.95391041701977        1.51365002938794
H           -1.69545297271758       -0.25344913003590       -0.39672449971072
H           -0.03857366249372        0.10216757856268        0.10907613158807
H            0.73813773640230       -2.03394384268812       -0.89324660749121
H           -0.90392298322545       -2.39166120335511       -1.42775702139629
H            0.73092989022824        0.05198315854353       -2.23177424789979
H            0.62246822781469       -1.41702455320194       -3.21705743427633
H           -1.44256768807465       -2.22900598251874       -3.83689737697774
H           -3.74204812635681       -1.78535299826400       -4.63257740962754
H           -4.73285597783256        0.48251474725232       -4.21963362129735
H           -3.29091269978721        2.22474022210348       -3.18834558358275
H            0.98745966690665        1.79394649964592       -3.88314418625633
H            1.11835338558078        3.38342492249995       -3.11149658323444
H            1.17710867165505        2.79717727349431       -0.27342919783805
H            2.92901866763668        2.02473112559697        1.27380390626328
H            4.77825311874714        0.61710140562844        0.44264390705678
H            4.86967251100503       -0.00961710771214       -1.94188948054228
H            3.11651225822810        0.75073504174388       -3.48655816908962

          :  Hamiltonian                  GFN2-xTB          :
         :: total energy             -50.216496324814 Eh    ::
         :: gradient norm              0.000258944864 Eh/a0 ::
         :: HOMO-LUMO gap              1.845154234351 eV    ::
         :: SCC energy               -51.043992936009 Eh    ::
         :: -> dispersion             -0.039934308700 Eh    ::
         :: repulsion energy           0.827496611196 Eh    ::

    * Orbital Energies and Occupations

         #    Occupation            Energy/Eh            Energy/eV
      -------------------------------------------------------------
         1        2.0000           -0.8751703             -23.8146
       ...           ...                  ...                  ...
        35        2.0000           -0.5902308             -16.0610
        36        2.0000           -0.5874617             -15.9856
        37        2.0000           -0.5844024             -15.9024
        38        2.0000           -0.5825000             -15.8506
        39        2.0000           -0.5783940             -15.7389
        40        2.0000           -0.5661382             -15.4054
        41        2.0000           -0.5492407             -14.9456
        42        2.0000           -0.5432303             -14.7820
        43        2.0000           -0.5380650             -14.6415
        44        2.0000           -0.5308341             -14.4447
        45        2.0000           -0.5213723             -14.1873
        46        2.0000           -0.5157136             -14.0333
        47        2.0000           -0.5126123             -13.9489 (HOMO)
        48                         -0.4448041             -12.1037 (LUMO)
        49                         -0.4151581             -11.2970
        50                         -0.3491230              -9.5001
        51                         -0.3342272              -9.0948
        52                         -0.3319017              -9.0315
        53                         -0.3101624              -8.4399
        54                         -0.2915732              -7.9341
        55                         -0.2055798              -5.5941
        56                         -0.1749848              -4.7616
        57                         -0.1506187              -4.0985
        58                         -0.1424024              -3.8750
       ...                                ...                  ...
        97                          0.5532395              15.0544
      -------------------------------------------------------------
                  HL-Gap            0.0678082 Eh            1.8452 eV

     #   Z          covCN         q      C6AA      α(0)
     1   6 C        3.753    -0.112    22.705     6.795
     2   6 C        3.800    -0.056    21.577     6.614
     3   6 C        3.803    -0.070    21.837     6.653
     4   6 C        3.759    -0.034    21.233     6.569
     5   7 N        2.761     0.069    20.042     6.649
     6   6 C        2.894     0.031    27.306     8.567
     7   6 C        2.915    -0.021    28.533     8.759
     8   6 C        2.922     0.007    27.857     8.655
     9   6 C        3.006    -0.027    28.650     8.780
    10   6 C        2.919     0.096    25.867     8.340
    11  16 S        2.060    -0.040   142.727    20.107
    12   6 C        3.798    -0.025    21.014     6.527
    13   6 C        2.985    -0.002    28.071     8.691
    14   6 C        2.923    -0.035    28.864     8.810
    15   6 C        2.919    -0.022    28.563     8.764
    16   6 C        2.920    -0.022    28.547     8.762
    17   6 C        2.919    -0.024    28.600     8.770
    18   6 C        2.922    -0.040    28.992     8.830
    19   1 H        0.925     0.045     2.383     2.414
    20   1 H        0.925     0.055     2.263     2.352
    21   1 H        0.925     0.049     2.334     2.389
    22   1 H        0.924     0.027     2.636     2.539
    23   1 H        0.924     0.043     2.416     2.431
    24   1 H        0.924     0.072     2.060     2.244
    25   1 H        0.924     0.053     2.280     2.361
    26   1 H        0.925     0.095     1.827     2.114
    27   1 H        0.924     0.078     1.999     2.211
    28   1 H        0.926     0.102     1.766     2.078
    29   1 H        0.926     0.101     1.773     2.082
    30   1 H        0.926     0.102     1.768     2.079
    31   1 H        0.926     0.104     1.746     2.066
    32   1 H        0.925     0.063     2.165     2.301
    33   1 H        0.925     0.092     1.862     2.134
    34   1 H        0.926     0.045     2.385     2.415
    35   1 H        0.926     0.055     2.261     2.352
    36   1 H        0.926     0.057     2.239     2.340
    37   1 H        0.926     0.054     2.276     2.359
    38   1 H        0.926     0.035     2.514     2.480

Wiberg/Mayer (AO) data.
largest (>0.10) Wiberg bond orders for each atom

     #   Z sym  total        # sym  WBO       # sym  WBO       # sym  WBO
 ---------------------------------------------------------------------------
     1   6 C    3.992 --     2 C    1.017    19 H    0.987    21 H    0.987
                            20 H    0.985
     2   6 C    3.996 --     1 C    1.017     3 C    1.008    22 H    0.977
                            23 H    0.976
     3   6 C    3.984 --     2 C    1.008     4 C    0.979    25 H    0.972
                            24 H    0.966
     4   6 C    3.934 --     3 C    0.979    27 H    0.962     5 N    0.959
                            26 H    0.946
     5   7 N    3.725 --     6 C    1.276    10 C    1.273     4 C    0.959
     6   6 C    3.958 --     7 C    1.518     5 N    1.276    28 H    0.954
                             9 C    0.101
     7   6 C    3.980 --     6 C    1.518     8 C    1.348    29 H    0.960
     8   6 C    3.973 --     9 C    1.499     7 C    1.348    30 H    0.961
     9   6 C    3.981 --     8 C    1.499    10 C    1.343    31 H    0.957
                             6 C    0.101
    10   6 C    3.961 --     9 C    1.343     5 N    1.273    11 S    1.147
    11  16 S    2.392 --    10 C    1.147    12 C    0.938
    12   6 C    3.950 --    13 C    1.015    32 H    0.969    33 H    0.946
                            11 S    0.938
    13   6 C    3.982 --    14 C    1.401    18 C    1.396    12 C    1.015
                            16 C    0.107
    14   6 C    3.990 --    15 C    1.449    13 C    1.401    34 H    0.965
                            17 C    0.110
    15   6 C    3.990 --    14 C    1.449    16 C    1.434    35 H    0.969
                            18 C    0.109
    16   6 C    3.983 --    17 C    1.440    15 C    1.434    36 H    0.969
                            13 C    0.107
    17   6 C    3.991 --    18 C    1.442    16 C    1.440    37 H    0.969
                            14 C    0.110
    18   6 C    3.990 --    17 C    1.442    13 C    1.396    38 H    0.968
                            15 C    0.109
    19   1 H    0.998 --     1 C    0.987
    20   1 H    0.997 --     1 C    0.985
    21   1 H    0.998 --     1 C    0.987
    22   1 H    0.999 --     2 C    0.977
    23   1 H    0.998 --     2 C    0.976
    24   1 H    0.994 --     3 C    0.966
    25   1 H    0.997 --     3 C    0.972
    26   1 H    0.991 --     4 C    0.946
    27   1 H    0.994 --     4 C    0.962
    28   1 H    0.990 --     6 C    0.954
    29   1 H    0.989 --     7 C    0.960
    30   1 H    0.989 --     8 C    0.961
    31   1 H    0.989 --     9 C    0.957
    32   1 H    0.996 --    12 C    0.969
    33   1 H    0.990 --    12 C    0.946
    34   1 H    0.998 --    14 C    0.965
    35   1 H    0.997 --    15 C    0.969
    36   1 H    0.996 --    16 C    0.969
    37   1 H    0.996 --    17 C    0.969
    38   1 H    0.999 --    18 C    0.968
 ---------------------------------------------------------------------------

molecular dipole:
                 x           y           z       tot (Debye)
 q only:       -1.626      -0.027      -5.252
   full:       -1.497      -0.067      -5.541      14.591

           -------------------------------------------------
          | TOTAL ENERGY              -50.216496324814 Eh   |
          | GRADIENT NORM               0.000258944864 Eh/α |
          | HOMO-LUMO GAP               1.845154234351 eV   |
           -------------------------------------------------

 * finished run on 2024/12/20 at 06:53:06.442
