   * xtb version 6.7.1 (edcfbbe) compiled by 'conda@3ef47c1a292c' on 2024-11-25

   ID    Z sym.   atoms
    1    6 C      1-4, 6-9
    2    7 N      5
    3    8 O      10
    4    1 H      11-30

          program call               : xtb C0675.xyz --opt --namespace C0675 --charge +1
          :  Hamiltonian                  GFN2-xTB          :
 * total energy  :   -33.9038567 Eh     change       -0.5307754E-10 Eh
 * total energy  :   -33.9112303 Eh     change       -0.7373636E-02 Eh
 * total energy  :   -33.9130409 Eh     change       -0.1810617E-02 Eh
 * total energy  :   -33.9131524 Eh     change       -0.1114246E-03 Eh
 * total energy  :   -33.9132033 Eh     change       -0.5091877E-04 Eh
 * total energy  :   -33.9132300 Eh     change       -0.2674458E-04 Eh
 * total energy  :   -33.9132622 Eh     change       -0.3212177E-04 Eh
 * total energy  :   -33.9132908 Eh     change       -0.2863056E-04 Eh
 * total energy  :   -33.9132974 Eh     change       -0.6633551E-05 Eh
 * total energy  :   -33.9132999 Eh     change       -0.2517373E-05 Eh
   *** GEOMETRY OPTIMIZATION CONVERGED AFTER 10 ITERATIONS ***

 final structure:
================
30
 xtb: 6.7.1 (edcfbbe)
C            1.42096542149492        0.28938942866854        0.60523723876043
C            0.85255469538055        1.66781777023637        0.92355529737126
C            1.02810078916589        2.67408301930994       -0.21771469494348
C            0.42792428034094        2.33509070171167       -1.58468653313534
N           -1.06995485223307        2.34094839897467       -1.73486619268841
C           -1.66753630107762        3.45301480533048       -0.97271789570328
C           -1.37695638555481        2.54531197740578       -3.16422000899618
C           -1.67941468730971        1.06308888219507       -1.25726861099499
C           -1.56917405954230       -0.14068265205841       -2.20043720065248
O           -0.22200356017087       -0.37508187432384       -2.54113444592680
H            0.92296664299347       -0.18009977401285       -0.23900655666155
H            1.31274915557204       -0.36315392902347        1.46695278291536
H            2.47972942274964        0.36616371527608        0.37312510312628
H           -0.19338866102927        1.58911247183247        1.23087893153529
H            1.39057498650942        2.06943473401816        1.78403331459057
H            0.69693688415073        3.65784534983582        0.11638926229622
H            2.10108709205854        2.75771245304100       -0.40704903187922
H            0.80851018049982        3.07927425721772       -2.28683655692637
H            0.77407205888605        1.35339071955944       -1.90610751288611
H           -1.16054659622989        4.38432899700796       -1.21842226017035
H           -2.72146124529639        3.55541936292084       -1.22664199959305
H           -1.58255741414664        3.27328447901641        0.09634662993543
H           -0.82719723306112        1.82669533433979       -3.76820803334517
H           -2.44510627955140        2.42707170435989       -3.33881446156895
H           -1.08624854164883        3.54965605508527       -3.46663115063848
H           -1.20263844323409        0.80574774463785       -0.31361791650116
H           -2.74311397370182        1.23514204575129       -1.08091630486359
H           -1.98966752043613       -0.99455368623714       -1.65418413946352
H           -2.17417829475760        0.00696596214450       -3.10447925388296
H           -0.13288756082062       -1.23755845422159       -2.95971779910946

          :  Hamiltonian                  GFN2-xTB          :
         :: total energy             -33.913299932980 Eh    ::
         :: gradient norm              0.000302733803 Eh/a0 ::
         :: HOMO-LUMO gap              8.611321076723 eV    ::
         :: SCC energy               -34.345397951198 Eh    ::
         :: -> dispersion             -0.021894704291 Eh    ::
         :: repulsion energy           0.432098018218 Eh    ::

    * Orbital Energies and Occupations

         #    Occupation            Energy/Eh            Energy/eV
      -------------------------------------------------------------
         1        2.0000           -0.8591634             -23.3790
       ...           ...                  ...                  ...
        19        2.0000           -0.6466209             -17.5954
        20        2.0000           -0.6415597             -17.4577
        21        2.0000           -0.6381226             -17.3642
        22        2.0000           -0.6359481             -17.3050
        23        2.0000           -0.6307079             -17.1624
        24        2.0000           -0.6221838             -16.9305
        25        2.0000           -0.6040094             -16.4359
        26        2.0000           -0.5987565             -16.2930
        27        2.0000           -0.5876574             -15.9910
        28        2.0000           -0.5663130             -15.4102
        29        2.0000           -0.5620866             -15.2952
        30        2.0000           -0.5548899             -15.0993
        31        2.0000           -0.5476625             -14.9027 (HOMO)
        32                         -0.2312023              -6.2913 (LUMO)
        33                         -0.1688399              -4.5944
        34                         -0.1480011              -4.0273
        35                         -0.1446352              -3.9357
        36                         -0.1055443              -2.8720
        37                         -0.0636853              -1.7330
        38                         -0.0571544              -1.5552
        39                         -0.0519548              -1.4138
        40                         -0.0245755              -0.6687
        41                         -0.0186676              -0.5080
        42                         -0.0072301              -0.1967
       ...                                ...                  ...
        60                          0.1906680               5.1883
      -------------------------------------------------------------
                  HL-Gap            0.3164602 Eh            8.6113 eV

     #   Z          covCN         q      C6AA      α(0)
     1   6 C        3.752    -0.120    22.859     6.818
     2   6 C        3.799    -0.061    21.675     6.629
     3   6 C        3.799    -0.077    21.974     6.674
     4   6 C        3.755    -0.053    21.582     6.624
     5   7 N        3.620     0.137    18.907     6.458
     6   6 C        3.722    -0.096    22.440     6.765
     7   6 C        3.724    -0.097    22.468     6.768
     8   6 C        3.759    -0.046    21.453     6.603
     9   6 C        3.672     0.072    19.609     6.347
    10   8 O        1.656    -0.440    21.644     6.280
    11   1 H        0.925     0.044     2.393     2.419
    12   1 H        0.925     0.052     2.292     2.368
    13   1 H        0.925     0.050     2.315     2.379
    14   1 H        0.924     0.026     2.649     2.545
    15   1 H        0.924     0.058     2.224     2.332
    16   1 H        0.924     0.053     2.277     2.360
    17   1 H        0.924     0.077     2.007     2.215
    18   1 H        0.924     0.080     1.977     2.199
    19   1 H        0.925     0.124     1.579     1.965
    20   1 H        0.925     0.099     1.790     2.092
    21   1 H        0.925     0.093     1.849     2.127
    22   1 H        0.925     0.102     1.768     2.080
    23   1 H        0.925     0.111     1.692     2.034
    24   1 H        0.925     0.093     1.851     2.127
    25   1 H        0.925     0.096     1.824     2.112
    26   1 H        0.925     0.114     1.665     2.018
    27   1 H        0.924     0.084     1.938     2.177
    28   1 H        0.924     0.062     2.175     2.307
    29   1 H        0.924     0.048     2.339     2.392
    30   1 H        0.805     0.314     0.681     1.296

Wiberg/Mayer (AO) data.
largest (>0.10) Wiberg bond orders for each atom

     #   Z sym  total        # sym  WBO       # sym  WBO       # sym  WBO
 ---------------------------------------------------------------------------
     1   6 C    3.993 --     2 C    1.020    13 H    0.986    12 H    0.985
                            11 H    0.981
     2   6 C    3.994 --     1 C    1.020     3 C    1.006    15 H    0.973
                            14 H    0.969
     3   6 C    3.985 --     4 C    1.008     2 C    1.006    16 H    0.971
                            17 H    0.962
     4   6 C    3.915 --     3 C    1.008    18 H    0.969    19 H    0.950
                             5 N    0.913
     5   7 N    3.812 --     6 C    0.961     7 C    0.960     8 C    0.938
                             4 C    0.913
     6   6 C    3.931 --    21 H    0.975    20 H    0.974    22 H    0.973
                             5 N    0.961
     7   6 C    3.929 --    24 H    0.975    25 H    0.975    23 H    0.972
                             5 N    0.960
     8   6 C    3.939 --     9 C    1.004    27 H    0.968    26 H    0.953
                             5 N    0.938
     9   6 C    3.958 --     8 C    1.004    10 O    1.003    29 H    0.965
                            28 H    0.963
    10   8 O    1.961 --     9 C    1.003    30 H    0.885
    11   1 H    0.998 --     1 C    0.981
    12   1 H    0.997 --     1 C    0.985
    13   1 H    0.997 --     1 C    0.986
    14   1 H    0.999 --     2 C    0.969
    15   1 H    0.996 --     2 C    0.973
    16   1 H    0.997 --     3 C    0.971
    17   1 H    0.994 --     3 C    0.962
    18   1 H    0.994 --     4 C    0.969
    19   1 H    0.985 --     4 C    0.950
    20   1 H    0.990 --     6 C    0.974
    21   1 H    0.991 --     6 C    0.975
    22   1 H    0.990 --     6 C    0.973
    23   1 H    0.988 --     7 C    0.972
    24   1 H    0.991 --     7 C    0.975
    25   1 H    0.991 --     7 C    0.975
    26   1 H    0.987 --     8 C    0.953
    27   1 H    0.993 --     8 C    0.968
    28   1 H    0.996 --     9 C    0.963
    29   1 H    0.997 --     9 C    0.965
    30   1 H    0.901 --    10 O    0.885
 ---------------------------------------------------------------------------

molecular dipole:
                 x           y           z       tot (Debye)
 q only:       -1.956       3.728      -3.146
   full:       -2.157       3.596      -3.253      13.490

           -------------------------------------------------
          | TOTAL ENERGY              -33.913299932980 Eh   |
          | GRADIENT NORM               0.000302733803 Eh/α |
          | HOMO-LUMO GAP               8.611321076723 eV   |
           -------------------------------------------------

 * finished run on 2024/12/20 at 06:53:05.160
