   * xtb version 6.7.1 (edcfbbe) compiled by 'conda@3ef47c1a292c' on 2024-11-25

   ID    Z sym.   atoms
    1    6 C      1-4, 6-11, 13, 14
    2    7 N      5
    3    8 O      12
    4    1 H      15-32

          program call               : xtb C0679.xyz --opt --namespace C0679 --charge +1
          :  Hamiltonian                  GFN2-xTB          :
 * total energy  :   -41.4197034 Eh     change       -0.2945413E-09 Eh
 * total energy  :   -41.4269085 Eh     change       -0.7205117E-02 Eh
 * total energy  :   -41.4286591 Eh     change       -0.1750606E-02 Eh
 * total energy  :   -41.4288266 Eh     change       -0.1674800E-03 Eh
 * total energy  :   -41.4289205 Eh     change       -0.9390611E-04 Eh
 * total energy  :   -41.4289634 Eh     change       -0.4291086E-04 Eh
 * total energy  :   -41.4290120 Eh     change       -0.4862267E-04 Eh
 * total energy  :   -41.4291250 Eh     change       -0.1130193E-03 Eh
 * total energy  :   -41.4292114 Eh     change       -0.8638724E-04 Eh
 * total energy  :   -41.4293388 Eh     change       -0.1273819E-03 Eh
 * total energy  :   -41.4315378 Eh     change       -0.5176434E-03 Eh
 * total energy  :   -41.4315610 Eh     change       -0.2314646E-04 Eh
 * total energy  :   -41.4315989 Eh     change       -0.3789070E-04 Eh
 * total energy  :   -41.4316196 Eh     change       -0.2075303E-04 Eh
 * total energy  :   -41.4316400 Eh     change       -0.2040857E-04 Eh
 * total energy  :   -41.4316722 Eh     change       -0.3220757E-04 Eh
 * total energy  :   -41.4316819 Eh     change       -0.9625992E-05 Eh
 * total energy  :   -41.4316879 Eh     change       -0.6056186E-05 Eh
 * total energy  :   -41.4316905 Eh     change       -0.2584017E-05 Eh
   *** GEOMETRY OPTIMIZATION CONVERGED AFTER 92 ITERATIONS ***

 final structure:
================
32
 xtb: 6.7.1 (edcfbbe)
C            2.03680439684799       -0.59057120830073        2.08315076116376
C            0.74270360850756       -0.42508614443398        1.34717034349818
C            0.44987080751925        0.67570413256371        0.66894070660877
C           -0.27082300418360       -1.53728498536821        1.51663314790340
N           -0.37237747298380       -2.49229317111481        0.35676928569125
C           -1.30954033091423       -3.57710859455660        0.74861882920017
C           -2.62543488950149       -3.24818388615330        1.05669172671619
C           -3.51475708369631       -4.24389372035990        1.42368708491787
C           -3.11698559617870       -5.56437954401287        1.48742154687304
C           -1.80236158093369       -5.89737513083568        1.17911706125469
C           -0.89915959187667       -4.89500300020705        0.81082109049300
O           -1.32753933766563       -7.15053701634036        1.21189265022585
C            0.97459993210032       -2.99178166218464        0.02863172175939
C           -0.90323456598074       -1.82830773573654       -0.85097694955253
H            1.85419250739781       -0.50015674117416        3.15319162159686
H            2.74106989812453        0.18550440984809        1.79894048301737
H            2.49756390213267       -1.55986509630789        1.91113901425841
H           -0.50651427149036        0.84335734287986        0.20385988739751
H            1.16115003194747        1.47705432308009        0.57491436741677
H           -0.01550653887902       -2.13646249392925        2.39377030525461
H           -1.25829645613457       -1.10337526771785        1.67544209826065
H           -2.98324767280291       -2.23274251508543        1.01996702187142
H           -4.53230995919113       -3.97966662256805        1.66179844873041
H           -3.81920134087684       -6.33273718101053        1.77368925900917
H            0.09883113278349       -5.22752749433373        0.58787771242261
H           -2.00864094201298       -7.78409653682220        1.47310489324253
H            1.41890162939633       -3.48175876200495        0.89230165325266
H            0.92415225793525       -3.69209698650740       -0.80270264623376
H            1.60059979586047       -2.15053467491917       -0.26375284663050
H           -1.86881938691434       -1.37235164504714       -0.65062626861409
H           -0.20963892952847       -1.05872745830144       -1.18371012339169
H           -1.02652094880017       -2.56722493304144       -1.64108388761366

          :  Hamiltonian                  GFN2-xTB          :
         :: total energy             -41.431690492795 Eh    ::
         :: gradient norm              0.000991603869 Eh/a0 ::
         :: HOMO-LUMO gap              4.041203322980 eV    ::
         :: SCC energy               -42.081553287279 Eh    ::
         :: -> dispersion             -0.028576112325 Eh    ::
         :: repulsion energy           0.649862794485 Eh    ::

    * Orbital Energies and Occupations

         #    Occupation            Energy/Eh            Energy/eV
      -------------------------------------------------------------
         1        2.0000           -0.8528493             -23.2072
       ...           ...                  ...                  ...
        26        2.0000           -0.6330939             -17.2274
        27        2.0000           -0.6174565             -16.8018
        28        2.0000           -0.6148084             -16.7298
        29        2.0000           -0.6090609             -16.5734
        30        2.0000           -0.6053218             -16.4716
        31        2.0000           -0.5961951             -16.2233
        32        2.0000           -0.5835617             -15.8795
        33        2.0000           -0.5794706             -15.7682
        34        2.0000           -0.5714710             -15.5505
        35        2.0000           -0.5658254             -15.3969
        36        2.0000           -0.5523850             -15.0312
        37        2.0000           -0.5351162             -14.5613
        38        2.0000           -0.5221739             -14.2091 (HOMO)
        39                         -0.3736624             -10.1679 (LUMO)
        40                         -0.3589304              -9.7670
        41                         -0.3491747              -9.5015
        42                         -0.2363839              -6.4323
        43                         -0.2164147              -5.8889
        44                         -0.1504507              -4.0940
        45                         -0.1337955              -3.6408
        46                         -0.1216491              -3.3102
        47                         -0.0622263              -1.6933
        48                         -0.0405027              -1.1021
        49                         -0.0310600              -0.8452
       ...                                ...                  ...
        74                          0.5236503              14.2492
      -------------------------------------------------------------
                  HL-Gap            0.1485115 Eh            4.0412 eV

     #   Z          covCN         q      C6AA      α(0)
     1   6 C        3.759    -0.128    23.014     6.839
     2   6 C        2.934     0.009    27.812     8.649
     3   6 C        2.844    -0.101    30.534     9.056
     4   6 C        3.767    -0.040    21.323     6.581
     5   7 N        3.623     0.125    19.109     6.493
     6   6 C        2.932     0.031    27.312     8.571
     7   6 C        2.920    -0.055    29.364     8.886
     8   6 C        2.921    -0.019    28.477     8.751
     9   6 C        2.916    -0.062    29.535     8.912
    10   6 C        2.847     0.164    24.461     8.106
    11   6 C        2.921    -0.069    29.730     8.941
    12   8 O        1.661    -0.356    20.022     6.041
    13   6 C        3.721    -0.088    22.305     6.745
    14   6 C        3.724    -0.088    22.296     6.742
    15   1 H        0.925     0.071     2.077     2.254
    16   1 H        0.925     0.071     2.077     2.254
    17   1 H        0.925     0.055     2.259     2.351
    18   1 H        0.926     0.054     2.275     2.359
    19   1 H        0.926     0.073     2.056     2.242
    20   1 H        0.924     0.085     1.925     2.170
    21   1 H        0.924     0.087     1.904     2.158
    22   1 H        0.926     0.054     2.275     2.359
    23   1 H        0.926     0.074     2.039     2.233
    24   1 H        0.926     0.067     2.116     2.275
    25   1 H        0.926     0.080     1.977     2.199
    26   1 H        0.805     0.325     0.649     1.266
    27   1 H        0.925     0.097     1.816     2.107
    28   1 H        0.925     0.096     1.818     2.109
    29   1 H        0.925     0.100     1.787     2.091
    30   1 H        0.925     0.096     1.823     2.111
    31   1 H        0.925     0.100     1.788     2.091
    32   1 H        0.925     0.094     1.841     2.122

Wiberg/Mayer (AO) data.
largest (>0.10) Wiberg bond orders for each atom

     #   Z sym  total        # sym  WBO       # sym  WBO       # sym  WBO
 ---------------------------------------------------------------------------
     1   6 C    3.991 --     2 C    1.030    16 H    0.980    17 H    0.971
                            15 H    0.959
     2   6 C    3.980 --     3 C    1.924     1 C    1.030     4 C    0.996
     3   6 C    3.986 --     2 C    1.924    18 H    0.972    19 H    0.971
     4   6 C    3.929 --     2 C    0.996    20 H    0.968    21 H    0.961
                             5 N    0.909
     5   7 N    3.805 --    13 C    0.962    14 C    0.955     6 C    0.910
                             4 C    0.909
     6   6 C    3.925 --    11 C    1.444     7 C    1.397     5 N    0.910
     7   6 C    3.987 --     8 C    1.430     6 C    1.397    22 H    0.961
     8   6 C    3.988 --     9 C    1.454     7 C    1.430    23 H    0.966
                            11 C    0.100
     9   6 C    3.987 --     8 C    1.454    10 C    1.361    24 H    0.964
    10   6 C    3.947 --     9 C    1.361    11 C    1.333    12 O    1.125
    11   6 C    3.982 --     6 C    1.444    10 C    1.333    25 H    0.958
                             8 C    0.100
    12   8 O    2.180 --    10 C    1.125    26 H    0.873
    13   6 C    3.931 --    28 H    0.974    27 H    0.973    29 H    0.970
                             5 N    0.962
    14   6 C    3.929 --    32 H    0.976    30 H    0.973    31 H    0.970
                             5 N    0.955
    15   1 H    0.995 --     1 C    0.959
    16   1 H    0.995 --     1 C    0.980
    17   1 H    0.997 --     1 C    0.971
    18   1 H    0.997 --     3 C    0.972
    19   1 H    0.994 --     3 C    0.971
    20   1 H    0.993 --     4 C    0.968
    21   1 H    0.992 --     4 C    0.961
    22   1 H    0.997 --     7 C    0.961
    23   1 H    0.994 --     8 C    0.966
    24   1 H    0.995 --     9 C    0.964
    25   1 H    0.994 --    11 C    0.958
    26   1 H    0.893 --    12 O    0.873
    27   1 H    0.991 --    13 C    0.973
    28   1 H    0.991 --    13 C    0.974
    29   1 H    0.990 --    13 C    0.970
    30   1 H    0.991 --    14 C    0.973
    31   1 H    0.989 --    14 C    0.970
    32   1 H    0.991 --    14 C    0.976
 ---------------------------------------------------------------------------

molecular dipole:
                 x           y           z       tot (Debye)
 q only:       -1.211      -5.326       1.164
   full:       -1.442      -5.423       1.238      14.607

           -------------------------------------------------
          | TOTAL ENERGY              -41.431690492795 Eh   |
          | GRADIENT NORM               0.000991603869 Eh/α |
          | HOMO-LUMO GAP               4.041203322980 eV   |
           -------------------------------------------------

 * finished run on 2024/12/20 at 06:53:10.311
