   * xtb version 6.7.1 (edcfbbe) compiled by 'conda@3ef47c1a292c' on 2024-11-25

   ID    Z sym.   atoms
    1    6 C      1-8, 10, 11, 13-15
    2    7 N      9, 12
    3    1 H      16-40

          program call               : xtb C0671.xyz --opt --namespace C0671 --charge +1
          :  Hamiltonian                  GFN2-xTB          :
 * total energy  :   -46.0815960 Eh     change       -0.3438920E-08 Eh
 * total energy  :   -46.0857938 Eh     change       -0.4197795E-02 Eh
 * total energy  :   -46.0866293 Eh     change       -0.8355637E-03 Eh
 * total energy  :   -46.0867921 Eh     change       -0.1627226E-03 Eh
 * total energy  :   -46.0869485 Eh     change       -0.1564328E-03 Eh
 * total energy  :   -46.0870174 Eh     change       -0.6891827E-04 Eh
 * total energy  :   -46.0871058 Eh     change       -0.8836509E-04 Eh
 * total energy  :   -46.0872323 Eh     change       -0.1265292E-03 Eh
 * total energy  :   -46.0873781 Eh     change       -0.1457849E-03 Eh
 * total energy  :   -46.0875284 Eh     change       -0.1503045E-03 Eh
 * total energy  :   -46.0942948 Eh     change       -0.1864620E-04 Eh
 * total energy  :   -46.0943160 Eh     change       -0.2121681E-04 Eh
 * total energy  :   -46.0943285 Eh     change       -0.1248894E-04 Eh
 * total energy  :   -46.0943363 Eh     change       -0.7751782E-05 Eh
 * total energy  :   -46.0943459 Eh     change       -0.9641613E-05 Eh
 * total energy  :   -46.0943555 Eh     change       -0.9591912E-05 Eh
 * total energy  :   -46.0943640 Eh     change       -0.8480914E-05 Eh
 * total energy  :   -46.0943698 Eh     change       -0.5797802E-05 Eh
 * total energy  :   -46.0943732 Eh     change       -0.3427998E-05 Eh
   *** GEOMETRY OPTIMIZATION CONVERGED AFTER 74 ITERATIONS ***

 final structure:
================
40
 xtb: 6.7.1 (edcfbbe)
C            1.77677611154320       -0.34950729771604        0.55416252129859
C            1.08792322018310       -0.11595702563165       -0.78518967720658
C            1.79456240269291       -0.80232637877045       -1.95531154590829
C            1.87452072283880       -2.32768888668653       -1.86150783911732
C            0.52335791474586       -3.03897542661427       -1.76069028159092
C           -0.36717659822194       -2.77585713144953       -2.97434717249975
C           -1.57861460146822       -3.70543684400466       -3.05211351072423
C           -2.54483302972336       -3.48571869753349       -1.88279372510813
N           -3.75152132654978       -4.26469279385967       -2.05388795186819
C           -3.93703770088423       -5.51815689538624       -1.54446945240403
C           -5.15152529329510       -5.95502704383800       -1.96576678160783
N           -5.69092283892610       -4.96442590827239       -2.73299803006605
C           -4.82643855453119       -3.94156121556096       -2.78190626143254
C           -5.06790300927401       -2.69111615877138       -3.52787383486971
C           -6.97565050025738       -5.00108370493648       -3.37867826604643
H            1.72289953894144       -1.39405584777761        0.85052151424069
H            1.30306956171786        0.24700865220811        1.33020267614818
H            2.82360248582405       -0.06253071185662        0.49554123751063
H            0.04895755165874       -0.44914239078285       -0.72418586055671
H            1.06968726339293        0.95728621162746       -0.98742430608551
H            1.29367141582356       -0.52154111787266       -2.88429825488761
H            2.81512958740169       -0.41897122180060       -2.01320987681239
H            2.39913340764963       -2.69576536286863       -2.74609932176450
H            2.47398680643066       -2.60182080715465       -0.99286189197744
H            0.71088634897479       -4.11296400408681       -1.68363014142284
H            0.01904240387207       -2.72226502567391       -0.84684201132624
H           -0.70958561637902       -1.74018307387646       -2.96440702012114
H            0.22473394070451       -2.91992538850226       -3.87959043976406
H           -2.10739537851268       -3.52329954296588       -3.99051538717301
H           -1.24352004401392       -4.74437166881126       -3.05183529785117
H           -2.07835302279075       -3.79668443962716       -0.94762448497540
H           -2.80524674060346       -2.42817444553210       -1.80342634259300
H           -3.20690677327786       -5.99863818262765       -0.92676433470513
H           -5.65808085529185       -6.87886135920511       -1.77756731967162
H           -4.28293964523026       -1.96393239048126       -3.34746558244254
H           -5.11004387140714       -2.89005527648988       -4.59953387506631
H           -6.02359556481418       -2.25447976374249       -3.23832595714037
H           -7.63247440055561       -4.23316443837925       -2.96692607922085
H           -6.86858320193866       -4.83064816066198       -4.45044967444726
H           -7.43074211643300       -5.97541883404181       -3.21871015872507

          :  Hamiltonian                  GFN2-xTB          :
         :: total energy             -46.094373203926 Eh    ::
         :: gradient norm              0.000357899939 Eh/a0 ::
         :: HOMO-LUMO gap              2.694452352335 eV    ::
         :: SCC energy               -46.793329874387 Eh    ::
         :: -> dispersion             -0.030570308263 Eh    ::
         :: repulsion energy           0.698956670461 Eh    ::

    * Orbital Energies and Occupations

         #    Occupation            Energy/Eh            Energy/eV
      -------------------------------------------------------------
         1        2.0000           -0.8868822             -24.1333
       ...           ...                  ...                  ...
        31        2.0000           -0.5869652             -15.9721
        32        2.0000           -0.5734372             -15.6040
        33        2.0000           -0.5695904             -15.4993
        34        2.0000           -0.5663949             -15.4124
        35        2.0000           -0.5588961             -15.2083
        36        2.0000           -0.5518278             -15.0160
        37        2.0000           -0.5426231             -14.7655
        38        2.0000           -0.5291794             -14.3997
        39        2.0000           -0.5224431             -14.2164
        40        2.0000           -0.5187005             -14.1146
        41        2.0000           -0.4968364             -13.5196
        42        2.0000           -0.4954683             -13.4824
        43        2.0000           -0.4925712             -13.4035 (HOMO)
        44                         -0.3935519             -10.7091 (LUMO)
        45                         -0.3605915              -9.8122
        46                         -0.1828484              -4.9756
        47                         -0.1283227              -3.4918
        48                         -0.0646795              -1.7600
        49                         -0.0571344              -1.5547
        50                         -0.0427583              -1.1635
        51                         -0.0338698              -0.9216
        52                         -0.0249179              -0.6780
        53                         -0.0153942              -0.4189
        54                         -0.0009054              -0.0246
       ...                                ...                  ...
        85                          0.4774254              12.9914
      -------------------------------------------------------------
                  HL-Gap            0.0990193 Eh            2.6945 eV

     #   Z          covCN         q      C6AA      α(0)
     1   6 C        3.751    -0.105    22.567     6.775
     2   6 C        3.799    -0.052    21.507     6.603
     3   6 C        3.801    -0.062    21.698     6.632
     4   6 C        3.801    -0.062    21.689     6.631
     5   6 C        3.801    -0.062    21.697     6.632
     6   6 C        3.802    -0.066    21.760     6.641
     7   6 C        3.802    -0.067    21.774     6.643
     8   6 C        3.742    -0.023    21.063     6.548
     9   7 N        2.869     0.039    20.551     6.733
    10   6 C        3.056    -0.010    28.204     8.709
    11   6 C        3.045    -0.011    28.242     8.716
    12   7 N        2.873     0.046    20.427     6.713
    13   6 C        3.105     0.105    25.559     8.284
    14   6 C        3.754    -0.136    23.171     6.864
    15   6 C        3.692    -0.080    22.226     6.746
    16   1 H        0.925     0.033     2.541     2.493
    17   1 H        0.925     0.036     2.509     2.477
    18   1 H        0.925     0.041     2.430     2.438
    19   1 H        0.924     0.019     2.744     2.590
    20   1 H        0.924     0.033     2.541     2.493
    21   1 H        0.924     0.028     2.615     2.529
    22   1 H        0.924     0.042     2.427     2.436
    23   1 H        0.924     0.035     2.512     2.478
    24   1 H        0.924     0.045     2.380     2.413
    25   1 H        0.924     0.032     2.554     2.499
    26   1 H        0.924     0.033     2.538     2.491
    27   1 H        0.924     0.044     2.391     2.418
    28   1 H        0.924     0.057     2.233     2.337
    29   1 H        0.924     0.045     2.389     2.417
    30   1 H        0.924     0.054     2.276     2.359
    31   1 H        0.924     0.089     1.889     2.149
    32   1 H        0.924     0.079     1.988     2.205
    33   1 H        0.927     0.103     1.757     2.073
    34   1 H        0.927     0.103     1.760     2.075
    35   1 H        0.925     0.096     1.819     2.109
    36   1 H        0.924     0.101     1.779     2.086
    37   1 H        0.925     0.099     1.795     2.095
    38   1 H        0.924     0.097     1.815     2.107
    39   1 H        0.924     0.097     1.813     2.106
    40   1 H        0.925     0.103     1.758     2.074

Wiberg/Mayer (AO) data.
largest (>0.10) Wiberg bond orders for each atom

     #   Z sym  total        # sym  WBO       # sym  WBO       # sym  WBO
 ---------------------------------------------------------------------------
     1   6 C    3.996 --     2 C    1.020    17 H    0.987    18 H    0.987
                            16 H    0.986
     2   6 C    3.998 --     1 C    1.020     3 C    1.008    20 H    0.978
                            19 H    0.976
     3   6 C    3.996 --     2 C    1.008     4 C    1.008    21 H    0.976
                            22 H    0.976
     4   6 C    3.995 --     3 C    1.008     5 C    1.006    23 H    0.977
                            24 H    0.974
     5   6 C    3.996 --     6 C    1.008     4 C    1.006    25 H    0.977
                            26 H    0.974
     6   6 C    3.990 --     5 C    1.008     7 C    1.001    27 H    0.975
                            28 H    0.971
     7   6 C    3.986 --     6 C    1.001     8 C    0.983    29 H    0.976
                            30 H    0.975
     8   6 C    3.937 --     7 C    0.983     9 N    0.967    31 H    0.964
                            32 H    0.961
     9   7 N    3.694 --    13 C    1.330    10 C    1.211     8 C    0.967
    10   6 C    3.949 --    11 C    1.607     9 N    1.211    33 H    0.962
    11   6 C    3.948 --    10 C    1.607    12 N    1.211    34 H    0.961
    12   7 N    3.694 --    13 C    1.319    11 C    1.211    15 C    0.993
    13   6 C    3.952 --     9 N    1.330    12 N    1.319    14 C    1.048
    14   6 C    3.978 --    13 C    1.048    35 H    0.970    37 H    0.953
                            36 H    0.947
    15   6 C    3.938 --    12 N    0.993    40 H    0.975    39 H    0.965
                            38 H    0.963
    16   1 H    0.999 --     1 C    0.986
    17   1 H    0.999 --     1 C    0.987
    18   1 H    0.998 --     1 C    0.987
    19   1 H    1.000 --     2 C    0.976
    20   1 H    0.999 --     2 C    0.978
    21   1 H    0.999 --     3 C    0.976
    22   1 H    0.998 --     3 C    0.976
    23   1 H    0.999 --     4 C    0.977
    24   1 H    0.998 --     4 C    0.974
    25   1 H    0.999 --     5 C    0.977
    26   1 H    0.999 --     5 C    0.974
    27   1 H    0.998 --     6 C    0.975
    28   1 H    0.996 --     6 C    0.971
    29   1 H    0.998 --     7 C    0.976
    30   1 H    0.997 --     7 C    0.975
    31   1 H    0.992 --     8 C    0.964
    32   1 H    0.994 --     8 C    0.961
    33   1 H    0.989 --    10 C    0.962
    34   1 H    0.989 --    11 C    0.961
    35   1 H    0.990 --    14 C    0.970
    36   1 H    0.990 --    14 C    0.947
    37   1 H    0.990 --    14 C    0.953
    38   1 H    0.990 --    15 C    0.963
    39   1 H    0.990 --    15 C    0.965
    40   1 H    0.989 --    15 C    0.975
 ---------------------------------------------------------------------------

molecular dipole:
                 x           y           z       tot (Debye)
 q only:       -8.407      -7.904      -4.981
   full:       -8.525      -7.973      -4.956      32.231

           -------------------------------------------------
          | TOTAL ENERGY              -46.094373203926 Eh   |
          | GRADIENT NORM               0.000357899939 Eh/α |
          | HOMO-LUMO GAP               2.694452352335 eV   |
           -------------------------------------------------

 * finished run on 2024/12/20 at 06:53:00.124
