   * xtb version 6.7.1 (edcfbbe) compiled by 'conda@3ef47c1a292c' on 2024-11-25

   ID    Z sym.   atoms
    1    6 C      1, 3, 4, 6-9
    2    7 N      2
    3    8 O      5
    4    1 H      10-25

          program call               : xtb C0677.xyz --opt --namespace C0677 --charge +1
          :  Hamiltonian                  GFN2-xTB          :
 * total energy  :   -29.7176892 Eh     change       -0.2698997E-10 Eh
 * total energy  :   -29.7237112 Eh     change       -0.6021967E-02 Eh
 * total energy  :   -29.7252061 Eh     change       -0.1494887E-02 Eh
 * total energy  :   -29.7252996 Eh     change       -0.9354372E-04 Eh
 * total energy  :   -29.7254592 Eh     change       -0.1595654E-03 Eh
 * total energy  :   -29.7256249 Eh     change       -0.1656710E-03 Eh
 * total energy  :   -29.7258083 Eh     change       -0.1834829E-03 Eh
 * total energy  :   -29.7261448 Eh     change       -0.3364995E-03 Eh
 * total energy  :   -29.7265952 Eh     change       -0.4503265E-03 Eh
 * total energy  :   -29.7269008 Eh     change       -0.3056367E-03 Eh
 * total energy  :   -29.7314415 Eh     change       -0.7344644E-04 Eh
 * total energy  :   -29.7315015 Eh     change       -0.6001965E-04 Eh
 * total energy  :   -29.7315420 Eh     change       -0.4048869E-04 Eh
 * total energy  :   -29.7315829 Eh     change       -0.4095458E-04 Eh
 * total energy  :   -29.7315923 Eh     change       -0.9376019E-05 Eh
 * total energy  :   -29.7316126 Eh     change       -0.2029058E-04 Eh
 * total energy  :   -29.7316179 Eh     change       -0.5353235E-05 Eh
 * total energy  :   -29.7316235 Eh     change       -0.5586622E-05 Eh
 * total energy  :   -29.7316250 Eh     change       -0.1474619E-05 Eh
   *** GEOMETRY OPTIMIZATION CONVERGED AFTER 36 ITERATIONS ***

 final structure:
================
25
 xtb: 6.7.1 (edcfbbe)
C            0.78903216164375       -0.02858283130375        0.00516401602921
N            0.53427086907370       -1.40315402530103       -0.47242569977794
C            1.21017690387657       -2.38495945335447        0.45568508967887
C            1.05531933771964       -3.85889575803305        0.02143370498595
O           -0.15778620279328       -4.27736635372382        0.57902623092762
C           -0.15968269153648       -3.79278639079500        1.90599852306158
C            0.59538408783420       -2.44061795610433        1.86593949615938
C           -0.92146715462287       -1.63695050896498       -0.55820968283296
C            1.11008001030263       -1.51369375798545       -1.82971754024120
H            0.44719696510124        0.10252064166534        1.02865527830878
H            0.26186543754195        0.68449219552856       -0.62636114512992
H            1.85470039930062        0.19070123100784       -0.03405337038385
H            2.26165661773733       -2.09450931748839        0.48454959743626
H            1.02325378468442       -4.04781880094774       -1.04892781814981
H            1.89709887582837       -4.42368156205469        0.44789209433847
H            0.35510145124972       -4.50050859684755        2.56556544139917
H           -1.19813269036956       -3.70376626544971        2.22356944333681
H            1.38449447733477       -2.42358747595864        2.61423947188352
H           -0.07582847966366       -1.61554257448465        2.08269052753473
H           -1.34272780040754       -1.03150976679925       -1.35830845661750
H           -1.12423308119361       -2.68801233726124       -0.75679838316860
H           -1.41198181536724       -1.36478262780267        0.37285856154418
H            0.78271422749282       -0.66968643489831       -2.43469922715965
H            2.19774668878398       -1.50729416145040       -1.78420693584432
H            0.78126762044699       -2.42632711119253       -2.31974921731883

          :  Hamiltonian                  GFN2-xTB          :
         :: total energy             -29.731625001118 Eh    ::
         :: gradient norm              0.000675061873 Eh/a0 ::
         :: HOMO-LUMO gap              8.153569906124 eV    ::
         :: SCC energy               -30.089731732457 Eh    ::
         :: -> dispersion             -0.017871838865 Eh    ::
         :: repulsion energy           0.358106731339 Eh    ::

    * Orbital Energies and Occupations

         #    Occupation            Energy/Eh            Energy/eV
      -------------------------------------------------------------
         1        2.0000           -0.8734868             -23.7688
       ...           ...                  ...                  ...
        15        2.0000           -0.6720815             -18.2883
        16        2.0000           -0.6692805             -18.2120
        17        2.0000           -0.6672203             -18.1560
        18        2.0000           -0.6595525             -17.9473
        19        2.0000           -0.6524999             -17.7554
        20        2.0000           -0.6461379             -17.5823
        21        2.0000           -0.6439038             -17.5215
        22        2.0000           -0.6370284             -17.3344
        23        2.0000           -0.6307584             -17.1638
        24        2.0000           -0.6141643             -16.7123
        25        2.0000           -0.6122565             -16.6603
        26        2.0000           -0.5965044             -16.2317
        27        2.0000           -0.5438520             -14.7990 (HOMO)
        28                         -0.2442139              -6.6454 (LUMO)
        29                         -0.1737259              -4.7273
        30                         -0.1717532              -4.6736
        31                         -0.1532119              -4.1691
        32                         -0.1199051              -3.2628
        33                         -0.1044022              -2.8409
        34                         -0.0747868              -2.0351
        35                         -0.0694684              -1.8903
        36                         -0.0531326              -1.4458
        37                         -0.0224443              -0.6107
        38                         -0.0054967              -0.1496
       ...                                ...                  ...
        52                          0.1803143               4.9066
      -------------------------------------------------------------
                  HL-Gap            0.2996382 Eh            8.1536 eV

     #   Z          covCN         q      C6AA      α(0)
     1   6 C        3.725    -0.097    22.465     6.768
     2   7 N        3.620     0.136    18.931     6.462
     3   6 C        3.809     0.002    20.538     6.451
     4   6 C        3.793     0.065    19.503     6.289
     5   8 O        1.703    -0.295    18.902     5.870
     6   6 C        3.777     0.062    19.559     6.301
     7   6 C        3.821    -0.083    22.063     6.684
     8   6 C        3.716    -0.100    22.532     6.781
     9   6 C        3.726    -0.099    22.499     6.772
    10   1 H        0.925     0.100     1.785     2.089
    11   1 H        0.925     0.102     1.764     2.077
    12   1 H        0.925     0.098     1.807     2.102
    13   1 H        0.924     0.075     2.028     2.227
    14   1 H        0.925     0.071     2.074     2.252
    15   1 H        0.923     0.066     2.133     2.284
    16   1 H        0.924     0.059     2.209     2.324
    17   1 H        0.925     0.075     2.037     2.232
    18   1 H        0.925     0.077     2.007     2.215
    19   1 H        0.925     0.063     2.164     2.300
    20   1 H        0.925     0.096     1.820     2.109
    21   1 H        0.925     0.122     1.599     1.977
    22   1 H        0.925     0.100     1.782     2.087
    23   1 H        0.925     0.104     1.748     2.067
    24   1 H        0.925     0.096     1.817     2.108
    25   1 H        0.925     0.103     1.756     2.072

Wiberg/Mayer (AO) data.
largest (>0.10) Wiberg bond orders for each atom

     #   Z sym  total        # sym  WBO       # sym  WBO       # sym  WBO
 ---------------------------------------------------------------------------
     1   6 C    3.927 --    12 H    0.975    11 H    0.973    10 H    0.970
                             2 N    0.958
     2   7 N    3.812 --     1 C    0.958     9 C    0.957     8 C    0.953
                             3 C    0.909
     3   6 C    3.938 --     7 C    0.998     4 C    0.979    13 H    0.964
                             2 N    0.909
     4   6 C    3.957 --     5 O    1.005     3 C    0.979    14 H    0.961
                            15 H    0.958
     5   8 O    2.095 --     4 C    1.005     6 C    0.982
     6   6 C    3.945 --     7 C    0.988     5 O    0.982    17 H    0.972
                            16 H    0.970
     7   6 C    3.987 --     3 C    0.998     6 C    0.988    18 H    0.974
                            19 H    0.967
     8   6 C    3.917 --    20 H    0.975    22 H    0.972    21 H    0.966
                             2 N    0.953
     9   6 C    3.926 --    24 H    0.976    23 H    0.973    25 H    0.970
                             2 N    0.957
    10   1 H    0.990 --     1 C    0.970
    11   1 H    0.989 --     1 C    0.973
    12   1 H    0.990 --     1 C    0.975
    13   1 H    0.994 --     3 C    0.964
    14   1 H    0.995 --     4 C    0.961
    15   1 H    0.995 --     4 C    0.958
    16   1 H    0.996 --     6 C    0.970
    17   1 H    0.994 --     6 C    0.972
    18   1 H    0.994 --     7 C    0.974
    19   1 H    0.996 --     7 C    0.967
    20   1 H    0.991 --     8 C    0.975
    21   1 H    0.985 --     8 C    0.966
    22   1 H    0.990 --     8 C    0.972
    23   1 H    0.989 --     9 C    0.973
    24   1 H    0.991 --     9 C    0.976
    25   1 H    0.989 --     9 C    0.970
 ---------------------------------------------------------------------------

molecular dipole:
                 x           y           z       tot (Debye)
 q only:        1.241      -2.649      -0.387
   full:        1.415      -2.533      -0.351       7.429

           -------------------------------------------------
          | TOTAL ENERGY              -29.731625001118 Eh   |
          | GRADIENT NORM               0.000675061873 Eh/α |
          | HOMO-LUMO GAP               8.153569906124 eV   |
           -------------------------------------------------

 * finished run on 2024/12/20 at 06:53:07.149
