   * xtb version 6.7.1 (edcfbbe) compiled by 'conda@3ef47c1a292c' on 2024-11-25

   ID    Z sym.   atoms
    1    6 C      1-11, 14, 15, 17-21
    2    8 O      12, 13
    3    7 N      16
    4    1 H      22-51

          program call               : xtb C0674.xyz --opt --namespace C0674 --charge +1
          :  Hamiltonian                  GFN2-xTB          :
 * total energy  :   -64.5002157 Eh     change       -0.2851564E-08 Eh
 * total energy  :   -64.5099779 Eh     change       -0.9762164E-02 Eh
 * total energy  :   -64.5127092 Eh     change       -0.2731360E-02 Eh
 * total energy  :   -64.5133317 Eh     change       -0.6224298E-03 Eh
 * total energy  :   -64.5140037 Eh     change       -0.6719930E-03 Eh
 * total energy  :   -64.5144272 Eh     change       -0.4235776E-03 Eh
 * total energy  :   -64.5148416 Eh     change       -0.4143850E-03 Eh
 * total energy  :   -64.5152122 Eh     change       -0.3705518E-03 Eh
 * total energy  :   -64.5155468 Eh     change       -0.3346447E-03 Eh
 * total energy  :   -64.5158998 Eh     change       -0.3529400E-03 Eh
 * total energy  :   -64.5186041 Eh     change       -0.2901493E-04 Eh
 * total energy  :   -64.5186204 Eh     change       -0.1631746E-04 Eh
 * total energy  :   -64.5186464 Eh     change       -0.2602105E-04 Eh
 * total energy  :   -64.5186622 Eh     change       -0.1573008E-04 Eh
 * total energy  :   -64.5186726 Eh     change       -0.1041211E-04 Eh
 * total energy  :   -64.5186803 Eh     change       -0.7680358E-05 Eh
 * total energy  :   -64.5186882 Eh     change       -0.7931669E-05 Eh
 * total energy  :   -64.5186948 Eh     change       -0.6634830E-05 Eh
 * total energy  :   -64.5186995 Eh     change       -0.4653549E-05 Eh
   *** GEOMETRY OPTIMIZATION CONVERGED AFTER 47 ITERATIONS ***

 final structure:
================
51
 xtb: 6.7.1 (edcfbbe)
C            0.12262459230289        0.56965611568628       -0.40578913389362
C           -0.19471985050260       -0.61446832787837       -1.31083275182288
C            0.51416655469925       -1.90402177612222       -0.89381583139063
C            0.00839585042191       -2.43840168378321        0.45112180154458
C           -1.48494658798375       -2.73121454142749        0.44669533727482
C           -2.31241564733180       -2.11813426435757        1.37765097627260
C           -3.67357014805161       -2.36788120033213        1.37500052000472
C           -4.21858767634442       -3.24099678291115        0.44926027495194
C           -3.39655954927257       -3.86352556441065       -0.47463192064580
C           -2.03541827213522       -3.61379126917579       -0.47404179205622
C            0.63594906258101       -3.73416160476147        0.86378268694848
O            0.84256424093134       -4.07588128814798        2.00541494860888
O            0.94576207679457       -4.54031143647779       -0.17483531476365
C            1.29577760697320       -5.88292377045241        0.12036087090216
C            2.79017029100833       -6.18526816707856       -0.04249089669246
N            3.73011224162024       -5.73474006460274        1.02712799228716
C            3.24859851611959       -6.09541277088267        2.40150445954152
C            3.00295196975373       -7.57497277682149        2.65100671347122
C            5.05939752490916       -6.38631496739326        0.79650746944782
C            5.77617477885921       -5.99928983127253       -0.48814627815292
C            3.89567569120185       -4.26697727658480        0.99415065958494
H           -0.27483532105378        0.42201368383381        0.59465326729288
H           -0.32369794725835        1.47412000390853       -0.80978181467285
H            1.19749921120816        0.72389147597369       -0.33525064106462
H           -1.27254625827809       -0.78505593511402       -1.32459857521150
H            0.11555184448782       -0.37291257824353       -2.32920262614847
H            0.35927159664187       -2.65903963812476       -1.66462568025983
H            1.58842489487557       -1.71485413725761       -0.81747126562037
H            0.21335437778149       -1.71606111945183        1.24542564793101
H           -1.89436475132583       -1.43720914292515        2.10425591829733
H           -4.30761821884967       -1.87871863737955        2.09832147283638
H           -5.27953222061745       -3.43732183635336        0.44827838868261
H           -3.81511735208437       -4.54644711812288       -1.19842698008022
H           -1.40244901827417       -4.10473963364893       -1.19888657689544
H            0.91995839701336       -6.14138866345488        1.11429794720568
H            0.77204081766929       -6.49069670536534       -0.62419360930241
H            2.88863595695146       -7.26807710605059       -0.13296656263662
H            3.11300278733564       -5.72966076310377       -0.98036241865781
H            4.00136920010624       -5.73498749577902        3.10548279220949
H            2.33100231797560       -5.53191511945795        2.58922244466354
H            3.91484600060659       -8.16402360967931        2.61016916867606
H            2.60165764936061       -7.67323221806963        3.65667687522082
H            2.27319836792394       -7.99957788029288        1.96795971102540
H            5.69418366069520       -6.12760476745636        1.64664058227170
H            4.90685747951040       -7.46592365352689        0.80185144430103
H            6.00938894363566       -4.93994675892332       -0.53133912101315
H            6.72001283009462       -6.53867563287330       -0.51232142615296
H            5.22087593588333       -6.28205328858350       -1.37735029617728
H            4.75432761645185       -3.97911553585274        1.59789265963172
H            4.04320053717487       -3.91942415733838       -0.02530929054478
H            3.01595739774276       -3.78079878214229        1.40705777280721

          :  Hamiltonian                  GFN2-xTB          :
         :: total energy             -64.518699471224 Eh    ::
         :: gradient norm              0.000427314616 Eh/a0 ::
         :: HOMO-LUMO gap              3.459265965690 eV    ::
         :: SCC energy               -65.441614825479 Eh    ::
         :: -> dispersion             -0.047759016247 Eh    ::
         :: repulsion energy           0.922915354255 Eh    ::

    * Orbital Energies and Occupations

         #    Occupation            Energy/Eh            Energy/eV
      -------------------------------------------------------------
         1        2.0000           -0.8705211             -23.6881
       ...           ...                  ...                  ...
        47        2.0000           -0.5666755             -15.4200
        48        2.0000           -0.5606912             -15.2572
        49        2.0000           -0.5590628             -15.2129
        50        2.0000           -0.5537363             -15.0679
        51        2.0000           -0.5472648             -14.8918
        52        2.0000           -0.5377602             -14.6332
        53        2.0000           -0.5207026             -14.1690
        54        2.0000           -0.5171707             -14.0729
        55        2.0000           -0.5093916             -13.8612
        56        2.0000           -0.5045518             -13.7296
        57        2.0000           -0.5012124             -13.6387
        58        2.0000           -0.4863164             -13.2333
        59        2.0000           -0.4821007             -13.1186 (HOMO)
        60                         -0.3549750              -9.6594 (LUMO)
        61                         -0.3050616              -8.3011
        62                         -0.3022118              -8.2236
        63                         -0.2327704              -6.3340
        64                         -0.1761785              -4.7941
        65                         -0.1680559              -4.5730
        66                         -0.1596043              -4.3431
        67                         -0.1437867              -3.9126
        68                         -0.1245104              -3.3881
        69                         -0.0611456              -1.6639
        70                         -0.0538694              -1.4659
       ...                                ...                  ...
       114                          0.5824181              15.8484
      -------------------------------------------------------------
                  HL-Gap            0.1271257 Eh            3.4593 eV

     #   Z          covCN         q      C6AA      α(0)
     1   6 C        3.751    -0.108    22.616     6.782
     2   6 C        3.800    -0.056    21.579     6.614
     3   6 C        3.803    -0.059    21.628     6.621
     4   6 C        3.859    -0.047    21.379     6.576
     5   6 C        2.990     0.015    27.677     8.630
     6   6 C        2.923    -0.032    28.792     8.799
     7   6 C        2.920    -0.024    28.606     8.771
     8   6 C        2.920    -0.025    28.633     8.775
     9   6 C        2.920    -0.027    28.681     8.782
    10   6 C        2.923    -0.038    28.942     8.822
    11   6 C        2.734     0.356    20.958     7.495
    12   8 O        0.856    -0.436    22.421     6.348
    13   8 O        1.704    -0.265    18.401     5.792
    14   6 C        3.697     0.064    19.667     6.343
    15   6 C        3.753    -0.042    21.391     6.595
    16   7 N        3.619     0.119    19.199     6.508
    17   6 C        3.760    -0.045    21.429     6.599
    18   6 C        3.751    -0.130    23.056     6.848
    19   6 C        3.761    -0.035    21.245     6.571
    20   6 C        3.751    -0.131    23.082     6.852
    21   6 C        3.718    -0.089    22.323     6.749
    22   1 H        0.925     0.037     2.490     2.468
    23   1 H        0.925     0.047     2.361     2.403
    24   1 H        0.925     0.036     2.498     2.472
    25   1 H        0.924     0.042     2.421     2.433
    26   1 H        0.924     0.042     2.417     2.431
    27   1 H        0.925     0.048     2.340     2.392
    28   1 H        0.924     0.032     2.561     2.502
    29   1 H        0.924     0.074     2.039     2.233
    30   1 H        0.926     0.041     2.433     2.439
    31   1 H        0.926     0.049     2.332     2.388
    32   1 H        0.926     0.048     2.343     2.394
    33   1 H        0.926     0.043     2.414     2.430
    34   1 H        0.926     0.033     2.541     2.493
    35   1 H        0.924     0.085     1.930     2.172
    36   1 H        0.924     0.089     1.894     2.152
    37   1 H        0.924     0.092     1.859     2.132
    38   1 H        0.924     0.102     1.770     2.081
    39   1 H        0.924     0.083     1.944     2.181
    40   1 H        0.924     0.118     1.627     1.995
    41   1 H        0.925     0.063     2.168     2.302
    42   1 H        0.925     0.088     1.895     2.152
    43   1 H        0.925     0.060     2.194     2.316
    44   1 H        0.924     0.086     1.917     2.165
    45   1 H        0.924     0.087     1.913     2.163
    46   1 H        0.925     0.069     2.097     2.264
    47   1 H        0.925     0.086     1.917     2.165
    48   1 H        0.925     0.064     2.153     2.295
    49   1 H        0.925     0.092     1.863     2.134
    50   1 H        0.925     0.094     1.843     2.123
    51   1 H        0.925     0.106     1.735     2.060

Wiberg/Mayer (AO) data.
largest (>0.10) Wiberg bond orders for each atom

     #   Z sym  total        # sym  WBO       # sym  WBO       # sym  WBO
 ---------------------------------------------------------------------------
     1   6 C    3.996 --     2 C    1.021    24 H    0.987    23 H    0.986
                            22 H    0.985
     2   6 C    3.995 --     1 C    1.021     3 C    1.006    26 H    0.976
                            25 H    0.976
     3   6 C    3.993 --     2 C    1.006     4 C    0.980    28 H    0.976
                            27 H    0.973
     4   6 C    3.985 --     3 C    0.980    11 C    0.976    29 H    0.952
                             5 C    0.943
     5   6 C    3.981 --     6 C    1.411    10 C    1.409     4 C    0.943
                             8 C    0.107
     6   6 C    3.991 --     7 C    1.442     5 C    1.411    30 H    0.967
                             9 C    0.111
     7   6 C    3.991 --     6 C    1.442     8 C    1.439    31 H    0.969
                            10 C    0.111
     8   6 C    3.988 --     7 C    1.439     9 C    1.438    32 H    0.970
                             5 C    0.107
     9   6 C    3.992 --    10 C    1.445     8 C    1.438    33 H    0.970
                             6 C    0.111
    10   6 C    3.992 --     9 C    1.445     5 C    1.409    34 H    0.967
                             7 C    0.111
    11   6 C    3.899 --    12 O    1.712    13 O    1.095     4 C    0.976
    12   8 O    2.021 --    11 C    1.712    13 O    0.154
    13   8 O    2.288 --    11 C    1.095    14 C    0.963    12 O    0.154
    14   6 C    3.936 --    15 C    1.000    13 O    0.963    36 H    0.958
                            35 H    0.956
    15   6 C    3.943 --    14 C    1.000    37 H    0.964    38 H    0.960
                            16 N    0.941
    16   7 N    3.805 --    21 C    0.959    15 C    0.941    19 C    0.926
                            17 C    0.920
    17   6 C    3.921 --    18 C    1.024    39 H    0.967    40 H    0.948
                            16 N    0.920
    18   6 C    3.984 --    17 C    1.024    43 H    0.981    41 H    0.981
                            42 H    0.972
    19   6 C    3.934 --    20 C    1.023    44 H    0.967    45 H    0.964
                            16 N    0.926
    20   6 C    3.982 --    19 C    1.023    48 H    0.981    46 H    0.981
                            47 H    0.973
    21   6 C    3.927 --    49 H    0.976    50 H    0.974    51 H    0.966
                            16 N    0.959
    22   1 H    0.999 --     1 C    0.985
    23   1 H    0.998 --     1 C    0.986
    24   1 H    0.999 --     1 C    0.987
    25   1 H    0.998 --     2 C    0.976
    26   1 H    0.998 --     2 C    0.976
    27   1 H    0.998 --     3 C    0.973
    28   1 H    0.998 --     3 C    0.976
    29   1 H    0.994 --     4 C    0.952
    30   1 H    0.998 --     6 C    0.967
    31   1 H    0.997 --     7 C    0.969
    32   1 H    0.997 --     8 C    0.970
    33   1 H    0.998 --     9 C    0.970
    34   1 H    0.999 --    10 C    0.967
    35   1 H    0.993 --    14 C    0.956
    36   1 H    0.992 --    14 C    0.958
    37   1 H    0.991 --    15 C    0.964
    38   1 H    0.990 --    15 C    0.960
    39   1 H    0.993 --    17 C    0.967
    40   1 H    0.986 --    17 C    0.948
    41   1 H    0.996 --    18 C    0.981
    42   1 H    0.992 --    18 C    0.972
    43   1 H    0.996 --    18 C    0.981
    44   1 H    0.992 --    19 C    0.967
    45   1 H    0.992 --    19 C    0.964
    46   1 H    0.995 --    20 C    0.981
    47   1 H    0.992 --    20 C    0.973
    48   1 H    0.996 --    20 C    0.981
    49   1 H    0.992 --    21 C    0.976
    50   1 H    0.991 --    21 C    0.974
    51   1 H    0.989 --    21 C    0.966
 ---------------------------------------------------------------------------

molecular dipole:
                 x           y           z       tot (Debye)
 q only:        6.066     -10.480       1.058
   full:        6.089     -10.542       1.024      31.053

           -------------------------------------------------
          | TOTAL ENERGY              -64.518699471224 Eh   |
          | GRADIENT NORM               0.000427314616 Eh/α |
          | HOMO-LUMO GAP               3.459265965690 eV   |
           -------------------------------------------------

 * finished run on 2024/12/20 at 06:53:04.473
