   * xtb version 6.7.1 (edcfbbe) compiled by 'conda@3ef47c1a292c' on 2024-11-25

   ID    Z sym.   atoms
    1    7 N      1-3, 5, 6, 8
    2    6 C      4, 7, 9
    3    1 H      10-14

          program call               : xtb C0673.xyz --opt --namespace C0673 --charge +1
          :  Hamiltonian                  GFN2-xTB          :
 * total energy  :   -25.9217641 Eh     change       -0.1027374E-09 Eh
 * total energy  :   -25.9497551 Eh     change       -0.2799097E-01 Eh
 * total energy  :   -25.9599449 Eh     change       -0.1018983E-01 Eh
 * total energy  :   -25.9620975 Eh     change       -0.2152571E-02 Eh
 * total energy  :   -25.9672444 Eh     change       -0.5146869E-02 Eh
 * total energy  :   -25.9684196 Eh     change       -0.1175206E-02 Eh
 * total energy  :   -25.9697778 Eh     change       -0.1358256E-02 Eh
 * total energy  :   -25.9708112 Eh     change       -0.1033400E-02 Eh
 * total energy  :   -25.9714881 Eh     change       -0.6768855E-03 Eh
 * total energy  :   -25.9718625 Eh     change       -0.3743778E-03 Eh
 * total energy  :   -25.9726790 Eh     change       -0.1250206E-03 Eh
 * total energy  :   -25.9727796 Eh     change       -0.1005666E-03 Eh
 * total energy  :   -25.9728190 Eh     change       -0.3948440E-04 Eh
 * total energy  :   -25.9728481 Eh     change       -0.2900505E-04 Eh
 * total energy  :   -25.9728591 Eh     change       -0.1108115E-04 Eh
 * total energy  :   -25.9728662 Eh     change       -0.7090280E-05 Eh
 * total energy  :   -25.9728683 Eh     change       -0.2105650E-05 Eh
 * total energy  :   -25.9728677 Eh     change        0.6061056E-06 Eh
 * total energy  :   -25.9728695 Eh     change       -0.1807438E-05 Eh
   *** GEOMETRY OPTIMIZATION CONVERGED AFTER 22 ITERATIONS ***

 final structure:
================
14
 xtb: 6.7.1 (edcfbbe)
N            1.50958286606996        0.24299991874006       -0.71110522031276
N            2.37404435808673       -0.11515499987613       -0.11420839175112
N            3.35963011104596       -0.27557326800851        0.55695264238685
C            3.95953853741589       -1.35762605981817        1.01273777775632
N            3.60672652673102       -2.60013456727040        0.83193171456032
N            4.54996923137988       -3.39347430734926        1.50594241963992
C            5.53313280916424       -2.33312493582334        2.12179828573848
N            5.11757795579157       -1.20537476752947        1.78834538060739
C            6.67284093734033       -2.76054719112121        2.91270449506522
H            4.08689375430840       -3.97938618937834        2.21926759079746
H            5.01387939947601       -4.04108416993989        0.84839483990934
H            6.35523939624960       -3.33864646771606        3.78143568678352
H            7.34591592201165       -3.38767493312311        2.32642790050227
H            7.21678819492882       -1.88122806178616        3.25239487831692

          :  Hamiltonian                  GFN2-xTB          :
         :: total energy             -25.972869530136 Eh    ::
         :: gradient norm              0.000515320268 Eh/a0 ::
         :: HOMO-LUMO gap              2.960946939221 eV    ::
         :: SCC energy               -26.334729443922 Eh    ::
         :: -> dispersion             -0.009185562646 Eh    ::
         :: repulsion energy           0.361859913785 Eh    ::

    * Orbital Energies and Occupations

         #    Occupation            Energy/Eh            Energy/eV
      -------------------------------------------------------------
         1        2.0000           -0.9331801             -25.3931
       ...           ...                  ...                  ...
        11        2.0000           -0.7792950             -21.2057
        12        2.0000           -0.7652887             -20.8246
        13        2.0000           -0.7512068             -20.4414
        14        2.0000           -0.7237112             -19.6932
        15        2.0000           -0.6948651             -18.9082
        16        2.0000           -0.6896877             -18.7674
        17        2.0000           -0.6652983             -18.1037
        18        2.0000           -0.6436141             -17.5136
        19        2.0000           -0.6420622             -17.4714
        20        2.0000           -0.6244081             -16.9910
        21        2.0000           -0.6165216             -16.7764
        22        2.0000           -0.6005089             -16.3407
        23        2.0000           -0.5942848             -16.1713 (HOMO)
        24                         -0.4854720             -13.2104 (LUMO)
        25                         -0.4246197             -11.5545
        26                         -0.4218756             -11.4798
        27                         -0.3368744              -9.1668
        28                         -0.3029708              -8.2443
        29                         -0.2383681              -6.4863
        30                         -0.1508894              -4.1059
        31                         -0.1468773              -3.9967
        32                         -0.0878094              -2.3894
        33                         -0.0239909              -0.6528
        34                          0.0034756               0.0946
       ...                                ...                  ...
        41                          0.9524112              25.9164
      -------------------------------------------------------------
                  HL-Gap            0.1088128 Eh            2.9609 eV

     #   Z          covCN         q      C6AA      α(0)
     1   7 N        0.992    -0.059    21.992     6.741
     2   7 N        1.984     0.360    16.190     5.967
     3   7 N        1.913    -0.091    23.772     7.229
     4   6 C        3.045     0.252    22.741     7.821
     5   7 N        1.927    -0.245    27.222     7.736
     6   7 N        3.698     0.032    20.679     6.754
     7   6 C        2.994     0.163    24.478     8.116
     8   7 N        1.861    -0.165    25.363     7.465
     9   6 C        3.755    -0.149    23.435     6.903
    10   1 H        0.859     0.255     0.863     1.455
    11   1 H        0.859     0.255     0.863     1.455
    12   1 H        0.924     0.125     1.577     1.964
    13   1 H        0.924     0.125     1.571     1.960
    14   1 H        0.925     0.140     1.458     1.888

Wiberg/Mayer (AO) data.
largest (>0.10) Wiberg bond orders for each atom

     #   Z sym  total        # sym  WBO       # sym  WBO       # sym  WBO
 ---------------------------------------------------------------------------
     1   7 N    2.997 --     2 N    2.335     3 N    0.482
     2   7 N    3.854 --     1 N    2.335     3 N    1.479
     3   7 N    3.357 --     2 N    1.479     4 C    1.244     1 N    0.482
     4   6 C    3.966 --     5 N    1.525     3 N    1.244     8 N    1.053
     5   7 N    2.926 --     4 C    1.525     6 N    1.025     7 C    0.104
     6   7 N    3.747 --     5 N    1.025    10 H    0.892    11 H    0.892
                             7 C    0.795
     7   6 C    3.927 --     8 N    1.856     9 C    1.089     6 N    0.795
                             5 N    0.104
     8   7 N    3.168 --     7 C    1.856     4 C    1.053
     9   6 C    3.967 --     7 C    1.089    14 H    0.951    12 H    0.929
                            13 H    0.928
    10   1 H    0.931 --     6 N    0.892
    11   1 H    0.931 --     6 N    0.892
    12   1 H    0.983 --     9 C    0.929
    13   1 H    0.983 --     9 C    0.928
    14   1 H    0.980 --     9 C    0.951
 ---------------------------------------------------------------------------

molecular dipole:
                 x           y           z       tot (Debye)
 q only:        9.139      -5.233       3.156
   full:        9.416      -5.884       3.372      29.495

           -------------------------------------------------
          | TOTAL ENERGY              -25.972869530136 Eh   |
          | GRADIENT NORM               0.000515320268 Eh/α |
          | HOMO-LUMO GAP               2.960946939221 eV   |
           -------------------------------------------------

 * finished run on 2024/12/20 at 06:53:02.690
