   * xtb version 6.7.1 (edcfbbe) compiled by 'conda@3ef47c1a292c' on 2024-11-25

   ID    Z sym.   atoms
    1    9 F      1, 5-11, 20
    2    6 C      2, 3, 12, 13, 15-19
    3   16 S      4
    4    7 N      14
    5    1 H      21-29

          program call               : xtb C0678.xyz --opt --namespace C0678 --charge +1
          :  Hamiltonian                  GFN2-xTB          :
 * total energy  :   -59.9477474 Eh     change       -0.8782308E-11 Eh
 * total energy  :   -71.2375002 Eh     change       -0.1128975E+02 Eh
 * total energy  :   -71.6497513 Eh     change       -0.4122511E+00 Eh
 * total energy  :   -71.8421921 Eh     change       -0.1924409E+00 Eh
 * total energy  :   -71.9929069 Eh     change       -0.1507148E+00 Eh
 * total energy  :   -72.0885414 Eh     change       -0.9563448E-01 Eh
 * total energy  :   -72.1511589 Eh     change       -0.6261749E-01 Eh
 * total energy  :   -72.1949358 Eh     change       -0.4377691E-01 Eh
 * total energy  :   -72.2268250 Eh     change       -0.3188913E-01 Eh
 * total energy  :   -72.2478066 Eh     change       -0.2098162E-01 Eh
 * total energy  :   -72.3071556 Eh     change       -0.2924621E-04 Eh
 * total energy  :   -72.3072006 Eh     change       -0.4494912E-04 Eh
 * total energy  :   -72.3072756 Eh     change       -0.7507507E-04 Eh
 * total energy  :   -72.3073585 Eh     change       -0.8281147E-04 Eh
 * total energy  :   -72.3073995 Eh     change       -0.4102092E-04 Eh
 * total energy  :   -72.3074478 Eh     change       -0.4832433E-04 Eh
 * total energy  :   -72.3074792 Eh     change       -0.3140753E-04 Eh
 * total energy  :   -72.3074878 Eh     change       -0.8574124E-05 Eh
 * total energy  :   -72.3074921 Eh     change       -0.4267897E-05 Eh
   *** GEOMETRY OPTIMIZATION CONVERGED AFTER 75 ITERATIONS ***

 final structure:
================
29
 xtb: 6.7.1 (edcfbbe)
F            0.67200119124941        0.60116035740390        0.33846918501922
C            1.96178517016112        0.26258335106768        0.55368467534251
C            2.01070823221652       -1.07234585416932        1.35030156246364
S            2.16223336722759       -3.73234369038053       -1.42565700595817
F            1.37476787548286       -2.39942113858163       -1.97519646267295
F            0.90387346817037       -4.66875582767409       -1.96848860608050
F            2.98683763835396       -4.03784316606465       -2.77368452933300
F            3.41927532448655       -2.62954233227009       -0.99168106327677
F            1.49196249062775       -2.09053473569322        0.63846837373261
F            3.26794912169539       -1.38908501185769        1.63367049632136
F            1.33309751507911       -0.98809687276025        2.48042546376970
C            2.75058443122514        0.23518199203586       -0.74867249436364
C            2.53903421896034        1.51027568534266       -1.57347758566406
N            2.94889785067339        2.70834853364509       -0.85369787675456
C            2.02948126359887        3.51998606977752       -0.32075529906964
C            2.39987709155226        4.62716940869684        0.41520331967932
C            3.74849610797111        4.89729045859364        0.60475571735195
C            4.68741168819147        4.04387346610595        0.03689547694883
C            4.25476080446563        2.95488194392056       -0.68839147673582
F            2.45143544385181        1.22802576816713        1.38678675150259
H            3.80104077332420        0.06769395681657       -0.50476073375565
H            2.40581115927184       -0.60574441715092       -1.34948160077126
H            3.12249101002685        1.42378068340237       -2.49267264316367
H            1.48299454359431        1.59734523271771       -1.83767083843909
H            0.98966891276350        3.27032573177176       -0.47678331316168
H            1.63869848368564        5.26397969027481        0.83673097875530
H            4.06226905172378        5.75329539632926        1.18162500714311
H            5.74454524382452        4.21928366318066        0.15666139266334
H            4.95059052654381        2.26805165736522       -1.14800687149744

          :  Hamiltonian                  GFN2-xTB          :
         :: total energy             -72.307492053454 Eh    ::
         :: gradient norm              0.000450094042 Eh/a0 ::
         :: HOMO-LUMO gap              2.651125178095 eV    ::
         :: SCC energy               -72.769101493664 Eh    ::
         :: -> dispersion             -0.026563052065 Eh    ::
         :: repulsion energy           0.461609440210 Eh    ::

    * Orbital Energies and Occupations

         #    Occupation            Energy/Eh            Energy/eV
      -------------------------------------------------------------
         1        2.0000           -1.0289178             -27.9983
       ...           ...                  ...                  ...
        47        2.0000           -0.6342602             -17.2591
        48        2.0000           -0.6336836             -17.2434
        49        2.0000           -0.6283685             -17.0988
        50        2.0000           -0.6277744             -17.0826
        51        2.0000           -0.6267729             -17.0554
        52        2.0000           -0.6227142             -16.9449
        53        2.0000           -0.6218383             -16.9211
        54        2.0000           -0.6171397             -16.7932
        55        2.0000           -0.6028362             -16.4040
        56        2.0000           -0.6018542             -16.3773
        57        2.0000           -0.6017245             -16.3738
        58        2.0000           -0.6010315             -16.3549
        59        2.0000           -0.5654502             -15.3867 (HOMO)
        60                         -0.4680232             -12.7356 (LUMO)
        61                         -0.4351294             -11.8405
        62                         -0.3266822              -8.8895
        63                         -0.3149357              -8.5698
        64                         -0.1917948              -5.2190
        65                         -0.1822101              -4.9582
        66                         -0.1748256              -4.7572
        67                         -0.1725451              -4.6952
        68                         -0.1337681              -3.6400
        69                         -0.1293847              -3.5207
        70                         -0.0989405              -2.6923
       ...                                ...                  ...
        94                          0.6555399              17.8381
      -------------------------------------------------------------
                  HL-Gap            0.0974271 Eh            2.6511 eV

     #   Z          covCN         q      C6AA      α(0)
     1   9 F        0.788    -0.194    11.173     3.949
     2   6 C        3.519     0.315    16.960     6.073
     3   6 C        3.328     0.490    17.331     6.610
     4  16 S        3.147     1.888    84.631    15.483
     5   9 F        0.787    -0.437    13.994     4.419
     6   9 F        0.786    -0.493    14.753     4.537
     7   9 F        0.788    -0.398    13.502     4.341
     8   9 F        0.781    -0.562    15.736     4.686
     9   9 F        0.796    -0.206    11.294     3.970
    10   9 F        0.791    -0.167    10.899     3.900
    11   9 F        0.791    -0.150    10.727     3.869
    12   6 C        3.803    -0.105    22.502     6.753
    13   6 C        3.759    -0.039    21.322     6.583
    14   7 N        2.749     0.117    19.244     6.515
    15   6 C        2.889     0.038    27.150     8.543
    16   6 C        2.916    -0.005    28.151     8.701
    17   6 C        2.925     0.019    27.591     8.614
    18   6 C        2.915    -0.007    28.184     8.706
    19   6 C        2.891     0.032    27.280     8.563
    20   9 F        0.789    -0.216    11.406     3.989
    21   1 H        0.924     0.113     1.672     2.022
    22   1 H        0.925     0.152     1.380     1.837
    23   1 H        0.924     0.118     1.632     1.998
    24   1 H        0.924     0.116     1.642     2.004
    25   1 H        0.926     0.120     1.612     1.986
    26   1 H        0.926     0.116     1.643     2.004
    27   1 H        0.926     0.114     1.660     2.015
    28   1 H        0.926     0.115     1.655     2.012
    29   1 H        0.926     0.115     1.658     2.014

Wiberg/Mayer (AO) data.
largest (>0.10) Wiberg bond orders for each atom

     #   Z sym  total        # sym  WBO       # sym  WBO       # sym  WBO
 ---------------------------------------------------------------------------
     1   9 F    1.073 --     2 C    0.962
     2   6 C    3.864 --    12 C    0.973     1 F    0.962    20 F    0.938
                             3 C    0.898
     3   6 C    3.859 --    11 F    0.993    10 F    0.977     9 F    0.936
                             2 C    0.898
     4  16 S    3.393 --     7 F    0.952     5 F    0.885     6 F    0.824
                             8 F    0.715
     5   9 F    0.937 --     4 S    0.885
     6   9 F    0.863 --     4 S    0.824
     7   9 F    0.995 --     4 S    0.952
     8   9 F    0.755 --     4 S    0.715
     9   9 F    1.080 --     3 C    0.936
    10   9 F    1.108 --     3 C    0.977
    11   9 F    1.128 --     3 C    0.993
    12   6 C    3.962 --    13 C    0.992     2 C    0.973    21 H    0.960
                            22 H    0.938
    13   6 C    3.940 --    12 C    0.992    14 N    0.967    24 H    0.961
                            23 H    0.954
    14   7 N    3.767 --    15 C    1.331    19 C    1.320    13 C    0.967
    15   6 C    3.953 --    16 C    1.457    14 N    1.331    25 H    0.951
    16   6 C    3.978 --    15 C    1.457    17 C    1.426    26 H    0.957
    17   6 C    3.967 --    16 C    1.426    18 C    1.415    27 H    0.960
    18   6 C    3.979 --    19 C    1.470    17 C    1.415    28 H    0.957
    19   6 C    3.956 --    18 C    1.470    14 N    1.320    29 H    0.953
    20   9 F    1.048 --     2 C    0.938
    21   1 H    0.987 --    12 C    0.960
    22   1 H    0.976 --    12 C    0.938
    23   1 H    0.986 --    13 C    0.954
    24   1 H    0.986 --    13 C    0.961
    25   1 H    0.986 --    15 C    0.951
    26   1 H    0.986 --    16 C    0.957
    27   1 H    0.987 --    17 C    0.960
    28   1 H    0.986 --    18 C    0.957
    29   1 H    0.987 --    19 C    0.953
 ---------------------------------------------------------------------------

molecular dipole:
                 x           y           z       tot (Debye)
 q only:        6.332       4.822      -0.364
   full:        6.295       4.725      -0.529      20.051

           -------------------------------------------------
          | TOTAL ENERGY              -72.307492053454 Eh   |
          | GRADIENT NORM               0.000450094042 Eh/α |
          | HOMO-LUMO GAP               2.651125178095 eV   |
           -------------------------------------------------

 * finished run on 2024/12/20 at 06:53:08.444
