   * xtb version 6.7.1 (edcfbbe) compiled by 'conda@3ef47c1a292c' on 2024-11-25

   ID    Z sym.   atoms
    1    6 C      1-15, 17-25
    2    7 N      16
    3    1 H      26-69

          program call               : xtb C0683.xyz --opt --namespace C0683 --charge +1
          :  Hamiltonian                  GFN2-xTB          :
 * total energy  :   -76.3643118 Eh     change       -0.3659878E-08 Eh
 * total energy  :   -76.3717668 Eh     change       -0.7455001E-02 Eh
 * total energy  :   -76.3735133 Eh     change       -0.1746410E-02 Eh
 * total energy  :   -76.3736902 Eh     change       -0.1769287E-03 Eh
 * total energy  :   -76.3738385 Eh     change       -0.1483232E-03 Eh
 * total energy  :   -76.3739182 Eh     change       -0.7968307E-04 Eh
 * total energy  :   -76.3740357 Eh     change       -0.1175047E-03 Eh
 * total energy  :   -76.3741259 Eh     change       -0.9016985E-04 Eh
 * total energy  :   -76.3741787 Eh     change       -0.5287579E-04 Eh
 * total energy  :   -76.3741988 Eh     change       -0.2005455E-04 Eh
 * total energy  :   -76.3749765 Eh     change       -0.5288217E-04 Eh
 * total energy  :   -76.3750072 Eh     change       -0.3075009E-04 Eh
 * total energy  :   -76.3750382 Eh     change       -0.3095348E-04 Eh
 * total energy  :   -76.3750578 Eh     change       -0.1961606E-04 Eh
 * total energy  :   -76.3750730 Eh     change       -0.1520866E-04 Eh
 * total energy  :   -76.3750820 Eh     change       -0.9016606E-05 Eh
 * total energy  :   -76.3750911 Eh     change       -0.9096054E-05 Eh
 * total energy  :   -76.3751011 Eh     change       -0.9973843E-05 Eh
 * total energy  :   -76.3751057 Eh     change       -0.4603000E-05 Eh
   *** GEOMETRY OPTIMIZATION CONVERGED AFTER 48 ITERATIONS ***

 final structure:
================
69
 xtb: 6.7.1 (edcfbbe)
C            1.03564254230651       -0.95526639887448        0.04252339850795
C            0.77802903332881       -0.52520739975449        1.48185431653917
C            1.19043477191991        0.92044612746040        1.76320605308496
C            0.42888225994450        1.97746108479038        0.96089606190950
C           -1.08396648787965        1.99989842750298        1.18857261798213
C           -1.51895416187204        2.24300162880594        2.63556606560118
C           -0.98022570807460        3.52851383189841        3.26687796870676
C           -1.32746090413501        4.81325192248909        2.51286417782515
C           -2.82404980481399        5.09938337545680        2.37760358978398
C           -3.57145657777884        5.27542396726256        3.70137216672750
C           -3.02455273757690        6.37964467287094        4.60919730043410
C           -2.93931297371551        7.76347484947853        3.96195383059512
C           -4.26257979787108        8.31341346692668        3.42385675766755
C           -5.36499913417971        8.48139279719718        4.47672638503275
C           -5.04797731926110        9.48455847937342        5.59181256710336
N           -5.60719009170962       10.86251587391082        5.43600948194747
C           -7.10660891413687       10.86873871550127        5.55000909592134
C           -7.63506707542018       10.33998852791470        6.85809601907180
C           -7.86594904721757       11.20194552458264        7.92609760004206
C           -8.37102749208252       10.71849894083202        9.12036406422265
C           -8.65534130156771        9.37020345991018        9.25950560921423
C           -8.44551623517877        8.50814654614695        8.19605907994650
C           -7.94135533333180        8.98978545363958        7.00065999502476
C           -5.03408528837141       11.70304076662708        6.50400609225075
C           -5.23264707097163       11.44370528931121        4.13604680816945
H            0.40729750557038       -0.40279194160534       -0.65162346650824
H            0.82018264066651       -2.01455057268814       -0.07801953845174
H            2.07673379860666       -0.78565918420269       -0.22447437266037
H           -0.27798855752829       -0.66432708967759        1.72012131757377
H            1.34921722387561       -1.17474622183365        2.14985830498350
H            1.06697961621253        1.11760053347061        2.83026438050168
H            2.25443829180641        1.02733929477962        1.53597893281248
H            0.84572104038378        2.95680761736521        1.20666417138888
H            0.60906654498179        1.81506833877648       -0.10344259576229
H           -1.51375493061618        2.77323132789062        0.54724877017779
H           -1.50917676638270        1.04847171899699        0.86351312456198
H           -2.61126100070496        2.25383294616677        2.66636217047823
H           -1.19338256847968        1.40308158212336        3.25225590281709
H           -1.35883882680069        3.59295639271449        4.28985125304321
H            0.10710140553030        3.46216672701838        3.33525356064397
H           -0.84030938969338        5.65001158714754        3.01922470301220
H           -0.90341523881959        4.76150806425293        1.50882882853594
H           -2.94730752310875        5.99749308803721        1.76711426832290
H           -3.29505703730281        4.28016307509542        1.83227848663451
H           -4.62386436966830        5.46982236066050        3.47822818445798
H           -3.53554930233796        4.33761915183037        4.25761533201715
H           -3.64270794227254        6.42907227757474        5.50974706946666
H           -2.02053379609168        6.10393347955517        4.93392608801484
H           -2.50849650792507        8.45598329349295        4.69101386001632
H           -2.23985025223775        7.71832305648397        3.12704326802835
H           -4.06067737624877        9.26055042275256        2.92059451831565
H           -4.63868681002624        7.62592321481760        2.66623560968784
H           -6.29719716713963        8.73758701051784        3.97193125449991
H           -5.52499648712592        7.50994066959757        4.94489858907127
H           -5.42388528639358        9.10919404282311        6.54537384039518
H           -3.96439410943948        9.58243351560525        5.67413099807339
H           -7.43410187664232       11.90180716998016        5.41447907287459
H           -7.50692848240873       10.27322896969961        4.72833874793101
H           -7.67188883336701       12.25970790298738        7.82205757332139
H           -8.55039369286702       11.39796312565641        9.93863455885406
H           -9.05285517292145        8.99493467258297       10.18904072760925
H           -8.68317703533232        7.46039616375781        8.29238813691675
H           -7.80593716594512        8.31330376424645        6.16950104860893
H           -3.95224641484282       11.75864035356629        6.39709505477497
H           -5.44038722389623       12.71117126499979        6.44530472251445
H           -5.27197907856662       11.28425696881522        7.48009845526834
H           -4.14997687464478       11.43222164421428        4.02366998967269
H           -5.67990445060424       10.88019829798466        3.32105750085685
H           -5.57831567001299       12.47446999052388        4.07422049335011

          :  Hamiltonian                  GFN2-xTB          :
         :: total energy             -76.375105682549 Eh    ::
         :: gradient norm              0.000368209287 Eh/a0 ::
         :: HOMO-LUMO gap              2.702221438645 eV    ::
         :: SCC energy               -77.562972477165 Eh    ::
         :: -> dispersion             -0.062092435844 Eh    ::
         :: repulsion energy           1.187866794616 Eh    ::

    * Orbital Energies and Occupations

         #    Occupation            Energy/Eh            Energy/eV
      -------------------------------------------------------------
         1        2.0000           -0.8561591             -23.2973
       ...           ...                  ...                  ...
        60        2.0000           -0.5193076             -14.1311
        61        2.0000           -0.5139049             -13.9841
        62        2.0000           -0.5091049             -13.8535
        63        2.0000           -0.5030722             -13.6893
        64        2.0000           -0.4967635             -13.5176
        65        2.0000           -0.4927936             -13.4096
        66        2.0000           -0.4879563             -13.2780
        67        2.0000           -0.4782576             -13.0141
        68        2.0000           -0.4764890             -12.9659
        69        2.0000           -0.4726422             -12.8612
        70        2.0000           -0.4622066             -12.5773
        71        2.0000           -0.4571311             -12.4392
        72        2.0000           -0.4555403             -12.3959 (HOMO)
        73                         -0.3562355              -9.6937 (LUMO)
        74                         -0.3455683              -9.4034
        75                         -0.2335713              -6.3558
        76                         -0.2059969              -5.6055
        77                         -0.1513995              -4.1198
        78                         -0.1401738              -3.8143
        79                         -0.1345343              -3.6609
        80                         -0.0612049              -1.6655
        81                         -0.0577986              -1.5728
        82                         -0.0388626              -1.0575
        83                         -0.0296786              -0.8076
       ...                                ...                  ...
       144                          0.5397585              14.6876
      -------------------------------------------------------------
                  HL-Gap            0.0993048 Eh            2.7022 eV

     #   Z          covCN         q      C6AA      α(0)
     1   6 C        3.751    -0.102    22.507     6.766
     2   6 C        3.799    -0.052    21.511     6.604
     3   6 C        3.800    -0.057    21.602     6.617
     4   6 C        3.800    -0.057    21.600     6.617
     5   6 C        3.800    -0.056    21.591     6.616
     6   6 C        3.800    -0.057    21.595     6.616
     7   6 C        3.800    -0.057    21.601     6.617
     8   6 C        3.800    -0.058    21.614     6.619
     9   6 C        3.800    -0.058    21.626     6.621
    10   6 C        3.800    -0.059    21.635     6.623
    11   6 C        3.800    -0.061    21.671     6.628
    12   6 C        3.800    -0.062    21.695     6.632
    13   6 C        3.800    -0.070    21.836     6.653
    14   6 C        3.799    -0.070    21.834     6.653
    15   6 C        3.759    -0.040    21.336     6.585
    16   7 N        3.620     0.128    19.054     6.483
    17   6 C        3.764    -0.039    21.322     6.582
    18   6 C        2.967    -0.007    28.198     8.710
    19   6 C        2.923    -0.039    28.971     8.827
    20   6 C        2.918    -0.022    28.561     8.764
    21   6 C        2.920    -0.018    28.465     8.749
    22   6 C        2.918    -0.022    28.567     8.765
    23   6 C        2.923    -0.039    28.962     8.825
    24   6 C        3.727    -0.091    22.344     6.749
    25   6 C        3.721    -0.090    22.345     6.751
    26   1 H        0.925     0.034     2.533     2.489
    27   1 H        0.925     0.033     2.550     2.497
    28   1 H        0.925     0.034     2.528     2.487
    29   1 H        0.924     0.030     2.587     2.515
    30   1 H        0.924     0.028     2.621     2.532
    31   1 H        0.924     0.028     2.621     2.532
    32   1 H        0.924     0.029     2.599     2.521
    33   1 H        0.924     0.027     2.636     2.539
    34   1 H        0.924     0.033     2.548     2.496
    35   1 H        0.924     0.025     2.656     2.549
    36   1 H        0.924     0.033     2.540     2.492
    37   1 H        0.924     0.025     2.660     2.551
    38   1 H        0.924     0.033     2.538     2.491
    39   1 H        0.924     0.025     2.663     2.552
    40   1 H        0.924     0.035     2.523     2.484
    41   1 H        0.924     0.024     2.675     2.558
    42   1 H        0.924     0.037     2.491     2.468
    43   1 H        0.924     0.023     2.684     2.562
    44   1 H        0.924     0.039     2.462     2.454
    45   1 H        0.924     0.022     2.702     2.570
    46   1 H        0.924     0.041     2.437     2.441
    47   1 H        0.924     0.021     2.717     2.578
    48   1 H        0.924     0.045     2.379     2.412
    49   1 H        0.924     0.018     2.760     2.598
    50   1 H        0.925     0.053     2.286     2.364
    51   1 H        0.924     0.031     2.572     2.508
    52   1 H        0.925     0.060     2.196     2.317
    53   1 H        0.924     0.045     2.380     2.412
    54   1 H        0.925     0.074     2.045     2.236
    55   1 H        0.924     0.082     1.960     2.189
    56   1 H        0.924     0.088     1.897     2.154
    57   1 H        0.924     0.081     1.965     2.192
    58   1 H        0.924     0.084     1.936     2.176
    59   1 H        0.926     0.040     2.443     2.444
    60   1 H        0.926     0.058     2.218     2.329
    61   1 H        0.926     0.062     2.180     2.309
    62   1 H        0.926     0.058     2.223     2.332
    63   1 H        0.926     0.043     2.416     2.430
    64   1 H        0.925     0.093     1.849     2.126
    65   1 H        0.925     0.095     1.835     2.119
    66   1 H        0.925     0.099     1.796     2.096
    67   1 H        0.925     0.097     1.811     2.105
    68   1 H        0.925     0.101     1.779     2.086
    69   1 H        0.925     0.092     1.863     2.134

Wiberg/Mayer (AO) data.
largest (>0.10) Wiberg bond orders for each atom

     #   Z sym  total        # sym  WBO       # sym  WBO       # sym  WBO
 ---------------------------------------------------------------------------
     1   6 C    3.997 --     2 C    1.020    28 H    0.988    27 H    0.987
                            26 H    0.986
     2   6 C    3.998 --     1 C    1.020     3 C    1.008    30 H    0.978
                            29 H    0.976
     3   6 C    3.998 --     2 C    1.008     4 C    1.008    32 H    0.977
                            31 H    0.976
     4   6 C    3.997 --     5 C    1.008     3 C    1.008    33 H    0.975
                            34 H    0.975
     5   6 C    3.998 --     4 C    1.008     6 C    1.007    35 H    0.975
                            36 H    0.975
     6   6 C    3.997 --     7 C    1.008     5 C    1.007    37 H    0.976
                            38 H    0.975
     7   6 C    3.997 --     8 C    1.008     6 C    1.008    39 H    0.975
                            40 H    0.975
     8   6 C    3.997 --     7 C    1.008     9 C    1.008    41 H    0.975
                            42 H    0.974
     9   6 C    3.997 --     8 C    1.008    10 C    1.007    43 H    0.975
                            44 H    0.974
    10   6 C    3.997 --     9 C    1.007    11 C    1.007    45 H    0.976
                            46 H    0.974
    11   6 C    3.996 --    12 C    1.007    10 C    1.007    47 H    0.975
                            48 H    0.973
    12   6 C    3.995 --    13 C    1.008    11 C    1.007    49 H    0.972
                            50 H    0.971
    13   6 C    3.992 --    12 C    1.008    14 C    1.005    51 H    0.975
                            52 H    0.970
    14   6 C    3.985 --    13 C    1.005    15 C    1.004    53 H    0.965
                            54 H    0.965
    15   6 C    3.925 --    14 C    1.004    55 H    0.965    56 H    0.959
                            16 N    0.924
    16   7 N    3.808 --    25 C    0.962    24 C    0.961    15 C    0.924
                            17 C    0.912
    17   6 C    3.930 --    18 C    1.005    57 H    0.965    58 H    0.961
                            16 N    0.912
    18   6 C    3.979 --    19 C    1.408    23 C    1.407    17 C    1.005
                            21 C    0.109
    19   6 C    3.991 --    20 C    1.445    18 C    1.408    59 H    0.968
                            22 C    0.109
    20   6 C    3.990 --    19 C    1.445    21 C    1.438    60 H    0.969
                            23 C    0.109
    21   6 C    3.988 --    22 C    1.438    20 C    1.438    61 H    0.969
                            18 C    0.109
    22   6 C    3.990 --    23 C    1.445    21 C    1.438    62 H    0.969
                            19 C    0.109
    23   6 C    3.991 --    22 C    1.445    18 C    1.407    63 H    0.967
                            20 C    0.109
    24   6 C    3.931 --    64 H    0.975    65 H    0.975    66 H    0.972
                            16 N    0.961
    25   6 C    3.931 --    69 H    0.975    67 H    0.974    68 H    0.971
                            16 N    0.962
    26   1 H    0.999 --     1 C    0.986
    27   1 H    0.999 --     1 C    0.987
    28   1 H    0.999 --     1 C    0.988
    29   1 H    0.999 --     2 C    0.976
    30   1 H    0.999 --     2 C    0.978
    31   1 H    0.999 --     3 C    0.976
    32   1 H    0.999 --     3 C    0.977
    33   1 H    0.999 --     4 C    0.975
    34   1 H    0.999 --     4 C    0.975
    35   1 H    0.999 --     5 C    0.975
    36   1 H    0.999 --     5 C    0.975
    37   1 H    0.999 --     6 C    0.976
    38   1 H    0.999 --     6 C    0.975
    39   1 H    0.999 --     7 C    0.975
    40   1 H    0.999 --     7 C    0.975
    41   1 H    0.999 --     8 C    0.975
    42   1 H    0.999 --     8 C    0.974
    43   1 H    0.999 --     9 C    0.975
    44   1 H    0.998 --     9 C    0.974
    45   1 H    0.999 --    10 C    0.976
    46   1 H    0.998 --    10 C    0.974
    47   1 H    1.000 --    11 C    0.975
    48   1 H    0.998 --    11 C    0.973
    49   1 H    1.000 --    12 C    0.972
    50   1 H    0.997 --    12 C    0.971
    51   1 H    0.999 --    13 C    0.975
    52   1 H    0.996 --    13 C    0.970
    53   1 H    0.998 --    14 C    0.965
    54   1 H    0.994 --    14 C    0.965
    55   1 H    0.993 --    15 C    0.965
    56   1 H    0.992 --    15 C    0.959
    57   1 H    0.993 --    17 C    0.965
    58   1 H    0.993 --    17 C    0.961
    59   1 H    0.998 --    19 C    0.968
    60   1 H    0.996 --    20 C    0.969
    61   1 H    0.996 --    21 C    0.969
    62   1 H    0.996 --    22 C    0.969
    63   1 H    0.998 --    23 C    0.967
    64   1 H    0.991 --    24 C    0.975
    65   1 H    0.991 --    24 C    0.975
    66   1 H    0.990 --    24 C    0.972
    67   1 H    0.990 --    25 C    0.974
    68   1 H    0.990 --    25 C    0.971
    69   1 H    0.992 --    25 C    0.975
 ---------------------------------------------------------------------------

molecular dipole:
                 x           y           z       tot (Debye)
 q only:      -10.661      19.541      10.607
   full:      -10.708      19.683      10.598      63.002

           -------------------------------------------------
          | TOTAL ENERGY              -76.375105682549 Eh   |
          | GRADIENT NORM               0.000368209287 Eh/α |
          | HOMO-LUMO GAP               2.702221438645 eV   |
           -------------------------------------------------

 * finished run on 2024/12/20 at 06:53:18.897
