   * xtb version 6.7.1 (edcfbbe) compiled by 'conda@3ef47c1a292c' on 2024-11-25

   ID    Z sym.   atoms
    1    6 C      1-3, 5, 7-17
    2    7 N      4, 6
    3    1 H      18-40

          program call               : xtb C0682.xyz --opt --namespace C0682 --charge +1
          :  Hamiltonian                  GFN2-xTB          :
 * total energy  :   -49.3591224 Eh     change       -0.3159641E-09 Eh
 * total energy  :   -49.3632721 Eh     change       -0.4149728E-02 Eh
 * total energy  :   -49.3639463 Eh     change       -0.6741699E-03 Eh
 * total energy  :   -49.3640247 Eh     change       -0.7846741E-04 Eh
 * total energy  :   -49.3640830 Eh     change       -0.5828113E-04 Eh
 * total energy  :   -49.3641124 Eh     change       -0.2937912E-04 Eh
 * total energy  :   -49.3641504 Eh     change       -0.3797276E-04 Eh
 * total energy  :   -49.3642074 Eh     change       -0.5699086E-04 Eh
 * total energy  :   -49.3642444 Eh     change       -0.3701839E-04 Eh
 * total energy  :   -49.3642848 Eh     change       -0.4042796E-04 Eh
 * total energy  :   -49.3706935 Eh     change       -0.3675136E-04 Eh
 * total energy  :   -49.3707280 Eh     change       -0.3443095E-04 Eh
 * total energy  :   -49.3707614 Eh     change       -0.3338537E-04 Eh
 * total energy  :   -49.3707816 Eh     change       -0.2025200E-04 Eh
 * total energy  :   -49.3707919 Eh     change       -0.1032061E-04 Eh
 * total energy  :   -49.3708014 Eh     change       -0.9497354E-05 Eh
 * total energy  :   -49.3708077 Eh     change       -0.6237356E-05 Eh
 * total energy  :   -49.3708140 Eh     change       -0.6327281E-05 Eh
 * total energy  :   -49.3708168 Eh     change       -0.2841921E-05 Eh
   *** GEOMETRY OPTIMIZATION CONVERGED AFTER 71 ITERATIONS ***

 final structure:
================
40
 xtb: 6.7.1 (edcfbbe)
C            1.64066041572618       -1.01762597548857       -1.53681254379583
C            0.13525911176125       -0.81210323423320       -1.67535999926843
C           -0.63521375909662       -2.14517725358483       -1.57347059468447
N           -0.44059063178571       -2.81211422354021       -0.30821259704161
C           -1.10567085945731       -2.55488472760586        0.81393040284049
N           -0.66901850128685       -3.30018901826602        1.82314951605982
C            0.35202488407063       -4.09379369507132        1.34413200189034
C            0.49746782494487       -3.78330926439447       -0.02278256743177
C            1.44058566759288       -4.43578768932002       -0.80942142939177
C            2.22553048802990       -5.38492860370803       -0.19006788419177
C            2.08347098002674       -5.68822097499575        1.16778558243509
C            1.14766720788296       -5.05492530643752        1.95757254168754
C           -1.12043091603268       -3.23681539150818        3.19118824922830
C           -0.14622152702642       -2.44577446445465        4.08459073046265
C            0.00563994282758       -1.01115785887080        3.58841833660980
C           -0.66498561910557       -2.47060707578905        5.51897385652857
C           -0.37001371067935        0.20674454806693       -0.65807867545413
H            1.90142542504455       -1.40230471202625       -0.55253880759693
H            2.15298128818849       -0.06916796097728       -1.67011493105260
H            2.01319515443672       -1.70607068054017       -2.29059040317547
H           -0.07226911024594       -0.42814259633646       -2.67840993617674
H           -1.70350939116171       -1.95436500759620       -1.70005713388069
H           -0.30635856775543       -2.82177561768317       -2.36357863077501
H           -1.91147553850806       -1.84943059552417        0.89001678605403
H            1.55688546230822       -4.21510321393445       -1.85723981183646
H            2.96860632761243       -5.91192838045983       -0.76676899131160
H            2.72131832902493       -6.43996887872744        1.60418282292080
H            1.03680095798973       -5.29887536968791        3.00113057359122
H           -2.10197147181156       -2.75840980108641        3.20822903583917
H           -1.22205805449930       -4.25742561906856        3.56752971410149
H            0.83272557700807       -2.93475994555911        4.05128502661418
H           -0.95843471321119       -0.50778054350289        3.56029680966672
H            0.65436495959075       -0.45600512480155        4.25953846003854
H            0.45240752026369       -0.97745860248895        2.59604067267665
H           -0.77500908354972       -3.49076603892612        5.87734875422277
H            0.02902317685089       -1.95362131842341        6.17482045258720
H           -1.63004931248877       -1.97464212959884        5.58611974521525
H            0.09824736038818        1.16941931537683       -0.84175003266553
H           -1.44657931091242        0.33965686263196       -0.73678927302639
H           -0.12028798294132       -0.09071383184770        0.35884417148439

          :  Hamiltonian                  GFN2-xTB          :
         :: total energy             -49.370816838955 Eh    ::
         :: gradient norm              0.000281086869 Eh/a0 ::
         :: HOMO-LUMO gap              3.458064473806 eV    ::
         :: SCC energy               -50.168231473783 Eh    ::
         :: -> dispersion             -0.037745205020 Eh    ::
         :: repulsion energy           0.797414634827 Eh    ::

    * Orbital Energies and Occupations

         #    Occupation            Energy/Eh            Energy/eV
      -------------------------------------------------------------
         1        2.0000           -0.8760836             -23.8394
       ...           ...                  ...                  ...
        34        2.0000           -0.5894729             -16.0404
        35        2.0000           -0.5793240             -15.7642
        36        2.0000           -0.5774720             -15.7138
        37        2.0000           -0.5759573             -15.6726
        38        2.0000           -0.5718340             -15.5604
        39        2.0000           -0.5668924             -15.4259
        40        2.0000           -0.5645597             -15.3625
        41        2.0000           -0.5621984             -15.2982
        42        2.0000           -0.5600216             -15.2390
        43        2.0000           -0.5558387             -15.1251
        44        2.0000           -0.5535535             -15.0630
        45        2.0000           -0.5501780             -14.9711
        46        2.0000           -0.5377289             -14.6323 (HOMO)
        47                         -0.4106473             -11.1743 (LUMO)
        48                         -0.3613190              -9.8320
        49                         -0.3528975              -9.6028
        50                         -0.2358010              -6.4165
        51                         -0.1725426              -4.6951
        52                         -0.1283073              -3.4914
        53                         -0.0711063              -1.9349
        54                         -0.0583269              -1.5872
        55                         -0.0488162              -1.3284
        56                         -0.0395158              -1.0753
        57                         -0.0334456              -0.9101
       ...                                ...                  ...
        91                          0.5420162              14.7490
      -------------------------------------------------------------
                  HL-Gap            0.1270815 Eh            3.4581 eV

     #   Z          covCN         q      C6AA      α(0)
     1   6 C        3.755    -0.116    22.776     6.805
     2   6 C        3.849    -0.016    20.830     6.492
     3   6 C        3.743    -0.025    21.099     6.553
     4   7 N        2.824     0.038    20.578     6.737
     5   6 C        3.078     0.065    26.453     8.432
     6   7 N        2.825     0.034    20.651     6.749
     7   6 C        3.123     0.039    26.950     8.501
     8   6 C        3.120     0.040    26.924     8.498
     9   6 C        2.909    -0.031    28.784     8.797
    10   6 C        2.925    -0.019    28.474     8.751
    11   6 C        2.925    -0.018    28.470     8.750
    12   6 C        2.908    -0.033    28.817     8.802
    13   6 C        3.746    -0.025    21.080     6.549
    14   6 C        3.849    -0.012    20.762     6.481
    15   6 C        3.755    -0.115    22.750     6.801
    16   6 C        3.757    -0.121    22.862     6.817
    17   6 C        3.755    -0.118    22.815     6.811
    18   1 H        0.925     0.035     2.517     2.481
    19   1 H        0.925     0.064     2.155     2.295
    20   1 H        0.925     0.047     2.355     2.400
    21   1 H        0.924     0.065     2.140     2.288
    22   1 H        0.924     0.076     2.021     2.223
    23   1 H        0.924     0.083     1.945     2.181
    24   1 H        0.926     0.106     1.732     2.058
    25   1 H        0.926     0.070     2.080     2.255
    26   1 H        0.926     0.079     1.993     2.208
    27   1 H        0.926     0.079     1.994     2.208
    28   1 H        0.926     0.070     2.080     2.255
    29   1 H        0.924     0.077     2.006     2.215
    30   1 H        0.924     0.082     1.956     2.187
    31   1 H        0.924     0.047     2.353     2.399
    32   1 H        0.925     0.048     2.350     2.397
    33   1 H        0.925     0.065     2.144     2.290
    34   1 H        0.925     0.026     2.651     2.546
    35   1 H        0.925     0.050     2.325     2.385
    36   1 H        0.925     0.065     2.142     2.289
    37   1 H        0.925     0.053     2.280     2.361
    38   1 H        0.925     0.066     2.129     2.282
    39   1 H        0.925     0.044     2.391     2.418
    40   1 H        0.925     0.035     2.523     2.484

Wiberg/Mayer (AO) data.
largest (>0.10) Wiberg bond orders for each atom

     #   Z sym  total        # sym  WBO       # sym  WBO       # sym  WBO
 ---------------------------------------------------------------------------
     1   6 C    3.992 --     2 C    1.011    18 H    0.986    20 H    0.984
                            19 H    0.982
     2   6 C    3.986 --    17 C    1.011     1 C    1.011     3 C    0.967
                            21 H    0.960
     3   6 C    3.941 --     4 N    0.973     2 C    0.967    22 H    0.965
                            23 H    0.964
     4   7 N    3.685 --     5 C    1.365     8 C    1.130     3 C    0.973
                             6 N    0.102
     5   6 C    3.953 --     6 N    1.367     4 N    1.365    24 H    0.952
     6   7 N    3.685 --     5 C    1.367     7 C    1.129    13 C    0.973
                             4 N    0.102
     7   6 C    3.953 --    12 C    1.336     8 C    1.273     6 N    1.129
     8   6 C    3.954 --     9 C    1.335     7 C    1.273     4 N    1.130
     9   6 C    3.986 --    10 C    1.499     8 C    1.335    25 H    0.962
                            12 C    0.119
    10   6 C    3.986 --     9 C    1.499    11 C    1.374    26 H    0.966
    11   6 C    3.986 --    12 C    1.498    10 C    1.374    27 H    0.966
    12   6 C    3.986 --    11 C    1.498     7 C    1.336    28 H    0.963
                             9 C    0.119
    13   6 C    3.939 --     6 N    0.973    14 C    0.968    29 H    0.967
                            30 H    0.961
    14   6 C    3.986 --    15 C    1.011    16 C    1.006    13 C    0.968
                            31 H    0.966
    15   6 C    3.993 --    14 C    1.011    32 H    0.985    34 H    0.984
                            33 H    0.982
    16   6 C    3.988 --    14 C    1.006    37 H    0.985    35 H    0.985
                            36 H    0.982
    17   6 C    3.992 --     2 C    1.011    39 H    0.985    40 H    0.981
                            38 H    0.981
    18   1 H    0.999 --     1 C    0.986
    19   1 H    0.996 --     1 C    0.982
    20   1 H    0.998 --     1 C    0.984
    21   1 H    0.994 --     2 C    0.960
    22   1 H    0.993 --     3 C    0.965
    23   1 H    0.993 --     3 C    0.964
    24   1 H    0.988 --     5 C    0.952
    25   1 H    0.994 --     9 C    0.962
    26   1 H    0.993 --    10 C    0.966
    27   1 H    0.993 --    11 C    0.966
    28   1 H    0.994 --    12 C    0.963
    29   1 H    0.993 --    13 C    0.967
    30   1 H    0.993 --    13 C    0.961
    31   1 H    0.998 --    14 C    0.966
    32   1 H    0.998 --    15 C    0.985
    33   1 H    0.996 --    15 C    0.982
    34   1 H    0.999 --    15 C    0.984
    35   1 H    0.998 --    16 C    0.985
    36   1 H    0.994 --    16 C    0.982
    37   1 H    0.997 --    16 C    0.985
    38   1 H    0.995 --    17 C    0.981
    39   1 H    0.998 --    17 C    0.985
    40   1 H    0.999 --    17 C    0.981
 ---------------------------------------------------------------------------

molecular dipole:
                 x           y           z       tot (Debye)
 q only:       -0.186      -5.637       1.663
   full:       -0.396      -5.617       1.614      14.890

           -------------------------------------------------
          | TOTAL ENERGY              -49.370816838955 Eh   |
          | GRADIENT NORM               0.000281086869 Eh/α |
          | HOMO-LUMO GAP               3.458064473806 eV   |
           -------------------------------------------------

 * finished run on 2024/12/20 at 06:53:15.167
