   * xtb version 6.7.1 (edcfbbe) compiled by 'conda@3ef47c1a292c' on 2024-11-25

   ID    Z sym.   atoms
    1    6 C      1, 3, 4, 6-14
    2    7 N      2, 5, 15
    3    8 O      16, 17
    4    1 H      18-31

          program call               : xtb C0686.xyz --opt --namespace C0686 --charge +1
          :  Hamiltonian                  GFN2-xTB          :
 * total energy  :   -49.2544926 Eh     change       -0.1441620E-09 Eh
 * total energy  :   -49.2613131 Eh     change       -0.6820466E-02 Eh
 * total energy  :   -49.2622869 Eh     change       -0.9737840E-03 Eh
 * total energy  :   -49.2624134 Eh     change       -0.1264922E-03 Eh
 * total energy  :   -49.2627799 Eh     change       -0.3665364E-03 Eh
 * total energy  :   -49.2628588 Eh     change       -0.7888137E-04 Eh
 * total energy  :   -49.2629478 Eh     change       -0.8901601E-04 Eh
 * total energy  :   -49.2629931 Eh     change       -0.4527204E-04 Eh
 * total energy  :   -49.2630938 Eh     change       -0.1007580E-03 Eh
 * total energy  :   -49.2632133 Eh     change       -0.1194526E-03 Eh
 * total energy  :   -49.2639529 Eh     change       -0.1040041E-04 Eh
 * total energy  :   -49.2639626 Eh     change       -0.9704593E-05 Eh
 * total energy  :   -49.2639798 Eh     change       -0.1714580E-04 Eh
 * total energy  :   -49.2639899 Eh     change       -0.1011397E-04 Eh
 * total energy  :   -49.2639966 Eh     change       -0.6706776E-05 Eh
 * total energy  :   -49.2640051 Eh     change       -0.8516076E-05 Eh
 * total energy  :   -49.2640159 Eh     change       -0.1071944E-04 Eh
 * total energy  :   -49.2640259 Eh     change       -0.1000558E-04 Eh
 * total energy  :   -49.2640308 Eh     change       -0.4944360E-05 Eh
   *** GEOMETRY OPTIMIZATION CONVERGED AFTER 34 ITERATIONS ***

 final structure:
================
31
 xtb: 6.7.1 (edcfbbe)
C            0.42206914492877       -0.09631929721325        0.48555840499132
N            0.36371775331899       -1.31807991150547       -0.27053465885137
C            0.14003418910629       -1.40810988525033       -1.61117955862782
C            0.18726499658393       -2.72821252545377       -1.94242906171173
N            0.43192173906502       -3.42477367795523       -0.79851821976929
C            0.54385687852271       -2.54864507267616        0.19840297768056
C            0.69213996766831       -4.84115580228354       -0.70495787201581
C            2.19296114507745       -5.11840888657453       -0.92360838695231
C            3.01331968318015       -4.35380747653654        0.07680617598946
C            3.24151539181303       -4.87343536618627        1.34796985284846
C            3.92814312511153       -4.13713697355010        2.29509604935185
C            4.36989857330061       -2.86260225815624        1.96810297191462
C            4.16897903617598       -2.33329880483453        0.70144426559954
C            3.49265096981204       -3.08479543320178       -0.24040802960909
N            5.03976601834806       -2.05513499832079        2.97126980839995
O            5.43148585178398       -2.61627678558923        3.96415358075118
O            5.12882846003423       -0.87042100103720        2.73961265190566
H            0.44014635733276       -0.31771192849602        1.55033729963840
H           -0.44668038545047        0.52295332739326        0.26266834310805
H            1.32222134535955        0.46379699380560        0.22652157198195
H           -0.03675314847123       -0.54884508162676       -2.22574857101124
H            0.05626042536369       -3.20473802660836       -2.89274437008972
H            0.73111446155050       -2.80006215040227        1.22412449667032
H            0.39032156250628       -5.18717116363507        0.28537678018907
H            0.10085247404287       -5.35962424982314       -1.46121091049088
H            2.35654734267340       -6.18974979427754       -0.81284752749786
H            2.47142551058498       -4.83024743635261       -1.93800573092361
H            2.88980705015883       -5.86369613301983        1.59353410147173
H            4.12336662967485       -4.52739163291366        3.28208971755663
H            4.55065518933855       -1.34997178824562        0.47373055645111
H            3.35570226150252       -2.69119677946481       -1.23734670895054

          :  Hamiltonian                  GFN2-xTB          :
         :: total energy             -49.264030802265 Eh    ::
         :: gradient norm              0.000432497042 Eh/a0 ::
         :: HOMO-LUMO gap              3.029105671677 eV    ::
         :: SCC energy               -49.956810622726 Eh    ::
         :: -> dispersion             -0.030625974655 Eh    ::
         :: repulsion energy           0.692779820461 Eh    ::

    * Orbital Energies and Occupations

         #    Occupation            Energy/Eh            Energy/eV
      -------------------------------------------------------------
         1        2.0000           -0.9076097             -24.6973
       ...           ...                  ...                  ...
        32        2.0000           -0.6321140             -17.2007
        33        2.0000           -0.6254924             -17.0205
        34        2.0000           -0.6212838             -16.9060
        35        2.0000           -0.6107590             -16.6196
        36        2.0000           -0.6068356             -16.5128
        37        2.0000           -0.5984704             -16.2852
        38        2.0000           -0.5870265             -15.9738
        39        2.0000           -0.5657708             -15.3954
        40        2.0000           -0.5644085             -15.3583
        41        2.0000           -0.5542383             -15.0816
        42        2.0000           -0.5534112             -15.0591
        43        2.0000           -0.5446973             -14.8220
        44        2.0000           -0.5326723             -14.4947 (HOMO)
        45                         -0.4213547             -11.4656 (LUMO)
        46                         -0.4153830             -11.3031
        47                         -0.3820687             -10.3966
        48                         -0.3712966             -10.1035
        49                         -0.3500460              -9.5252
        50                         -0.2387551              -6.4969
        51                         -0.1941525              -5.2832
        52                         -0.1394037              -3.7934
        53                         -0.1160998              -3.1592
        54                         -0.0688897              -1.8746
        55                         -0.0660851              -1.7983
       ...                                ...                  ...
        82                          0.5041037              13.7174
      -------------------------------------------------------------
                  HL-Gap            0.1113176 Eh            3.0291 eV

     #   Z          covCN         q      C6AA      α(0)
     1   6 C        3.692    -0.089    22.393     6.771
     2   7 N        2.866     0.081    19.837     6.615
     3   6 C        3.073    -0.009    28.154     8.700
     4   6 C        3.071    -0.006    28.088     8.690
     5   7 N        2.869     0.068    20.048     6.650
     6   6 C        3.099     0.045    26.867     8.494
     7   6 C        3.744    -0.027    21.121     6.556
     8   6 C        3.809    -0.079    21.999     6.676
     9   6 C        2.971     0.014    27.685     8.631
    10   6 C        2.924    -0.034    28.855     8.809
    11   6 C        2.916    -0.020    28.500     8.754
    12   6 C        2.918     0.004    27.925     8.666
    13   6 C        2.917    -0.026    28.654     8.778
    14   6 C        2.925    -0.042    29.046     8.838
    15   7 N        2.759     0.550    13.477     5.452
    16   8 O        0.930    -0.356    20.789     6.115
    17   8 O        0.930    -0.376    21.171     6.171
    18   1 H        0.925     0.101     1.773     2.082
    19   1 H        0.925     0.111     1.685     2.030
    20   1 H        0.924     0.111     1.685     2.030
    21   1 H        0.926     0.114     1.662     2.016
    22   1 H        0.926     0.112     1.682     2.028
    23   1 H        0.926     0.110     1.696     2.037
    24   1 H        0.924     0.089     1.886     2.148
    25   1 H        0.924     0.098     1.801     2.098
    26   1 H        0.925     0.089     1.886     2.148
    27   1 H        0.924     0.071     2.070     2.250
    28   1 H        0.926     0.066     2.134     2.284
    29   1 H        0.926     0.095     1.829     2.115
    30   1 H        0.926     0.086     1.923     2.168
    31   1 H        0.926     0.045     2.382     2.413

Wiberg/Mayer (AO) data.
largest (>0.10) Wiberg bond orders for each atom

     #   Z sym  total        # sym  WBO       # sym  WBO       # sym  WBO
 ---------------------------------------------------------------------------
     1   6 C    3.930 --     2 N    0.990    18 H    0.975    19 H    0.964
                            20 H    0.958
     2   7 N    3.724 --     6 C    1.365     3 C    1.226     1 C    0.990
     3   6 C    3.947 --     4 C    1.593     2 N    1.226    21 H    0.960
     4   6 C    3.948 --     3 C    1.593     5 N    1.227    22 H    0.960
     5   7 N    3.714 --     6 C    1.353     4 C    1.227     7 C    0.974
     6   6 C    3.949 --     2 N    1.365     5 N    1.353    23 H    0.954
     7   6 C    3.938 --     5 N    0.974     8 C    0.966    24 H    0.965
                            25 H    0.963
     8   6 C    3.983 --     9 C    1.015    27 H    0.970     7 C    0.966
                            26 H    0.960
     9   6 C    3.989 --    10 C    1.406    14 C    1.402     8 C    1.015
    10   6 C    3.989 --    11 C    1.453     9 C    1.406    28 H    0.966
                            13 C    0.108
    11   6 C    3.982 --    10 C    1.453    12 C    1.391    29 H    0.958
                            14 C    0.105
    12   6 C    3.968 --    13 C    1.393    11 C    1.391    15 N    0.944
    13   6 C    3.985 --    14 C    1.451    12 C    1.393    30 H    0.960
                            10 C    0.108
    14   6 C    3.991 --    13 C    1.451     9 C    1.402    31 H    0.968
                            11 C    0.105
    15   7 N    3.913 --    16 O    1.475    17 O    1.455    12 C    0.944
    16   8 O    1.966 --    15 N    1.475    17 O    0.378
    17   8 O    1.945 --    15 N    1.455    16 O    0.378
    18   1 H    0.989 --     1 C    0.975
    19   1 H    0.987 --     1 C    0.964
    20   1 H    0.987 --     1 C    0.958
    21   1 H    0.987 --     3 C    0.960
    22   1 H    0.987 --     4 C    0.960
    23   1 H    0.988 --     6 C    0.954
    24   1 H    0.992 --     7 C    0.965
    25   1 H    0.989 --     7 C    0.963
    26   1 H    0.991 --     8 C    0.960
    27   1 H    0.994 --     8 C    0.970
    28   1 H    0.995 --    10 C    0.966
    29   1 H    0.991 --    11 C    0.958
    30   1 H    0.992 --    13 C    0.960
    31   1 H    0.997 --    14 C    0.968
 ---------------------------------------------------------------------------

molecular dipole:
                 x           y           z       tot (Debye)
 q only:        0.305      -5.643      -1.982
   full:        0.302      -5.713      -1.990      15.397

           -------------------------------------------------
          | TOTAL ENERGY              -49.264030802265 Eh   |
          | GRADIENT NORM               0.000432497042 Eh/α |
          | HOMO-LUMO GAP               3.029105671677 eV   |
           -------------------------------------------------

 * finished run on 2024/12/20 at 06:53:21.089
