   * xtb version 6.7.1 (edcfbbe) compiled by 'conda@3ef47c1a292c' on 2024-11-25

   ID    Z sym.   atoms
    1    6 C      1-4, 6-13
    2   16 S      5
    3    1 H      14-40

          program call               : xtb C0689.xyz --opt --namespace C0689 --charge +1
          :  Hamiltonian                  GFN2-xTB          :
 * total energy  :   -42.2867261 Eh     change       -0.1979572E-10 Eh
 * total energy  :   -42.2906683 Eh     change       -0.3942203E-02 Eh
 * total energy  :   -42.2916352 Eh     change       -0.9669217E-03 Eh
 * total energy  :   -42.2920047 Eh     change       -0.3694633E-03 Eh
 * total energy  :   -42.2922395 Eh     change       -0.2347874E-03 Eh
 * total energy  :   -42.2924440 Eh     change       -0.2044935E-03 Eh
 * total energy  :   -42.2927112 Eh     change       -0.2671991E-03 Eh
 * total energy  :   -42.2930738 Eh     change       -0.3626743E-03 Eh
 * total energy  :   -42.2934834 Eh     change       -0.4095959E-03 Eh
 * total energy  :   -42.2938745 Eh     change       -0.3910365E-03 Eh
 * total energy  :   -42.2977488 Eh     change       -0.1018383E-04 Eh
 * total energy  :   -42.2977585 Eh     change       -0.9674000E-05 Eh
 * total energy  :   -42.2977676 Eh     change       -0.9153903E-05 Eh
 * total energy  :   -42.2977767 Eh     change       -0.9112193E-05 Eh
 * total energy  :   -42.2977856 Eh     change       -0.8812660E-05 Eh
 * total energy  :   -42.2977941 Eh     change       -0.8563873E-05 Eh
 * total energy  :   -42.2978020 Eh     change       -0.7853706E-05 Eh
 * total energy  :   -42.2978094 Eh     change       -0.7439778E-05 Eh
 * total energy  :   -42.2978140 Eh     change       -0.4551463E-05 Eh
   *** GEOMETRY OPTIMIZATION CONVERGED AFTER 94 ITERATIONS ***

 final structure:
================
40
 xtb: 6.7.1 (edcfbbe)
C            2.38645462267300        1.82864641232864        1.73749782578857
C            1.66801963769520        2.97222600233867        1.02988600932305
C            1.51352927373584        2.75111790380897       -0.47571256694066
C            0.61380094036624        1.57239439099661       -0.81935460162551
S           -1.10014253856973        1.93414995548589       -0.26225722215699
C           -2.07999927226513        2.28474384202320       -1.78054013830579
C           -1.57201670020884        1.75139492827912       -3.10921358066360
C           -2.66119339558144        1.86332988337981       -4.18548212935544
C           -3.05401919102084        3.30003265963838       -4.50442811214136
C           -1.75883524554450        0.32313078971365        0.33153275959177
C           -2.01471565300206       -0.80370904178155       -0.65694386169174
C           -0.78090917614040       -1.54870811632163       -1.17257206096031
C            0.02715877152410       -2.22029293181576       -0.06808913982253
H            1.79836428660120        0.91332730261070        1.74165386289108
H            2.57817225401259        2.09752967436856        2.77204373966390
H            3.34147591069941        1.62340580888376        1.26053929780481
H            0.68510263888323        3.12739958744606        1.48248194325378
H            2.24230170285266        3.88688486941941        1.17774493467030
H            1.12455377191233        3.65942969617630       -0.93983032870200
H            2.49560378568386        2.55423222609101       -0.91072923525874
H            0.60532367957885        1.37780848223368       -1.88757047187986
H            0.93302942816173        0.68249518695003       -0.28320442579958
H           -3.07379608697583        1.89703249629021       -1.55521882523348
H           -2.13571512283048        3.37273487170930       -1.80490154179088
H           -0.70372827487948        2.32538733396894       -3.43795259331995
H           -1.28892288341655        0.70106120333999       -3.02700553908125
H           -2.27656319325833        1.39225040951256       -5.09114415997198
H           -3.54370876818617        1.30147472420471       -3.87301106416751
H           -2.17832458413229        3.89064477426006       -4.76248549852713
H           -3.73000129205483        3.31322750790070       -5.35434693099004
H           -3.56277174926079        3.77350921363069       -3.66867198239818
H           -1.06462197797095        0.01639393505995        1.11285383441462
H           -2.69485917571896        0.61320137222604        0.81171813552003
H           -2.63932755552969       -1.52524430289457       -0.12348412078456
H           -2.60644114229692       -0.44181781093385       -1.49880507638432
H           -1.13644044053169       -2.32236170374505       -1.85506428205321
H           -0.13485429509713       -0.88768855747293       -1.75236493241831
H           -0.60832604992609       -2.87137069113370        0.52630183363822
H            0.81525440180889       -2.82663829090957       -0.50516671333057
H            0.49776865819765       -1.50079599724176        0.59914695919682

          :  Hamiltonian                  GFN2-xTB          :
         :: total energy             -42.297813968179 Eh    ::
         :: gradient norm              0.000192556713 Eh/a0 ::
         :: HOMO-LUMO gap              4.663164912715 eV    ::
         :: SCC energy               -42.898648004740 Eh    ::
         :: -> dispersion             -0.031513592482 Eh    ::
         :: repulsion energy           0.600834036560 Eh    ::

    * Orbital Energies and Occupations

         #    Occupation            Energy/Eh            Energy/eV
      -------------------------------------------------------------
         1        2.0000           -0.9185499             -24.9950
       ...           ...                  ...                  ...
        28        2.0000           -0.6011606             -16.3584
        29        2.0000           -0.5941092             -16.1665
        30        2.0000           -0.5873437             -15.9824
        31        2.0000           -0.5869268             -15.9711
        32        2.0000           -0.5732218             -15.5982
        33        2.0000           -0.5669660             -15.4279
        34        2.0000           -0.5637883             -15.3415
        35        2.0000           -0.5636313             -15.3372
        36        2.0000           -0.5584074             -15.1950
        37        2.0000           -0.5549258             -15.1003
        38        2.0000           -0.5535347             -15.0624
        39        2.0000           -0.5491712             -14.9437
        40        2.0000           -0.5478295             -14.9072 (HOMO)
        41                         -0.3764614             -10.2440 (LUMO)
        42                         -0.3692960             -10.0491
        43                         -0.3067492              -8.3471
        44                         -0.1883160              -5.1243
        45                         -0.1725969              -4.6966
        46                         -0.1412249              -3.8429
        47                         -0.0658357              -1.7915
        48                         -0.0626589              -1.7050
        49                         -0.0527582              -1.4356
        50                         -0.0421189              -1.1461
        51                         -0.0301196              -0.8196
       ...                                ...                  ...
        84                          0.2361031               6.4247
      -------------------------------------------------------------
                  HL-Gap            0.1713682 Eh            4.6632 eV

     #   Z          covCN         q      C6AA      α(0)
     1   6 C        3.751    -0.113    22.714     6.797
     2   6 C        3.800    -0.066    21.775     6.644
     3   6 C        3.840    -0.073    21.860     6.651
     4   6 C        3.794    -0.059    21.645     6.625
     5  16 S        2.958     0.269   130.564    19.232
     6   6 C        3.795    -0.060    21.667     6.628
     7   6 C        3.808    -0.064    21.720     6.634
     8   6 C        3.801    -0.059    21.637     6.623
     9   6 C        3.751    -0.116    22.782     6.807
    10   6 C        3.792    -0.063    21.711     6.636
    11   6 C        3.806    -0.069    21.814     6.649
    12   6 C        3.799    -0.062    21.700     6.633
    13   6 C        3.751    -0.113    22.718     6.797
    14   1 H        0.925     0.028     2.621     2.532
    15   1 H        0.925     0.057     2.230     2.335
    16   1 H        0.925     0.051     2.302     2.373
    17   1 H        0.924     0.038     2.478     2.462
    18   1 H        0.925     0.063     2.165     2.301
    19   1 H        0.924     0.054     2.265     2.354
    20   1 H        0.924     0.078     1.996     2.209
    21   1 H        0.925     0.086     1.920     2.167
    22   1 H        0.925     0.100     1.783     2.088
    23   1 H        0.925     0.091     1.866     2.136
    24   1 H        0.925     0.094     1.837     2.119
    25   1 H        0.924     0.057     2.233     2.337
    26   1 H        0.924     0.051     2.302     2.373
    27   1 H        0.924     0.060     2.198     2.318
    28   1 H        0.924     0.043     2.404     2.425
    29   1 H        0.925     0.047     2.354     2.400
    30   1 H        0.925     0.060     2.203     2.321
    31   1 H        0.925     0.039     2.463     2.454
    32   1 H        0.925     0.098     1.807     2.102
    33   1 H        0.925     0.088     1.895     2.153
    34   1 H        0.924     0.079     1.989     2.205
    35   1 H        0.924     0.056     2.241     2.341
    36   1 H        0.924     0.058     2.217     2.328
    37   1 H        0.924     0.031     2.567     2.505
    38   1 H        0.925     0.052     2.297     2.370
    39   1 H        0.925     0.057     2.235     2.338
    40   1 H        0.925     0.028     2.611     2.527

Wiberg/Mayer (AO) data.
largest (>0.10) Wiberg bond orders for each atom

     #   Z sym  total        # sym  WBO       # sym  WBO       # sym  WBO
 ---------------------------------------------------------------------------
     1   6 C    3.993 --     2 C    1.021    16 H    0.986    14 H    0.984
                            15 H    0.984
     2   6 C    3.993 --     1 C    1.021     3 C    1.007    18 H    0.974
                            17 H    0.972
     3   6 C    3.985 --     4 C    1.009     2 C    1.007    19 H    0.973
                            20 H    0.958
     4   6 C    3.943 --     3 C    1.009    21 H    0.958    22 H    0.952
                             5 S    0.942
     5  16 S    3.048 --    10 C    0.950     6 C    0.943     4 C    0.942
     6   6 C    3.945 --     7 C    1.011    24 H    0.961    23 H    0.955
                             5 S    0.943
     7   6 C    3.987 --     6 C    1.011     8 C    0.987    25 H    0.972
                            26 H    0.968
     8   6 C    3.990 --     9 C    1.021     7 C    0.987    28 H    0.977
                            27 H    0.972
     9   6 C    3.992 --     8 C    1.021    31 H    0.986    29 H    0.986
                            30 H    0.984
    10   6 C    3.947 --    11 C    1.011    33 H    0.959    32 H    0.952
                             5 S    0.950
    11   6 C    3.985 --    10 C    1.011    12 C    1.006    35 H    0.968
                            34 H    0.955
    12   6 C    3.994 --    13 C    1.020    11 C    1.006    36 H    0.973
                            37 H    0.972
    13   6 C    3.993 --    12 C    1.020    38 H    0.986    39 H    0.984
                            40 H    0.982
    14   1 H    0.999 --     1 C    0.984
    15   1 H    0.997 --     1 C    0.984
    16   1 H    0.997 --     1 C    0.986
    17   1 H    0.999 --     2 C    0.972
    18   1 H    0.996 --     2 C    0.974
    19   1 H    0.997 --     3 C    0.973
    20   1 H    0.993 --     3 C    0.958
    21   1 H    0.993 --     4 C    0.958
    22   1 H    0.990 --     4 C    0.952
    23   1 H    0.992 --     6 C    0.955
    24   1 H    0.991 --     6 C    0.961
    25   1 H    0.997 --     7 C    0.972
    26   1 H    0.997 --     7 C    0.968
    27   1 H    0.996 --     8 C    0.972
    28   1 H    0.998 --     8 C    0.977
    29   1 H    0.998 --     9 C    0.986
    30   1 H    0.996 --     9 C    0.984
    31   1 H    0.998 --     9 C    0.986
    32   1 H    0.990 --    10 C    0.952
    33   1 H    0.992 --    10 C    0.959
    34   1 H    0.993 --    11 C    0.955
    35   1 H    0.997 --    11 C    0.968
    36   1 H    0.997 --    12 C    0.973
    37   1 H    0.999 --    12 C    0.972
    38   1 H    0.997 --    13 C    0.986
    39   1 H    0.997 --    13 C    0.984
    40   1 H    0.999 --    13 C    0.982
 ---------------------------------------------------------------------------

molecular dipole:
                 x           y           z       tot (Debye)
 q only:       -1.765       2.578      -1.641
   full:       -1.832       2.435      -1.750       8.932

           -------------------------------------------------
          | TOTAL ENERGY              -42.297813968179 Eh   |
          | GRADIENT NORM               0.000192556713 Eh/α |
          | HOMO-LUMO GAP               4.663164912715 eV   |
           -------------------------------------------------

 * finished run on 2024/12/20 at 06:53:24.126
