   * xtb version 6.7.1 (edcfbbe) compiled by 'conda@3ef47c1a292c' on 2024-11-25

   ID    Z sym.   atoms
    1    6 C      1-6, 8-14
    2    7 N      7
    3    1 H      15-36

          program call               : xtb C0681.xyz --opt --namespace C0681 --charge +1
          :  Hamiltonian                  GFN2-xTB          :
 * total energy  :   -41.6032468 Eh     change       -0.3406058E-09 Eh
 * total energy  :   -41.6059617 Eh     change       -0.2714830E-02 Eh
 * total energy  :   -41.6064425 Eh     change       -0.4808264E-03 Eh
 * total energy  :   -41.6065401 Eh     change       -0.9760287E-04 Eh
 * total energy  :   -41.6066526 Eh     change       -0.1124974E-03 Eh
 * total energy  :   -41.6067142 Eh     change       -0.6163605E-04 Eh
 * total energy  :   -41.6067876 Eh     change       -0.7333437E-04 Eh
 * total energy  :   -41.6068887 Eh     change       -0.1011023E-03 Eh
 * total energy  :   -41.6070245 Eh     change       -0.1358856E-03 Eh
 * total energy  :   -41.6072031 Eh     change       -0.1785119E-03 Eh
 * total energy  :   -41.6092052 Eh     change       -0.1335089E-04 Eh
 * total energy  :   -41.6092181 Eh     change       -0.1288937E-04 Eh
 * total energy  :   -41.6092292 Eh     change       -0.1112305E-04 Eh
 * total energy  :   -41.6092386 Eh     change       -0.9425865E-05 Eh
 * total energy  :   -41.6092496 Eh     change       -0.1104298E-04 Eh
 * total energy  :   -41.6092569 Eh     change       -0.7214398E-05 Eh
 * total energy  :   -41.6092629 Eh     change       -0.5994728E-05 Eh
 * total energy  :   -41.6092704 Eh     change       -0.7495844E-05 Eh
 * total energy  :   -41.6092737 Eh     change       -0.3382721E-05 Eh
   *** GEOMETRY OPTIMIZATION CONVERGED AFTER 48 ITERATIONS ***

 final structure:
================
36
 xtb: 6.7.1 (edcfbbe)
C            1.11081445596783        0.36969163561071        0.48740896730324
C            0.00660295377838        1.41937881712833        0.45735995626091
C            0.39776383138722        2.69078310427615       -0.29976149744718
C            0.78496101913090        2.47476071262977       -1.76579911329165
C           -0.29603452946428        1.82537385241277       -2.62955767056697
C           -1.54460538312781        2.69646892850210       -2.82876626095454
N           -1.22921358019297        3.87018917869879       -3.62398565640875
C           -0.92858322315978        5.02363389515881       -3.02428922407888
C           -0.54991452341775        6.14543586547178       -3.75058980607127
C           -0.24490287621932        7.43120846205539       -3.06574548175801
C           -0.48586733895723        6.02581011364603       -5.13588018330710
C           -0.79930307205924        4.81994083728816       -5.76155466525931
C           -1.16935139487895        3.75538876540469       -4.95433233849385
C           -0.73798060813415        4.68004736819896       -7.24178627464862
H            1.30401384740356       -0.03715839359396       -0.50239465749048
H            0.82257569978000       -0.45313476271550        1.13608715863934
H            2.03320336709586        0.79846798721068        0.87204598225072
H           -0.89992744937382        0.98599174141601        0.02908238463462
H           -0.23165597752383        1.70620064841757        1.48337024742536
H           -0.42630872216752        3.40572122534660       -0.22361437334490
H            1.25597624910626        3.14064696358806        0.20318115737106
H            1.07974029173244        3.43513301952044       -2.20041617388643
H            1.66506011744366        1.83278699489961       -1.79914041441026
H            0.12573636156940        1.58177537678526       -3.60733809283416
H           -0.61646708478546        0.89229470663689       -2.16845275467943
H           -2.31326400258869        2.11952606790033       -3.34661940010289
H           -1.93690017860157        3.01263457082651       -1.86219744635364
H           -0.99816034036034        5.05671755870303       -1.94757290854407
H           -1.09664939779879        8.10541004659599       -3.15804370162560
H           -0.04341475014508        7.28217129826108       -2.00893745916026
H            0.60870700172756        7.92083829150095       -3.52779699626329
H           -0.19326107489849        6.87619212019553       -5.73341667200400
H           -1.42480863102703        2.79560438816312       -5.37779470112201
H            0.26927388392226        4.89190540997754       -7.59673801270973
H           -1.01835774719666        3.68110038005282       -7.56086921896121
H           -1.40420719396643        5.39962282383190       -7.71455469810643

          :  Hamiltonian                  GFN2-xTB          :
         :: total energy             -41.609273734431 Eh    ::
         :: gradient norm              0.000497702006 Eh/a0 ::
         :: HOMO-LUMO gap              2.124007020040 eV    ::
         :: SCC energy               -42.285843303401 Eh    ::
         :: -> dispersion             -0.028510554511 Eh    ::
         :: repulsion energy           0.676569568970 Eh    ::

    * Orbital Energies and Occupations

         #    Occupation            Energy/Eh            Energy/eV
      -------------------------------------------------------------
         1        2.0000           -0.8628989             -23.4807
       ...           ...                  ...                  ...
        27        2.0000           -0.6069652             -16.5164
        28        2.0000           -0.5993526             -16.3092
        29        2.0000           -0.5943499             -16.1731
        30        2.0000           -0.5906754             -16.0731
        31        2.0000           -0.5864753             -15.9588
        32        2.0000           -0.5804403             -15.7946
        33        2.0000           -0.5743284             -15.6283
        34        2.0000           -0.5668883             -15.4258
        35        2.0000           -0.5594262             -15.2228
        36        2.0000           -0.5522338             -15.0270
        37        2.0000           -0.5308615             -14.4455
        38        2.0000           -0.5233832             -14.2420
        39        2.0000           -0.5180113             -14.0958 (HOMO)
        40                         -0.4399555             -11.9718 (LUMO)
        41                         -0.4041554             -10.9976
        42                         -0.2909186              -7.9163
        43                         -0.1592019              -4.3321
        44                         -0.0751792              -2.0457
        45                         -0.0591591              -1.6098
        46                         -0.0449300              -1.2226
        47                         -0.0386307              -1.0512
        48                         -0.0302190              -0.8223
        49                         -0.0095249              -0.2592
        50                         -0.0041178              -0.1121
       ...                                ...                  ...
        78                          0.4433533              12.0643
      -------------------------------------------------------------
                  HL-Gap            0.0780558 Eh            2.1240 eV

     #   Z          covCN         q      C6AA      α(0)
     1   6 C        3.751    -0.109    22.648     6.787
     2   6 C        3.799    -0.057    21.606     6.618
     3   6 C        3.800    -0.062    21.690     6.631
     4   6 C        3.800    -0.066    21.761     6.642
     5   6 C        3.801    -0.068    21.810     6.649
     6   6 C        3.761    -0.032    21.199     6.564
     7   7 N        2.747     0.103    19.470     6.553
     8   6 C        2.898     0.013    27.724     8.633
     9   6 C        2.959     0.043    27.034     8.528
    10   6 C        3.759    -0.131    23.070     6.848
    11   6 C        2.936    -0.020    28.501     8.756
    12   6 C        2.959     0.044    27.013     8.525
    13   6 C        2.901     0.010    27.783     8.642
    14   6 C        3.759    -0.131    23.073     6.848
    15   1 H        0.925     0.035     2.520     2.482
    16   1 H        0.925     0.046     2.367     2.406
    17   1 H        0.925     0.043     2.407     2.426
    18   1 H        0.924     0.029     2.602     2.522
    19   1 H        0.924     0.043     2.409     2.427
    20   1 H        0.924     0.019     2.754     2.595
    21   1 H        0.924     0.048     2.351     2.398
    22   1 H        0.924     0.024     2.674     2.557
    23   1 H        0.925     0.064     2.149     2.292
    24   1 H        0.924     0.049     2.328     2.386
    25   1 H        0.925     0.082     1.962     2.191
    26   1 H        0.924     0.084     1.936     2.176
    27   1 H        0.925     0.092     1.862     2.134
    28   1 H        0.926     0.100     1.789     2.092
    29   1 H        0.925     0.094     1.841     2.122
    30   1 H        0.925     0.076     2.020     2.223
    31   1 H        0.925     0.088     1.901     2.156
    32   1 H        0.926     0.094     1.843     2.123
    33   1 H        0.926     0.097     1.816     2.107
    34   1 H        0.925     0.092     1.859     2.132
    35   1 H        0.925     0.074     2.039     2.233
    36   1 H        0.925     0.092     1.860     2.133

Wiberg/Mayer (AO) data.
largest (>0.10) Wiberg bond orders for each atom

     #   Z sym  total        # sym  WBO       # sym  WBO       # sym  WBO
 ---------------------------------------------------------------------------
     1   6 C    3.995 --     2 C    1.021    17 H    0.987    15 H    0.986
                            16 H    0.986
     2   6 C    3.996 --     1 C    1.021     3 C    1.007    19 H    0.977
                            18 H    0.975
     3   6 C    3.995 --     2 C    1.007     4 C    1.007    21 H    0.975
                            20 H    0.974
     4   6 C    3.993 --     5 C    1.009     3 C    1.007    22 H    0.974
                            23 H    0.968
     5   6 C    3.982 --     4 C    1.009     6 C    0.976    24 H    0.974
                            25 H    0.961
     6   6 C    3.936 --     5 C    0.976     7 N    0.964    26 H    0.963
                            27 H    0.961
     7   7 N    3.763 --     8 C    1.332    13 C    1.322     6 C    0.964
     8   6 C    3.959 --     9 C    1.397     7 N    1.332    28 H    0.953
     9   6 C    3.983 --    11 C    1.401     8 C    1.397    10 C    1.042
    10   6 C    3.984 --     9 C    1.042    30 H    0.978    31 H    0.966
                            29 H    0.947
    11   6 C    3.980 --     9 C    1.401    12 C    1.388    32 H    0.962
    12   6 C    3.982 --    13 C    1.411    11 C    1.388    14 C    1.043
    13   6 C    3.959 --    12 C    1.411     7 N    1.322    33 H    0.955
    14   6 C    3.983 --    12 C    1.043    35 H    0.981    36 H    0.955
                            34 H    0.954
    15   1 H    0.999 --     1 C    0.986
    16   1 H    0.998 --     1 C    0.986
    17   1 H    0.998 --     1 C    0.987
    18   1 H    0.999 --     2 C    0.975
    19   1 H    0.998 --     2 C    0.977
    20   1 H    1.000 --     3 C    0.974
    21   1 H    0.998 --     3 C    0.975
    22   1 H    0.999 --     4 C    0.974
    23   1 H    0.995 --     4 C    0.968
    24   1 H    0.998 --     5 C    0.974
    25   1 H    0.992 --     5 C    0.961
    26   1 H    0.993 --     6 C    0.963
    27   1 H    0.991 --     6 C    0.961
    28   1 H    0.990 --     8 C    0.953
    29   1 H    0.991 --    10 C    0.947
    30   1 H    0.994 --    10 C    0.978
    31   1 H    0.992 --    10 C    0.966
    32   1 H    0.991 --    11 C    0.962
    33   1 H    0.990 --    13 C    0.955
    34   1 H    0.991 --    14 C    0.954
    35   1 H    0.994 --    14 C    0.981
    36   1 H    0.991 --    14 C    0.955
 ---------------------------------------------------------------------------

molecular dipole:
                 x           y           z       tot (Debye)
 q only:       -1.480       8.296      -7.392
   full:       -1.570       8.302      -7.420      28.582

           -------------------------------------------------
          | TOTAL ENERGY              -41.609273734431 Eh   |
          | GRADIENT NORM               0.000497702006 Eh/α |
          | HOMO-LUMO GAP               2.124007020040 eV   |
           -------------------------------------------------

 * finished run on 2024/12/20 at 06:53:13.190
