   * xtb version 6.7.1 (edcfbbe) compiled by 'conda@3ef47c1a292c' on 2024-11-25

   ID    Z sym.   atoms
    1    6 C      1, 2, 5, 6, 8-16
    2    8 O      3, 4
    3    7 N      7
    4    1 H      17-36

          program call               : xtb C0684.xyz --opt --namespace C0684 --charge +1
          :  Hamiltonian                  GFN2-xTB          :
 * total energy  :   -48.6809503 Eh     change       -0.4046896E-09 Eh
 * total energy  :   -48.6898747 Eh     change       -0.8924491E-02 Eh
 * total energy  :   -48.6920503 Eh     change       -0.2175528E-02 Eh
 * total energy  :   -48.6924282 Eh     change       -0.3779383E-03 Eh
 * total energy  :   -48.6927254 Eh     change       -0.2971432E-03 Eh
 * total energy  :   -48.6928744 Eh     change       -0.1490746E-03 Eh
 * total energy  :   -48.6930687 Eh     change       -0.1942812E-03 Eh
 * total energy  :   -48.6931558 Eh     change       -0.8709884E-04 Eh
 * total energy  :   -48.6932030 Eh     change       -0.4720750E-04 Eh
 * total energy  :   -48.6932284 Eh     change       -0.2537926E-04 Eh
 * total energy  :   -48.6942927 Eh     change       -0.4311350E-04 Eh
 * total energy  :   -48.6943201 Eh     change       -0.2745529E-04 Eh
 * total energy  :   -48.6943403 Eh     change       -0.2023406E-04 Eh
 * total energy  :   -48.6943535 Eh     change       -0.1311049E-04 Eh
 * total energy  :   -48.6943684 Eh     change       -0.1494087E-04 Eh
 * total energy  :   -48.6943781 Eh     change       -0.9726148E-05 Eh
 * total energy  :   -48.6943888 Eh     change       -0.1070833E-04 Eh
 * total energy  :   -48.6943961 Eh     change       -0.7243104E-05 Eh
 * total energy  :   -48.6944002 Eh     change       -0.4101545E-05 Eh
   *** GEOMETRY OPTIMIZATION CONVERGED AFTER 40 ITERATIONS ***

 final structure:
================
36
 xtb: 6.7.1 (edcfbbe)
C            1.58413203005238        0.62801773850443        1.17509910336973
C            0.65272627018116        1.12140783984173        0.12350276313671
O           -0.44303705650866        0.69186654347482       -0.12858576881504
O            1.19079267218281        2.14886522538064       -0.57641462311485
C            0.34294523890941        2.85903586846007       -1.46828891124130
C            0.79706538699368        2.74119149179200       -2.92653749687261
N            0.26414188383072        1.59615814695903       -3.72007791687978
C           -1.22230711542991        1.70709899470939       -3.92690930005491
C           -1.65587180564552        2.95196056625007       -4.65623321628156
C           -1.96597949551820        4.11447024220838       -3.95620573422123
C           -2.38008850624559        5.24954831178037       -4.63142008263329
C           -2.49527410034529        5.23496475949449       -6.01152021389773
C           -2.20795370547895        4.07693581303542       -6.71468110779157
C           -1.79262061069607        2.94151228254105       -6.04154613426613
C            0.94559297287460        1.61270029507730       -5.02865032810237
C            0.54766780586789        0.30907280406648       -3.06025004918259
H            1.43749027046276       -0.43662519229271        1.33261869888669
H            1.34843991382721        1.14070482568329        2.10700429270759
H            2.61329311137047        0.85059222497932        0.91169819755594
H           -0.68699885799041        2.52158575142973       -1.31430470082680
H            0.41925562791526        3.91178132995185       -1.18034558967522
H            0.50914075467953        3.65364649861093       -3.45236488899849
H            1.88766508686404        2.67141480990427       -2.92141678788090
H           -1.52955720832579        0.82624847789321       -4.49452946720181
H           -1.70240732969255        1.66014869127422       -2.94840795805021
H           -1.90772072522188        4.12975262041223       -2.87772752949637
H           -2.62244987050476        6.14229253909614       -4.07678589727897
H           -2.82335397319897        6.11825805481420       -6.53574269960848
H           -2.31677661421682        4.05257432093274       -7.78711877505186
H           -1.59572238086467        2.03739084292262       -6.59897201513871
H            2.01659825622208        1.47076817025923       -4.89580163336579
H            0.56496272100467        0.80848413773226       -5.65536112911188
H            0.77235246882269        2.56158299631444       -5.53311033725088
H            1.60551501914828        0.24272075969252       -2.81069616711934
H           -0.04153422144923        0.20360445834581       -2.15016827398778
H            0.29321608613761       -0.51362324152964       -3.72572832225352

          :  Hamiltonian                  GFN2-xTB          :
         :: total energy             -48.694400171773 Eh    ::
         :: gradient norm              0.000555667277 Eh/a0 ::
         :: HOMO-LUMO gap              4.647966334065 eV    ::
         :: SCC energy               -49.382136757727 Eh    ::
         :: -> dispersion             -0.032323788285 Eh    ::
         :: repulsion energy           0.687736585954 Eh    ::

    * Orbital Energies and Occupations

         #    Occupation            Energy/Eh            Energy/eV
      -------------------------------------------------------------
         1        2.0000           -0.8750208             -23.8105
       ...           ...                  ...                  ...
        32        2.0000           -0.6107388             -16.6190
        33        2.0000           -0.6059192             -16.4879
        34        2.0000           -0.6032488             -16.4152
        35        2.0000           -0.6010728             -16.3560
        36        2.0000           -0.6005109             -16.3407
        37        2.0000           -0.5898716             -16.0512
        38        2.0000           -0.5885806             -16.0161
        39        2.0000           -0.5813210             -15.8185
        40        2.0000           -0.5496514             -14.9568
        41        2.0000           -0.5464766             -14.8704
        42        2.0000           -0.5448376             -14.8258
        43        2.0000           -0.5312558             -14.4562
        44        2.0000           -0.5304860             -14.4353 (HOMO)
        45                         -0.3596764              -9.7873 (LUMO)
        46                         -0.3564624              -9.6998
        47                         -0.3488026              -9.4914
        48                         -0.2382031              -6.4818
        49                         -0.2122168              -5.7747
        50                         -0.1590207              -4.3272
        51                         -0.1473178              -4.0087
        52                         -0.1401234              -3.8130
        53                         -0.1293746              -3.5205
        54                         -0.0621299              -1.6906
        55                         -0.0537030              -1.4613
       ...                                ...                  ...
        84                          0.5365969              14.6015
      -------------------------------------------------------------
                  HL-Gap            0.1708096 Eh            4.6480 eV

     #   Z          covCN         q      C6AA      α(0)
     1   6 C        3.754    -0.156    23.585     6.925
     2   6 C        2.709     0.363    20.838     7.472
     3   8 O        0.856    -0.412    21.931     6.279
     4   8 O        1.704    -0.271    18.491     5.806
     5   6 C        3.694     0.063    19.686     6.348
     6   6 C        3.760    -0.046    21.437     6.600
     7   7 N        3.620     0.131    19.000     6.474
     8   6 C        3.764    -0.045    21.428     6.598
     9   6 C        2.967    -0.008    28.225     8.714
    10   6 C        2.923    -0.041    29.013     8.833
    11   6 C        2.918    -0.022    28.559     8.764
    12   6 C        2.920    -0.018    28.455     8.748
    13   6 C        2.918    -0.022    28.551     8.762
    14   6 C        2.923    -0.039    28.959     8.825
    15   6 C        3.727    -0.094    22.403     6.758
    16   6 C        3.720    -0.096    22.457     6.769
    17   1 H        0.925     0.098     1.803     2.100
    18   1 H        0.925     0.109     1.702     2.040
    19   1 H        0.925     0.089     1.890     2.150
    20   1 H        0.924     0.084     1.938     2.177
    21   1 H        0.924     0.089     1.884     2.147
    22   1 H        0.924     0.097     1.813     2.106
    23   1 H        0.924     0.103     1.759     2.074
    24   1 H        0.924     0.089     1.888     2.149
    25   1 H        0.924     0.093     1.853     2.129
    26   1 H        0.926     0.038     2.481     2.463
    27   1 H        0.926     0.059     2.209     2.324
    28   1 H        0.926     0.063     2.160     2.298
    29   1 H        0.926     0.060     2.194     2.316
    30   1 H        0.926     0.043     2.414     2.430
    31   1 H        0.925     0.096     1.824     2.112
    32   1 H        0.925     0.100     1.784     2.089
    33   1 H        0.925     0.100     1.787     2.091
    34   1 H        0.925     0.091     1.869     2.138
    35   1 H        0.925     0.118     1.626     1.994
    36   1 H        0.925     0.093     1.852     2.128

Wiberg/Mayer (AO) data.
largest (>0.10) Wiberg bond orders for each atom

     #   Z sym  total        # sym  WBO       # sym  WBO       # sym  WBO
 ---------------------------------------------------------------------------
     1   6 C    3.984 --     2 C    1.014    19 H    0.973    17 H    0.967
                            18 H    0.936
     2   6 C    3.908 --     3 O    1.745     4 O    1.090     1 C    1.014
     3   8 O    2.046 --     2 C    1.745     4 O    0.160
     4   8 O    2.283 --     2 C    1.090     5 C    0.962     3 O    0.160
     5   6 C    3.936 --     6 C    1.002     4 O    0.962    21 H    0.959
                            20 H    0.952
     6   6 C    3.940 --     5 C    1.002    23 H    0.962    22 H    0.960
                             7 N    0.938
     7   7 N    3.810 --    15 C    0.959    16 C    0.956     6 C    0.938
                             8 C    0.908
     8   6 C    3.924 --     9 C    1.005    24 H    0.964    25 H    0.959
                             7 N    0.908
     9   6 C    3.979 --    14 C    1.407    10 C    1.407     8 C    1.005
                            12 C    0.109
    10   6 C    3.991 --    11 C    1.445     9 C    1.407    26 H    0.967
                            13 C    0.109
    11   6 C    3.990 --    10 C    1.445    12 C    1.438    27 H    0.969
                            14 C    0.109
    12   6 C    3.988 --    11 C    1.438    13 C    1.437    28 H    0.968
                             9 C    0.109
    13   6 C    3.990 --    14 C    1.445    12 C    1.437    29 H    0.968
                            10 C    0.109
    14   6 C    3.991 --    13 C    1.445     9 C    1.407    30 H    0.968
                            11 C    0.109
    15   6 C    3.928 --    31 H    0.975    32 H    0.974    33 H    0.972
                             7 N    0.959
    16   6 C    3.920 --    34 H    0.976    36 H    0.976    35 H    0.959
                             7 N    0.956
    17   1 H    0.990 --     1 C    0.967
    18   1 H    0.988 --     1 C    0.936
    19   1 H    0.992 --     1 C    0.973
    20   1 H    0.993 --     5 C    0.952
    21   1 H    0.992 --     5 C    0.959
    22   1 H    0.990 --     6 C    0.960
    23   1 H    0.989 --     6 C    0.962
    24   1 H    0.992 --     8 C    0.964
    25   1 H    0.991 --     8 C    0.959
    26   1 H    0.999 --    10 C    0.967
    27   1 H    0.996 --    11 C    0.969
    28   1 H    0.995 --    12 C    0.968
    29   1 H    0.996 --    13 C    0.968
    30   1 H    0.998 --    14 C    0.968
    31   1 H    0.991 --    15 C    0.975
    32   1 H    0.990 --    15 C    0.974
    33   1 H    0.990 --    15 C    0.972
    34   1 H    0.991 --    16 C    0.976
    35   1 H    0.986 --    16 C    0.959
    36   1 H    0.991 --    16 C    0.976
 ---------------------------------------------------------------------------

molecular dipole:
                 x           y           z       tot (Debye)
 q only:        0.800       4.032      -6.961
   full:        0.859       4.043      -6.901      20.447

           -------------------------------------------------
          | TOTAL ENERGY              -48.694400171773 Eh   |
          | GRADIENT NORM               0.000555667277 Eh/α |
          | HOMO-LUMO GAP               4.647966334065 eV   |
           -------------------------------------------------

 * finished run on 2024/12/20 at 06:53:20.199
