   * xtb version 6.7.1 (edcfbbe) compiled by 'conda@3ef47c1a292c' on 2024-11-25

   ID    Z sym.   atoms
    1    6 C      1-7, 9-14
    2   15 P      8
    3    1 H      15-44

          program call               : xtb C0680.xyz --opt --namespace C0680 --charge +1
          :  Hamiltonian                  GFN2-xTB          :
 * total energy  :   -45.2689407 Eh     change       -0.2195932E-09 Eh
 * total energy  :   -45.2741854 Eh     change       -0.5244618E-02 Eh
 * total energy  :   -45.2756147 Eh     change       -0.1429289E-02 Eh
 * total energy  :   -45.2757769 Eh     change       -0.1622053E-03 Eh
 * total energy  :   -45.2758562 Eh     change       -0.7930471E-04 Eh
 * total energy  :   -45.2759463 Eh     change       -0.9018750E-04 Eh
 * total energy  :   -45.2760820 Eh     change       -0.1356545E-03 Eh
 * total energy  :   -45.2762793 Eh     change       -0.1972876E-03 Eh
 * total energy  :   -45.2765266 Eh     change       -0.2473181E-03 Eh
 * total energy  :   -45.2768215 Eh     change       -0.2949360E-03 Eh
 * total energy  :   -45.2785142 Eh     change       -0.1542800E-04 Eh
 * total energy  :   -45.2785228 Eh     change       -0.8544068E-05 Eh
 * total energy  :   -45.2785376 Eh     change       -0.1483800E-04 Eh
 * total energy  :   -45.2785539 Eh     change       -0.1625762E-04 Eh
 * total energy  :   -45.2785697 Eh     change       -0.1580508E-04 Eh
 * total energy  :   -45.2785852 Eh     change       -0.1547613E-04 Eh
 * total energy  :   -45.2785979 Eh     change       -0.1269223E-04 Eh
 * total energy  :   -45.2786056 Eh     change       -0.7742263E-05 Eh
 * total energy  :   -45.2786102 Eh     change       -0.4627832E-05 Eh
   *** GEOMETRY OPTIMIZATION CONVERGED AFTER 37 ITERATIONS ***

 final structure:
================
44
 xtb: 6.7.1 (edcfbbe)
C            0.76024573899572        0.11164630808436        1.53336067989918
C            0.10961635826746       -0.78856986115645        0.47874573018942
C            0.64846931955657       -2.22084589131610        0.55784798583028
C            0.50183904575082       -2.88532497983678        1.92844434571822
C           -0.94172205965542       -2.96121927615652        2.42370638361796
C           -1.06865715307329       -3.69044773288172        3.76239390941172
C           -0.48798321770017       -2.90186431271473        4.93136695075341
P            0.31188542969001        1.87446040164224        1.39979305257375
C            1.36894568329585        2.74908261748248        0.19056784043347
C            1.23754144079385        2.26946131304476       -1.25073386689750
C           -1.43213207753530        2.07915021974613        0.89724145740610
C           -2.42467318295384        1.61334389896174        1.95795089577555
C            0.60503274353688        2.73051731445365        2.99569991465770
C            0.38975662059089        1.87289267736453        4.23983368442279
H            1.85144608209036        0.05123231473120        1.46798688996361
H            0.46299205042077       -0.22322370320358        2.52933829470251
H           -0.97087979235509       -0.80667615755102        0.62303013758660
H            0.30325515549625       -0.40478675195826       -0.52416399128883
H            0.11701544955953       -2.81847509089623       -0.18458720541174
H            1.70548233410796       -2.22015103231622        0.28253219158204
H            0.89042573968799       -3.90173997961172        1.84712134917904
H            1.12268499972006       -2.36672305659208        2.66024191455819
H           -1.36163463112693       -1.95839808038142        2.53936447515287
H           -1.53998755610902       -3.48599402073973        1.67616489085534
H           -2.12648461774012       -3.87647020330690        3.95760098595902
H           -0.57100898726284       -4.65880489344726        3.69511434208192
H           -0.95654492515144       -1.92118753692898        5.00524035304050
H           -0.66757255976714       -3.43091341499480        5.86302854794392
H            0.58614424207583       -2.76925209987790        4.82631587227117
H            1.10765405914051        3.81002910279365        0.26290500822503
H            2.40246483361854        2.63643446344374        0.53283451525824
H            0.21021035675613        2.33232971802419       -1.60122617191220
H            1.84811290752322        2.89776663635048       -1.89472974922427
H            1.58766418737109        1.24642454253596       -1.36022131430835
H           -1.57828261541477        3.14123341340223        0.67767522103927
H           -1.57471870396271        1.51995195230760       -0.03107867906518
H           -2.36782929449844        2.23207137587295        2.84998654503627
H           -3.43632973856763        1.68822088279913        1.56654448480041
H           -2.25105338471893        0.57670986339043        2.23806444736540
H            1.63267107519170        3.10453402859943        2.97837120897746
H           -0.06180165003242        3.59818763316441        3.00851606210928
H            1.14949313589066        1.09973176590808        4.32152836834646
H            0.46552756982831        2.50185459299970        5.12348744266459
H           -0.59136041132671        1.40513103875462        4.24733459871311

          :  Hamiltonian                  GFN2-xTB          :
         :: total energy             -45.278610230935 Eh    ::
         :: gradient norm              0.000262218284 Eh/a0 ::
         :: HOMO-LUMO gap              5.874377719233 eV    ::
         :: SCC energy               -45.950304363688 Eh    ::
         :: -> dispersion             -0.035578872036 Eh    ::
         :: repulsion energy           0.671694132753 Eh    ::

    * Orbital Energies and Occupations

         #    Occupation            Energy/Eh            Energy/eV
      -------------------------------------------------------------
         1        2.0000           -0.8516755             -23.1753
       ...           ...                  ...                  ...
        31        2.0000           -0.5895507             -16.0425
        32        2.0000           -0.5842765             -15.8990
        33        2.0000           -0.5812103             -15.8155
        34        2.0000           -0.5760016             -15.6738
        35        2.0000           -0.5752406             -15.6531
        36        2.0000           -0.5697169             -15.5028
        37        2.0000           -0.5665029             -15.4153
        38        2.0000           -0.5493604             -14.9489
        39        2.0000           -0.5441091             -14.8060
        40        2.0000           -0.5359503             -14.5840
        41        2.0000           -0.5189328             -14.1209
        42        2.0000           -0.5169889             -14.0680
        43        2.0000           -0.5088042             -13.8453 (HOMO)
        44                         -0.2929248              -7.9709 (LUMO)
        45                         -0.2855227              -7.7695
        46                         -0.2735627              -7.4440
        47                         -0.1959291              -5.3315
        48                         -0.1134120              -3.0861
        49                         -0.0749761              -2.0402
        50                         -0.0440213              -1.1979
        51                         -0.0384216              -1.0455
        52                         -0.0344358              -0.9370
        53                         -0.0272739              -0.7422
        54                         -0.0242508              -0.6599
       ...                                ...                  ...
        91                          0.7513167              20.4444
      -------------------------------------------------------------
                  HL-Gap            0.2158794 Eh            5.8744 eV

     #   Z          covCN         q      C6AA      α(0)
     1   6 C        3.751    -0.072    21.940     6.680
     2   6 C        3.856    -0.062    21.643     6.617
     3   6 C        3.801    -0.066    21.756     6.641
     4   6 C        3.801    -0.066    21.768     6.643
     5   6 C        3.801    -0.059    21.639     6.623
     6   6 C        3.800    -0.058    21.625     6.621
     7   6 C        3.751    -0.104    22.541     6.771
     8  15 P        3.953     0.181   152.435    22.178
     9   6 C        3.749    -0.073    21.963     6.684
    10   6 C        3.802    -0.116    22.716     6.786
    11   6 C        3.749    -0.068    21.871     6.670
    12   6 C        3.817    -0.114    22.666     6.776
    13   6 C        3.749    -0.073    21.964     6.684
    14   6 C        3.799    -0.117    22.737     6.789
    15   1 H        0.927     0.092     1.861     2.133
    16   1 H        0.927     0.105     1.742     2.064
    17   1 H        0.924     0.057     2.238     2.340
    18   1 H        0.924     0.049     2.336     2.390
    19   1 H        0.924     0.054     2.268     2.355
    20   1 H        0.924     0.042     2.425     2.435
    21   1 H        0.924     0.050     2.321     2.382
    22   1 H        0.924     0.032     2.551     2.498
    23   1 H        0.924     0.018     2.762     2.599
    24   1 H        0.924     0.037     2.485     2.465
    25   1 H        0.924     0.039     2.463     2.454
    26   1 H        0.924     0.041     2.435     2.440
    27   1 H        0.925     0.025     2.665     2.553
    28   1 H        0.925     0.045     2.387     2.416
    29   1 H        0.925     0.032     2.561     2.503
    30   1 H        0.927     0.089     1.884     2.147
    31   1 H        0.927     0.090     1.879     2.143
    32   1 H        0.925     0.060     2.194     2.316
    33   1 H        0.925     0.078     2.005     2.214
    34   1 H        0.925     0.064     2.150     2.293
    35   1 H        0.927     0.090     1.879     2.144
    36   1 H        0.927     0.094     1.841     2.122
    37   1 H        0.925     0.064     2.154     2.295
    38   1 H        0.925     0.076     2.023     2.224
    39   1 H        0.925     0.061     2.188     2.313
    40   1 H        0.926     0.088     1.894     2.152
    41   1 H        0.927     0.091     1.867     2.137
    42   1 H        0.925     0.063     2.161     2.299
    43   1 H        0.925     0.077     2.011     2.218
    44   1 H        0.925     0.064     2.155     2.295

Wiberg/Mayer (AO) data.
largest (>0.10) Wiberg bond orders for each atom

     #   Z sym  total        # sym  WBO       # sym  WBO       # sym  WBO
 ---------------------------------------------------------------------------
     1   6 C    3.983 --     8 P    1.011     2 C    0.983    15 H    0.931
                            16 H    0.925
     2   6 C    3.988 --     3 C    1.000     1 C    0.983    17 H    0.968
                            18 H    0.967
     3   6 C    3.990 --     4 C    1.007     2 C    1.000    20 H    0.977
                            19 H    0.973
     4   6 C    3.995 --     5 C    1.009     3 C    1.007    21 H    0.974
                            22 H    0.972
     5   6 C    3.998 --     4 C    1.009     6 C    1.006    24 H    0.977
                            23 H    0.973
     6   6 C    3.996 --     7 C    1.020     5 C    1.006    25 H    0.978
                            26 H    0.977
     7   6 C    3.997 --     6 C    1.020    27 H    0.988    28 H    0.986
                            29 H    0.986
     8  15 P    4.558 --     1 C    1.011     9 C    1.011    11 C    1.009
                            13 C    1.004
     9   6 C    3.990 --     8 P    1.011    10 C    1.003    31 H    0.936
                            30 H    0.934
    10   6 C    3.983 --     9 C    1.003    32 H    0.980    34 H    0.978
                            33 H    0.977
    11   6 C    3.989 --     8 P    1.009    12 C    1.001    35 H    0.935
                            36 H    0.933
    12   6 C    3.986 --    11 C    1.001    37 H    0.979    38 H    0.978
                            39 H    0.977
    13   6 C    3.987 --     8 P    1.004    14 C    1.003    40 H    0.939
                            41 H    0.935
    14   6 C    3.983 --    13 C    1.003    42 H    0.980    44 H    0.977
                            43 H    0.977
    15   1 H    0.992 --     1 C    0.931
    16   1 H    0.989 --     1 C    0.925
    17   1 H    0.997 --     2 C    0.968
    18   1 H    0.997 --     2 C    0.967
    19   1 H    0.996 --     3 C    0.973
    20   1 H    0.998 --     3 C    0.977
    21   1 H    0.997 --     4 C    0.974
    22   1 H    0.999 --     4 C    0.972
    23   1 H    1.000 --     5 C    0.973
    24   1 H    0.999 --     5 C    0.977
    25   1 H    0.998 --     6 C    0.978
    26   1 H    0.998 --     6 C    0.977
    27   1 H    0.999 --     7 C    0.988
    28   1 H    0.998 --     7 C    0.986
    29   1 H    0.999 --     7 C    0.986
    30   1 H    0.992 --     9 C    0.934
    31   1 H    0.991 --     9 C    0.936
    32   1 H    0.996 --    10 C    0.980
    33   1 H    0.993 --    10 C    0.977
    34   1 H    0.996 --    10 C    0.978
    35   1 H    0.992 --    11 C    0.935
    36   1 H    0.991 --    11 C    0.933
    37   1 H    0.996 --    12 C    0.979
    38   1 H    0.994 --    12 C    0.978
    39   1 H    0.996 --    12 C    0.977
    40   1 H    0.992 --    13 C    0.939
    41   1 H    0.991 --    13 C    0.935
    42   1 H    0.996 --    14 C    0.980
    43   1 H    0.994 --    14 C    0.977
    44   1 H    0.996 --    14 C    0.977
 ---------------------------------------------------------------------------

molecular dipole:
                 x           y           z       tot (Debye)
 q only:        0.353       2.854       2.762
   full:        0.427       3.018       2.734      10.408

           -------------------------------------------------
          | TOTAL ENERGY              -45.278610230935 Eh   |
          | GRADIENT NORM               0.000262218284 Eh/α |
          | HOMO-LUMO GAP               5.874377719233 eV   |
           -------------------------------------------------

 * finished run on 2024/12/20 at 06:53:11.925
