   * xtb version 6.7.1 (edcfbbe) compiled by 'conda@3ef47c1a292c' on 2024-11-25

   ID    Z sym.   atoms
    1    6 C      1, 3, 5, 7-11
    2    8 O      2, 4
    3    7 N      6
    4    1 H      12-21

          program call               : xtb C0688.xyz --opt --namespace C0688 --charge +1
          :  Hamiltonian                  GFN2-xTB          :
 * total energy  :   -32.8624817 Eh     change       -0.1676739E-09 Eh
 * total energy  :   -32.8672405 Eh     change       -0.4758773E-02 Eh
 * total energy  :   -32.8682858 Eh     change       -0.1045300E-02 Eh
 * total energy  :   -32.8685638 Eh     change       -0.2779720E-03 Eh
 * total energy  :   -32.8687488 Eh     change       -0.1849984E-03 Eh
 * total energy  :   -32.8688597 Eh     change       -0.1109894E-03 Eh
 * total energy  :   -32.8690713 Eh     change       -0.2115856E-03 Eh
 * total energy  :   -32.8693194 Eh     change       -0.2480871E-03 Eh
 * total energy  :   -32.8697167 Eh     change       -0.3973012E-03 Eh
 * total energy  :   -32.8700020 Eh     change       -0.2852915E-03 Eh
 * total energy  :   -32.8734914 Eh     change       -0.2556786E-04 Eh
 * total energy  :   -32.8735053 Eh     change       -0.1397237E-04 Eh
 * total energy  :   -32.8735213 Eh     change       -0.1597835E-04 Eh
 * total energy  :   -32.8735329 Eh     change       -0.1157499E-04 Eh
 * total energy  :   -32.8735429 Eh     change       -0.9955754E-05 Eh
 * total energy  :   -32.8735511 Eh     change       -0.8235107E-05 Eh
 * total energy  :   -32.8735573 Eh     change       -0.6241142E-05 Eh
 * total energy  :   -32.8735623 Eh     change       -0.5009957E-05 Eh
 * total energy  :   -32.8735663 Eh     change       -0.3984734E-05 Eh
   *** GEOMETRY OPTIMIZATION CONVERGED AFTER 36 ITERATIONS ***

 final structure:
================
21
 xtb: 6.7.1 (edcfbbe)
C            0.47794142515425        0.58340863502040       -0.14788413665858
O            0.18244083254271       -0.21518391217041       -1.30214908602261
C            0.92200404110708       -1.26038323846845       -1.54889720269883
O            1.84611898256973       -1.69288011818417       -0.91954728559549
C            0.44618534452270       -1.95475115229282       -2.86186114641075
N            0.90558394206338       -3.31913982450291       -2.84050711007259
C            2.22635817914818       -3.54400905473949       -2.86907142044729
C            2.73175726297863       -4.81870146245650       -2.70670349381501
C            1.85707620183534       -5.87823043603858       -2.51234011071201
C            0.49005410454720       -5.62249105203569       -2.49475767668523
C            0.04450423038566       -4.32835276649774       -2.65059695922717
H           -0.43436419325386        0.65426863911813        0.44200124008797
H            0.77412646620455        1.57375078730419       -0.49088202345503
H            1.27788015659111        0.12771559672913        0.43538050429481
H           -0.63982143357273       -1.89494584561784       -2.93403692337369
H            0.88860565180497       -1.40696108192163       -3.69890485803028
H            2.87548841057732       -2.69635215745588       -3.02588566490367
H            3.79860675434717       -4.97321044789406       -2.72850750302283
H            2.22870327279563       -6.88194806611204       -2.37758723738935
H           -0.22343055719252       -6.41796543792003       -2.35022094230877
H           -1.00804907515738       -4.08694760386196       -2.62586096355511

          :  Hamiltonian                  GFN2-xTB          :
         :: total energy             -32.873566329304 Eh    ::
         :: gradient norm              0.000259314664 Eh/a0 ::
         :: HOMO-LUMO gap              3.265213133202 eV    ::
         :: SCC energy               -33.325610558860 Eh    ::
         :: -> dispersion             -0.015354378631 Eh    ::
         :: repulsion energy           0.452044229556 Eh    ::

    * Orbital Energies and Occupations

         #    Occupation            Energy/Eh            Energy/eV
      -------------------------------------------------------------
         1        2.0000           -0.9023292             -24.5536
       ...           ...                  ...                  ...
        17        2.0000           -0.6897018             -18.7677
        18        2.0000           -0.6819318             -18.5563
        19        2.0000           -0.6815099             -18.5448
        20        2.0000           -0.6658876             -18.1197
        21        2.0000           -0.6541234             -17.7996
        22        2.0000           -0.6506790             -17.7059
        23        2.0000           -0.6305603             -17.1584
        24        2.0000           -0.6242256             -16.9860
        25        2.0000           -0.6234146             -16.9640
        26        2.0000           -0.6162624             -16.7694
        27        2.0000           -0.6027367             -16.4013
        28        2.0000           -0.5834372             -15.8761
        29        2.0000           -0.5814573             -15.8223 (HOMO)
        30                         -0.4614629             -12.5570 (LUMO)
        31                         -0.4288226             -11.6689
        32                         -0.3827343             -10.4147
        33                         -0.3092571              -8.4153
        34                         -0.1809189              -4.9231
        35                         -0.1447866              -3.9398
        36                         -0.0814060              -2.2152
        37                         -0.0506424              -1.3780
        38                         -0.0386428              -1.0515
        39                         -0.0278747              -0.7585
        40                         -0.0146681              -0.3991
       ...                                ...                  ...
        54                          0.5255489              14.3009
      -------------------------------------------------------------
                  HL-Gap            0.1199944 Eh            3.2652 eV

     #   Z          covCN         q      C6AA      α(0)
     1   6 C        3.649     0.008    20.760     6.545
     2   8 O        1.704    -0.214    17.563     5.658
     3   6 C        2.714     0.363    20.838     7.472
     4   8 O        0.856    -0.382    21.333     6.193
     5   6 C        3.763    -0.069    21.858     6.664
     6   7 N        2.752     0.121    19.172     6.503
     7   6 C        2.895     0.042    27.060     8.529
     8   6 C        2.915    -0.005    28.151     8.700
     9   6 C        2.924     0.016    27.651     8.623
    10   6 C        2.915    -0.008    28.223     8.712
    11   6 C        2.888     0.031    27.298     8.566
    12   1 H        0.925     0.098     1.807     2.102
    13   1 H        0.925     0.097     1.812     2.105
    14   1 H        0.925     0.093     1.849     2.126
    15   1 H        0.925     0.117     1.637     2.001
    16   1 H        0.924     0.123     1.592     1.973
    17   1 H        0.926     0.121     1.602     1.979
    18   1 H        0.926     0.115     1.656     2.012
    19   1 H        0.926     0.112     1.682     2.028
    20   1 H        0.926     0.112     1.679     2.026
    21   1 H        0.926     0.109     1.702     2.040

Wiberg/Mayer (AO) data.
largest (>0.10) Wiberg bond orders for each atom

     #   Z sym  total        # sym  WBO       # sym  WBO       # sym  WBO
 ---------------------------------------------------------------------------
     1   6 C    3.881 --    14 H    0.976    12 H    0.971    13 H    0.970
                             2 O    0.922
     2   8 O    2.380 --     3 C    1.223     1 C    0.922     4 O    0.196
     3   6 C    3.939 --     4 O    1.746     2 O    1.223     5 C    0.896
     4   8 O    2.091 --     3 C    1.746     2 O    0.196
     5   6 C    3.945 --     6 N    0.996    15 H    0.957    16 H    0.939
                             3 C    0.896
     6   7 N    3.766 --     7 C    1.314    11 C    1.310     5 C    0.996
     7   6 C    3.951 --     8 C    1.453     6 N    1.314    17 H    0.953
     8   6 C    3.979 --     7 C    1.453     9 C    1.431    18 H    0.957
     9   6 C    3.967 --     8 C    1.431    10 C    1.410    19 H    0.960
    10   6 C    3.980 --    11 C    1.475     9 C    1.410    20 H    0.958
    11   6 C    3.954 --    10 C    1.475     6 N    1.310    21 H    0.954
    12   1 H    0.990 --     1 C    0.971
    13   1 H    0.990 --     1 C    0.970
    14   1 H    0.991 --     1 C    0.976
    15   1 H    0.986 --     5 C    0.957
    16   1 H    0.985 --     5 C    0.939
    17   1 H    0.985 --     7 C    0.953
    18   1 H    0.986 --     8 C    0.957
    19   1 H    0.987 --     9 C    0.960
    20   1 H    0.987 --    10 C    0.958
    21   1 H    0.988 --    11 C    0.954
 ---------------------------------------------------------------------------

molecular dipole:
                 x           y           z       tot (Debye)
 q only:        1.633      -6.302      -4.815
   full:        1.528      -6.222      -4.911      20.518

           -------------------------------------------------
          | TOTAL ENERGY              -32.873566329304 Eh   |
          | GRADIENT NORM               0.000259314664 Eh/α |
          | HOMO-LUMO GAP               3.265213133202 eV   |
           -------------------------------------------------

 * finished run on 2024/12/20 at 06:53:21.729
