   * xtb version 6.7.1 (edcfbbe) compiled by 'conda@3ef47c1a292c' on 2024-11-25

   ID    Z sym.   atoms
    1    6 C      1, 4
    2    7 N      2, 3
    3    1 H      5-13

          program call               : xtb C0687.xyz --opt --namespace C0687 --charge +1
          :  Hamiltonian                  GFN2-xTB          :
 * total energy  :   -14.2390850 Eh     change       -0.4050804E-10 Eh
 * total energy  :   -14.2419919 Eh     change       -0.2906836E-02 Eh
 * total energy  :   -14.2425501 Eh     change       -0.5582749E-03 Eh
 * total energy  :   -14.2425802 Eh     change       -0.3002483E-04 Eh
 * total energy  :   -14.2425892 Eh     change       -0.9010481E-05 Eh
 * total energy  :   -14.2425915 Eh     change       -0.2335985E-05 Eh
   *** GEOMETRY OPTIMIZATION CONVERGED AFTER 6 ITERATIONS ***

 final structure:
================
13
 xtb: 6.7.1 (edcfbbe)
C            1.01940146241964        0.04447065897242        0.08684435669429
N            0.50901356182797        0.23414638542255        1.45941621860958
N            0.96996407130041        1.48596094208886        1.94194682512626
C           -0.96748362902290        0.23979951440489        1.47813560791067
H            0.70453930527616        0.89007477714601       -0.52291966718702
H            0.62962640034132       -0.87750624511191       -0.33870478823053
H            2.10753234894060       -0.00004717870276        0.08956334796412
H            0.82830472927748       -0.57330767326279        2.02875357912650
H            0.62554787352689        1.69121153986935        2.87429896182145
H            1.98216644363886        1.55784526588363        1.92433985830943
H           -1.35572421131192       -0.68232871180929        1.05151291308335
H           -1.33349331507368        0.33823801167909        2.49909824024110
H           -1.32099504114083        1.08920271341994        0.89543454653081

          :  Hamiltonian                  GFN2-xTB          :
         :: total energy             -14.242591509118 Eh    ::
         :: gradient norm              0.000456038598 Eh/a0 ::
         :: HOMO-LUMO gap              8.867361853796 eV    ::
         :: SCC energy               -14.421133905140 Eh    ::
         :: -> dispersion             -0.004793241186 Eh    ::
         :: repulsion energy           0.178542396022 Eh    ::

    * Orbital Energies and Occupations

         #    Occupation            Energy/Eh            Energy/eV
      -------------------------------------------------------------
         1        2.0000           -0.9146854             -24.8899
         2        2.0000           -0.8645580             -23.5258
         3        2.0000           -0.8571098             -23.3231
         4        2.0000           -0.8250249             -22.4501
         5        2.0000           -0.7742404             -21.0682
         6        2.0000           -0.7525385             -20.4776
         7        2.0000           -0.7476561             -20.3448
         8        2.0000           -0.6973295             -18.9753
         9        2.0000           -0.6845118             -18.6265
        10        2.0000           -0.6734762             -18.3262
        11        2.0000           -0.6717854             -18.2802
        12        2.0000           -0.6692607             -18.2115
        13        2.0000           -0.5962382             -16.2245 (HOMO)
        14                         -0.2703687              -7.3571 (LUMO)
        15                         -0.2090195              -5.6877
        16                         -0.1649005              -4.4872
        17                         -0.1639009              -4.4600
        18                         -0.0716860              -1.9507
        19                         -0.0321581              -0.8751
        20                         -0.0094523              -0.2572
        21                          0.0164244               0.4469
        22                          0.0206786               0.5627
        23                          0.0335490               0.9129
        24                          0.0404323               1.1002
        25                          0.0450112               1.2248
      -------------------------------------------------------------
                  HL-Gap            0.3258696 Eh            8.8674 eV

     #   Z          covCN         q      C6AA      α(0)
     1   6 C        3.703    -0.113    22.833     6.832
     2   7 N        3.647     0.171    18.373     6.366
     3   7 N        2.722    -0.271    27.011     7.719
     4   6 C        3.703    -0.113    22.833     6.832
     5   1 H        0.925     0.132     1.522     1.930
     6   1 H        0.925     0.117     1.638     2.002
     7   1 H        0.925     0.112     1.677     2.025
     8   1 H        0.858     0.205     1.079     1.627
     9   1 H        0.860     0.200     1.107     1.648
    10   1 H        0.860     0.200     1.107     1.648
    11   1 H        0.925     0.117     1.638     2.002
    12   1 H        0.925     0.112     1.677     2.025
    13   1 H        0.925     0.132     1.522     1.930

Wiberg/Mayer (AO) data.
largest (>0.10) Wiberg bond orders for each atom

     #   Z sym  total        # sym  WBO       # sym  WBO       # sym  WBO
 ---------------------------------------------------------------------------
     1   6 C    3.901 --     7 H    0.973     6 H    0.971     5 H    0.970
                             2 N    0.950
     2   7 N    3.817 --     3 N    1.003     1 C    0.950     4 C    0.950
                             8 H    0.914
     3   7 N    2.957 --     2 N    1.003     9 H    0.944    10 H    0.944
     4   6 C    3.901 --    12 H    0.973    11 H    0.971    13 H    0.970
                             2 N    0.950
     5   1 H    0.983 --     1 C    0.970
     6   1 H    0.986 --     1 C    0.971
     7   1 H    0.987 --     1 C    0.973
     8   1 H    0.958 --     2 N    0.914
     9   1 H    0.960 --     3 N    0.944
    10   1 H    0.960 --     3 N    0.944
    11   1 H    0.986 --     4 C    0.971
    12   1 H    0.987 --     4 C    0.973
    13   1 H    0.983 --     4 C    0.970
 ---------------------------------------------------------------------------

molecular dipole:
                 x           y           z       tot (Debye)
 q only:        0.813       0.477       2.540
   full:        1.061       0.189       2.934       7.945

           -------------------------------------------------
          | TOTAL ENERGY              -14.242591509118 Eh   |
          | GRADIENT NORM               0.000456038598 Eh/α |
          | HOMO-LUMO GAP               8.867361853796 eV   |
           -------------------------------------------------

 * finished run on 2024/12/20 at 06:53:21.157
