   * xtb version 6.7.1 (edcfbbe) compiled by 'conda@3ef47c1a292c' on 2024-11-25

   ID    Z sym.   atoms
    1    6 C      1, 3, 4, 6, 7
    2    7 N      2, 5
    3    1 H      8-16

          program call               : xtb C0685.xyz --opt --namespace C0685 --charge +1
          :  Hamiltonian                  GFN2-xTB          :
 * total energy  :   -20.7587642 Eh     change       -0.2074785E-10 Eh
 * total energy  :   -20.7614830 Eh     change       -0.2718810E-02 Eh
 * total energy  :   -20.7620175 Eh     change       -0.5345604E-03 Eh
 * total energy  :   -20.7620886 Eh     change       -0.7104118E-04 Eh
 * total energy  :   -20.7621135 Eh     change       -0.2490912E-04 Eh
 * total energy  :   -20.7621147 Eh     change       -0.1187014E-05 Eh
   *** GEOMETRY OPTIMIZATION CONVERGED AFTER 6 ITERATIONS ***

 final structure:
================
16
 xtb: 6.7.1 (edcfbbe)
C            1.52261970223073       -1.52505491681118       -0.00111342539787
N            0.35480635360342       -0.68170178766686       -0.00018540507571
C           -0.93654264036449       -1.13379540237718       -0.00027727424749
C           -1.75148469877194       -0.04822609730056        0.00064164504840
N           -0.93755366805941        1.04726261598444        0.00122953757700
C            0.34200623200068        0.65333369248745        0.00070428511315
C            1.50652379513061        1.55837739856243        0.00103468344550
H            2.12660924893141       -1.34296722173801       -0.89063480181628
H            2.12974791411605       -1.34059545631996        0.88575291799272
H            1.21022035176672       -2.56657775800750        0.00082985687752
H           -1.17914865349343       -2.17648536565060       -0.00094889931953
H           -2.81950061798733        0.02006418691880        0.00090600203458
H           -1.25025718784823        2.00834085084007        0.00196546858568
H            1.48645518032307        2.20429999142402       -0.87682451876894
H            1.48741983837442        2.20244967566593        0.88028142575203
H            2.43874885004772        1.00268559398871       -0.00009149780077

          :  Hamiltonian                  GFN2-xTB          :
         :: total energy             -20.762114686426 Eh    ::
         :: gradient norm              0.000306739069 Eh/a0 ::
         :: HOMO-LUMO gap              4.700297026168 eV    ::
         :: SCC energy               -21.089375949981 Eh    ::
         :: -> dispersion             -0.009448180321 Eh    ::
         :: repulsion energy           0.327261263555 Eh    ::

    * Orbital Energies and Occupations

         #    Occupation            Energy/Eh            Energy/eV
      -------------------------------------------------------------
         1        2.0000           -0.9049978             -24.6262
       ...           ...                  ...                  ...
         7        2.0000           -0.7609858             -20.7075
         8        2.0000           -0.7576032             -20.6154
         9        2.0000           -0.7368764             -20.0514
        10        2.0000           -0.7071782             -19.2433
        11        2.0000           -0.6889309             -18.7468
        12        2.0000           -0.6825438             -18.5730
        13        2.0000           -0.6794952             -18.4900
        14        2.0000           -0.6632020             -18.0466
        15        2.0000           -0.6590214             -17.9329
        16        2.0000           -0.6445728             -17.5397
        17        2.0000           -0.6427227             -17.4894
        18        2.0000           -0.6227701             -16.9464
        19        2.0000           -0.5842035             -15.8970 (HOMO)
        20                         -0.4114708             -11.1967 (LUMO)
        21                         -0.3761613             -10.2359
        22                         -0.1915286              -5.2118
        23                         -0.1355576              -3.6887
        24                         -0.0714552              -1.9444
        25                         -0.0491983              -1.3388
        26                         -0.0330188              -0.8985
        27                         -0.0182787              -0.4974
        28                          0.0053068               0.1444
        29                          0.0257051               0.6995
        30                          0.0454947               1.2380
       ...                                ...                  ...
        37                          0.4648795              12.6500
      -------------------------------------------------------------
                  HL-Gap            0.1727327 Eh            4.7003 eV

     #   Z          covCN         q      C6AA      α(0)
     1   6 C        3.692    -0.086    22.340     6.763
     2   7 N        2.873     0.064    20.117     6.662
     3   6 C        3.058    -0.007    28.137     8.699
     4   6 C        3.026     0.005    27.876     8.660
     5   7 N        2.840    -0.040    22.009     6.968
     6   6 C        3.081     0.121    25.259     8.239
     7   6 C        3.754    -0.145    23.365     6.892
     8   1 H        0.924     0.103     1.762     2.076
     9   1 H        0.924     0.103     1.762     2.076
    10   1 H        0.925     0.108     1.713     2.047
    11   1 H        0.926     0.112     1.680     2.027
    12   1 H        0.927     0.114     1.662     2.016
    13   1 H        0.860     0.226     0.984     1.554
    14   1 H        0.925     0.110     1.697     2.037
    15   1 H        0.925     0.110     1.697     2.037
    16   1 H        0.925     0.103     1.755     2.072

Wiberg/Mayer (AO) data.
largest (>0.10) Wiberg bond orders for each atom

     #   Z sym  total        # sym  WBO       # sym  WBO       # sym  WBO
 ---------------------------------------------------------------------------
     1   6 C    3.933 --     2 N    0.989    10 H    0.974     9 H    0.964
                             8 H    0.964
     2   7 N    3.709 --     6 C    1.348     3 C    1.206     1 C    0.989
     3   6 C    3.948 --     4 C    1.618     2 N    1.206    11 H    0.960
     4   6 C    3.946 --     3 C    1.618     5 N    1.218    12 H    0.960
     5   7 N    3.642 --     6 C    1.326     4 C    1.218    13 H    0.923
     6   6 C    3.951 --     2 N    1.348     5 N    1.326     7 C    1.049
     7   6 C    3.973 --     6 C    1.049    16 H    0.971    14 H    0.947
                            15 H    0.947
     8   1 H    0.989 --     1 C    0.964
     9   1 H    0.989 --     1 C    0.964
    10   1 H    0.988 --     1 C    0.974
    11   1 H    0.987 --     3 C    0.960
    12   1 H    0.987 --     4 C    0.960
    13   1 H    0.949 --     5 N    0.923
    14   1 H    0.988 --     7 C    0.947
    15   1 H    0.988 --     7 C    0.947
    16   1 H    0.989 --     7 C    0.971
 ---------------------------------------------------------------------------

molecular dipole:
                 x           y           z       tot (Debye)
 q only:        0.301       0.290       0.001
   full:        0.201       0.448       0.001       1.247

           -------------------------------------------------
          | TOTAL ENERGY              -20.762114686426 Eh   |
          | GRADIENT NORM               0.000306739069 Eh/α |
          | HOMO-LUMO GAP               4.700297026168 eV   |
           -------------------------------------------------

 * finished run on 2024/12/20 at 06:53:20.304
