   * xtb version 6.7.1 (edcfbbe) compiled by 'conda@3ef47c1a292c' on 2024-11-25

   ID    Z sym.   atoms
    1    6 C      1, 2, 4, 5, 7-22, 25-37
    2    7 N      3, 6, 24
    3    8 O      23
    4    1 H      38-69

          program call               : xtb C0694.xyz --opt --namespace C0694 --charge +1
          :  Hamiltonian                  GFN2-xTB          :
 * total energy  :   -99.4400091 Eh     change       -0.8232206E-09 Eh
 * total energy  :   -99.4561700 Eh     change       -0.1616085E-01 Eh
 * total energy  :   -99.4617627 Eh     change       -0.5592723E-02 Eh
 * total energy  :   -99.4635749 Eh     change       -0.1812227E-02 Eh
 * total energy  :   -99.4645599 Eh     change       -0.9850159E-03 Eh
 * total energy  :   -99.4649994 Eh     change       -0.4394311E-03 Eh
 * total energy  :   -99.4652046 Eh     change       -0.2052235E-03 Eh
 * total energy  :   -99.4653275 Eh     change       -0.1229322E-03 Eh
 * total energy  :   -99.4654264 Eh     change       -0.9887722E-04 Eh
 * total energy  :   -99.4655300 Eh     change       -0.1035842E-03 Eh
 * total energy  :   -99.4709250 Eh     change       -0.1954398E-04 Eh
 * total energy  :   -99.4709492 Eh     change       -0.2416406E-04 Eh
 * total energy  :   -99.4709735 Eh     change       -0.2432872E-04 Eh
 * total energy  :   -99.4709934 Eh     change       -0.1987983E-04 Eh
 * total energy  :   -99.4710077 Eh     change       -0.1435712E-04 Eh
 * total energy  :   -99.4710178 Eh     change       -0.1000081E-04 Eh
 * total energy  :   -99.4710247 Eh     change       -0.6955662E-05 Eh
 * total energy  :   -99.4710300 Eh     change       -0.5250800E-05 Eh
 * total energy  :   -99.4710346 Eh     change       -0.4641313E-05 Eh
   *** GEOMETRY OPTIMIZATION CONVERGED AFTER 112 ITERATIONS ***

 final structure:
================
69
 xtb: 6.7.1 (edcfbbe)
C            1.48671312624263        0.36203736747988       -1.11814851638229
C            1.34616949118364       -0.89021796649644       -0.35170768893133
N            2.31055503627116       -1.81044639779002       -0.24742185384671
C            1.84437573078032       -2.85308185291619        0.49739198152541
C            0.57003526182042       -2.55409630116863        0.84731611133526
N            0.27075768885971       -1.33527052504019        0.30519744888057
C           -0.97341152417913       -0.65115759408903        0.56825435003796
C           -1.06306909606551       -0.14483815221984        2.01706617022830
C           -0.46334736339774        1.25660797743827        2.31170701735472
C           -0.82788347617997        2.22288941795378        1.19579612781932
C            0.12199104134218        2.98497070373931        0.52657289287546
C           -0.25215108016907        3.84990045577953       -0.49072519640454
C           -1.58114241475851        3.96911010405704       -0.85350370053792
C           -2.53826229522096        3.22085640807881       -0.18743274981093
C           -2.16560641207519        2.35677168145400        0.82533102447765
C           -1.01397137472144        1.73654128072356        3.65536363208932
C           -0.91161144616744        0.90828309915416        4.77017683905988
C           -1.38315320417478        1.31926042294831        6.00337804241284
C           -1.95696231299424        2.57100563253148        6.14879991811356
C           -2.04093316031227        3.41131596127678        5.05363492052961
C           -1.56824749990442        3.00102488355748        3.81787956434769
C            1.06636642162319        1.15073952886173        2.46199364910813
O            1.72301474077395        0.24774161150969        1.97701570988850
N            1.62902100625668        2.14741893271296        3.16269831363083
C            3.62976328036976       -1.71757717235739       -0.83272123552477
C            3.56522050310668       -1.59516500514280       -2.33691036847545
C            2.75261090666631       -2.44823584346658       -3.07527462493400
C            2.66819720714935       -2.32053031394376       -4.44778056468386
C            3.40393920750805       -1.34567728245580       -5.12019942137402
C            4.23473252235994       -0.51045227460890       -4.37577520185022
C            4.30822301561272       -0.62855772712561       -3.00135121066283
C            3.29906881834690       -1.19371616696220       -6.57758101409007
C            2.05912909567871       -1.27258916023841       -7.20806656282765
C            1.95714378740296       -1.11274661248312       -8.57728496788283
C            3.09182315316538       -0.88225032175447       -9.33721403972178
C            4.32987306708787       -0.80895464413086       -8.72053289183114
C            4.43394230720221       -0.95805723806850       -7.35017406261717
H            0.64852479598609        1.03088089987703       -0.95157077913449
H            1.56823914025003        0.14547129519953       -2.18370094301545
H            2.39832551577033        0.87267986337428       -0.81263938147140
H            2.44256777099933       -3.71131790071174        0.72376452180668
H           -0.13745875914101       -3.11083831711918        1.42601362891798
H           -1.09913077385176        0.16797026825688       -0.13973394703841
H           -1.77849401342574       -1.37262047999660        0.40384604964990
H           -2.11671285053649       -0.11657588875803        2.29525197531064
H           -0.57142365875761       -0.87497258098055        2.66012634709838
H            1.16508849904563        2.91606663733783        0.79559176953110
H            0.50235052388336        4.43352996642575       -0.99575346017218
H           -1.87121316311720        4.64476730820773       -1.64262115154989
H           -3.58003537534648        3.31400051143266       -0.45272885208012
H           -2.92608397147583        1.79618467716849        1.34710364147486
H           -0.44950465139525       -0.06369757787592        4.68460229141309
H           -1.29877400863019        0.65966838382643        6.85328632250230
H           -2.32828079977851        2.89045747864649        7.10975571533684
H           -2.47431407572134        4.39439009028225        5.15531834027427
H           -1.63835610678468        3.67756495030105        2.97961353503466
H            1.07429154788313        2.86031374676332        3.60585142795117
H            2.61992021504260        2.12264545750238        3.34277602457593
H            4.14638064444016       -0.85249901442527       -0.40633357207026
H            4.17966379645902       -2.61881754001092       -0.54817850805198
H            2.18270197034247       -3.21862991315535       -2.57409379118596
H            2.04162810959816       -2.99625855170915       -5.00953783453520
H            4.80848532588795        0.25361737587821       -4.87712908361038
H            4.94996336674397        0.03514905975620       -2.44042595357954
H            1.16854446761138       -1.43522347534412       -6.61777960574032
H            0.98936395197397       -1.16698828138928       -9.05303522760033
H            3.01132575951517       -0.76062696628916      -10.40648047533954
H            5.21760341396343       -0.63513083552222       -9.30964201697121
H            5.40369963540787       -0.91785756488758       -6.87610484944992

          :  Hamiltonian                  GFN2-xTB          :
         :: total energy             -99.471034598124 Eh    ::
         :: gradient norm              0.000218332611 Eh/a0 ::
         :: HOMO-LUMO gap              2.880004639041 eV    ::
         :: SCC energy              -101.206601714058 Eh    ::
         :: -> dispersion             -0.087482827497 Eh    ::
         :: repulsion energy           1.735567115934 Eh    ::

    * Orbital Energies and Occupations

         #    Occupation            Energy/Eh            Energy/eV
      -------------------------------------------------------------
         1        2.0000           -0.8498146             -23.1246
       ...           ...                  ...                  ...
        80        2.0000           -0.5147546             -14.0072
        81        2.0000           -0.5072938             -13.8042
        82        2.0000           -0.5053191             -13.7504
        83        2.0000           -0.5039008             -13.7118
        84        2.0000           -0.5023671             -13.6701
        85        2.0000           -0.5018282             -13.6554
        86        2.0000           -0.4942441             -13.4491
        87        2.0000           -0.4925311             -13.4025
        88        2.0000           -0.4914935             -13.3742
        89        2.0000           -0.4871013             -13.2547
        90        2.0000           -0.4844863             -13.1835
        91        2.0000           -0.4726189             -12.8606
        92        2.0000           -0.4640099             -12.6264 (HOMO)
        93                         -0.3581717              -9.7463 (LUMO)
        94                         -0.3342559              -9.0956
        95                         -0.3282570              -8.9323
        96                         -0.3234979              -8.8028
        97                         -0.3213080              -8.7432
        98                         -0.3193133              -8.6890
        99                         -0.3176977              -8.6450
       100                         -0.3132963              -8.5252
       101                         -0.3094766              -8.4213
       102                         -0.2904156              -7.9026
       103                         -0.2804411              -7.6312
       ...                                ...                  ...
       180                          0.6135102              16.6945
      -------------------------------------------------------------
                  HL-Gap            0.1058382 Eh            2.8800 eV

     #   Z          covCN         q      C6AA      α(0)
     1   6 C        3.755    -0.128    23.021     6.841
     2   6 C        3.104     0.127    25.084     8.207
     3   7 N        2.881     0.049    20.387     6.706
     4   6 C        3.048    -0.007    28.155     8.703
     5   6 C        3.061    -0.009    28.177     8.705
     6   7 N        2.872     0.048    20.397     6.708
     7   6 C        3.741    -0.017    20.959     6.532
     8   6 C        3.807    -0.061    21.665     6.626
     9   6 C        3.910    -0.020    20.874     6.494
    10   6 C        2.973     0.003    27.960     8.674
    11   6 C        2.923    -0.047    29.158     8.855
    12   6 C        2.919    -0.031    28.765     8.795
    13   6 C        2.919    -0.028    28.699     8.785
    14   6 C        2.919    -0.028    28.703     8.786
    15   6 C        2.925    -0.038    28.947     8.823
    16   6 C        2.977    -0.004    28.116     8.698
    17   6 C        2.924    -0.041    29.007     8.832
    18   6 C        2.919    -0.026    28.659     8.779
    19   6 C        2.919    -0.026    28.651     8.778
    20   6 C        2.920    -0.027    28.682     8.782
    21   6 C        2.923    -0.041    29.029     8.835
    22   6 C        2.751     0.290    22.086     7.695
    23   8 O        0.859    -0.468    23.090     6.443
    24   7 N        2.638    -0.259    26.718     7.677
    25   6 C        3.747    -0.024    21.067     6.547
    26   6 C        2.971    -0.007    28.186     8.708
    27   6 C        2.921    -0.042    29.035     8.836
    28   6 C        2.924    -0.033    28.831     8.805
    29   6 C        2.977     0.018    27.601     8.618
    30   6 C        2.924    -0.032    28.802     8.801
    31   6 C        2.921    -0.039    28.979     8.828
    32   6 C        2.978     0.006    27.884     8.662
    33   6 C        2.925    -0.033    28.819     8.804
    34   6 C        2.918    -0.026    28.664     8.780
    35   6 C        2.920    -0.025    28.618     8.773
    36   6 C        2.919    -0.025    28.639     8.776
    37   6 C        2.925    -0.031    28.783     8.798
    38   1 H        0.925     0.085     1.926     2.170
    39   1 H        0.924     0.092     1.861     2.134
    40   1 H        0.925     0.098     1.801     2.099
    41   1 H        0.926     0.094     1.843     2.123
    42   1 H        0.927     0.092     1.858     2.132
    43   1 H        0.925     0.078     1.999     2.211
    44   1 H        0.924     0.078     2.001     2.212
    45   1 H        0.925     0.065     2.141     2.288
    46   1 H        0.925     0.064     2.156     2.296
    47   1 H        0.926     0.029     2.594     2.519
    48   1 H        0.926     0.042     2.417     2.431
    49   1 H        0.926     0.048     2.349     2.396
    50   1 H        0.926     0.047     2.360     2.402
    51   1 H        0.926     0.039     2.460     2.453
    52   1 H        0.926     0.029     2.602     2.522
    53   1 H        0.926     0.046     2.371     2.408
    54   1 H        0.926     0.049     2.333     2.388
    55   1 H        0.926     0.046     2.369     2.407
    56   1 H        0.926     0.037     2.496     2.470
    57   1 H        0.860     0.198     1.116     1.655
    58   1 H        0.860     0.203     1.090     1.636
    59   1 H        0.924     0.084     1.941     2.179
    60   1 H        0.924     0.086     1.922     2.168
    61   1 H        0.925     0.027     2.634     2.538
    62   1 H        0.926     0.048     2.346     2.395
    63   1 H        0.926     0.051     2.305     2.374
    64   1 H        0.926     0.039     2.468     2.457
    65   1 H        0.926     0.029     2.605     2.524
    66   1 H        0.926     0.040     2.451     2.448
    67   1 H        0.926     0.044     2.401     2.423
    68   1 H        0.926     0.043     2.414     2.430
    69   1 H        0.926     0.036     2.501     2.473

Wiberg/Mayer (AO) data.
largest (>0.10) Wiberg bond orders for each atom

     #   Z sym  total        # sym  WBO       # sym  WBO       # sym  WBO
 ---------------------------------------------------------------------------
     1   6 C    3.980 --     2 C    1.046    38 H    0.964    40 H    0.954
                            39 H    0.948
     2   6 C    3.954 --     3 N    1.329     6 N    1.328     1 C    1.046
     3   7 N    3.694 --     2 C    1.329     4 C    1.207    25 C    0.968
     4   6 C    3.950 --     5 C    1.614     3 N    1.207    41 H    0.963
     5   6 C    3.949 --     4 C    1.614     6 N    1.201    42 H    0.964
     6   7 N    3.691 --     2 C    1.328     5 C    1.201     7 C    0.976
     7   6 C    3.948 --     8 C    0.988     6 N    0.976    44 H    0.964
                            43 H    0.958
     8   6 C    3.987 --     7 C    0.988    45 H    0.969    46 H    0.967
                             9 C    0.967
     9   6 C    3.988 --    10 C    0.973     8 C    0.967    16 C    0.960
                            22 C    0.926
    10   6 C    3.986 --    11 C    1.419    15 C    1.395     9 C    0.973
                            13 C    0.110
    11   6 C    3.991 --    12 C    1.431    10 C    1.419    47 H    0.965
                            14 C    0.108
    12   6 C    3.991 --    13 C    1.447    11 C    1.431    48 H    0.970
                            15 C    0.112
    13   6 C    3.990 --    12 C    1.447    14 C    1.430    49 H    0.970
                            10 C    0.110
    14   6 C    3.990 --    15 C    1.453    13 C    1.430    50 H    0.970
                            11 C    0.108
    15   6 C    3.991 --    14 C    1.453    10 C    1.395    51 H    0.967
                            12 C    0.112
    16   6 C    3.983 --    21 C    1.417    17 C    1.404     9 C    0.960
                            19 C    0.109
    17   6 C    3.991 --    18 C    1.451    16 C    1.404    52 H    0.967
                            20 C    0.112
    18   6 C    3.990 --    17 C    1.451    19 C    1.433    53 H    0.970
                            21 C    0.109
    19   6 C    3.989 --    20 C    1.445    18 C    1.433    54 H    0.970
                            16 C    0.109
    20   6 C    3.991 --    19 C    1.445    21 C    1.436    55 H    0.970
                            17 C    0.112
    21   6 C    3.991 --    20 C    1.436    16 C    1.417    56 H    0.965
                            18 C    0.109
    22   6 C    3.941 --    23 O    1.661    24 N    1.293     9 C    0.926
    23   8 O    1.976 --    22 C    1.661    24 N    0.197
    24   7 N    3.406 --    22 C    1.293    58 H    0.937    57 H    0.934
                            23 O    0.197
    25   6 C    3.942 --    26 C    0.988     3 N    0.968    60 H    0.958
                            59 H    0.954
    26   6 C    3.974 --    31 C    1.407    27 C    1.403    25 C    0.988
                            29 C    0.101
    27   6 C    3.991 --    28 C    1.459    26 C    1.403    61 H    0.969
                            30 C    0.105
    28   6 C    3.991 --    27 C    1.459    29 C    1.382    62 H    0.967
                            31 C    0.104
    29   6 C    3.987 --    30 C    1.386    28 C    1.382    32 C    1.050
                            26 C    0.101
    30   6 C    3.990 --    31 C    1.454    29 C    1.386    63 H    0.967
                            27 C    0.105
    31   6 C    3.990 --    30 C    1.454    26 C    1.407    64 H    0.968
                            28 C    0.104
    32   6 C    3.989 --    37 C    1.387    33 C    1.387    29 C    1.050
                            35 C    0.105
    33   6 C    3.991 --    34 C    1.452    32 C    1.387    65 H    0.969
                            36 C    0.108
    34   6 C    3.991 --    33 C    1.452    35 C    1.434    66 H    0.970
                            37 C    0.108
    35   6 C    3.986 --    36 C    1.435    34 C    1.434    67 H    0.971
                            32 C    0.105
    36   6 C    3.991 --    37 C    1.452    35 C    1.435    68 H    0.970
                            33 C    0.108
    37   6 C    3.991 --    36 C    1.452    32 C    1.387    69 H    0.968
                            34 C    0.108
    38   1 H    0.992 --     1 C    0.964
    39   1 H    0.991 --     1 C    0.948
    40   1 H    0.990 --     1 C    0.954
    41   1 H    0.990 --     4 C    0.963
    42   1 H    0.991 --     5 C    0.964
    43   1 H    0.993 --     7 C    0.958
    44   1 H    0.993 --     7 C    0.964
    45   1 H    0.995 --     8 C    0.969
    46   1 H    0.995 --     8 C    0.967
    47   1 H    0.999 --    11 C    0.965
    48   1 H    0.998 --    12 C    0.970
    49   1 H    0.997 --    13 C    0.970
    50   1 H    0.997 --    14 C    0.970
    51   1 H    0.998 --    15 C    0.967
    52   1 H    0.999 --    17 C    0.967
    53   1 H    0.997 --    18 C    0.970
    54   1 H    0.997 --    19 C    0.970
    55   1 H    0.997 --    20 C    0.970
    56   1 H    0.999 --    21 C    0.965
    57   1 H    0.961 --    24 N    0.934
    58   1 H    0.958 --    24 N    0.937
    59   1 H    0.992 --    25 C    0.954
    60   1 H    0.991 --    25 C    0.958
    61   1 H    0.999 --    27 C    0.969
    62   1 H    0.997 --    28 C    0.967
    63   1 H    0.997 --    30 C    0.967
    64   1 H    0.998 --    31 C    0.968
    65   1 H    0.999 --    33 C    0.969
    66   1 H    0.998 --    34 C    0.970
    67   1 H    0.998 --    35 C    0.971
    68   1 H    0.998 --    36 C    0.970
    69   1 H    0.999 --    37 C    0.968
 ---------------------------------------------------------------------------

molecular dipole:
                 x           y           z       tot (Debye)
 q only:        1.820      -0.386      -0.182
   full:        1.792      -0.249       0.140       4.613

           -------------------------------------------------
          | TOTAL ENERGY              -99.471034598124 Eh   |
          | GRADIENT NORM               0.000218332611 Eh/α |
          | HOMO-LUMO GAP               2.880004639041 eV   |
           -------------------------------------------------

 * finished run on 2024/12/20 at 06:53:42.720
