   * xtb version 6.7.1 (edcfbbe) compiled by 'conda@3ef47c1a292c' on 2024-11-25

   ID    Z sym.   atoms
    1    6 C      1-3, 5, 6, 8-10
    2    7 N      4, 7
    3    1 H      11-25

          program call               : xtb C0692.xyz --opt --namespace C0692 --charge +1
          :  Hamiltonian                  GFN2-xTB          :
 * total energy  :   -30.2595844 Eh     change       -0.6033929E-10 Eh
 * total energy  :   -30.2627666 Eh     change       -0.3182282E-02 Eh
 * total energy  :   -30.2635127 Eh     change       -0.7460111E-03 Eh
 * total energy  :   -30.2636828 Eh     change       -0.1701174E-03 Eh
 * total energy  :   -30.2638090 Eh     change       -0.1262108E-03 Eh
 * total energy  :   -30.2638552 Eh     change       -0.4618896E-04 Eh
 * total energy  :   -30.2639078 Eh     change       -0.5266937E-04 Eh
 * total energy  :   -30.2639596 Eh     change       -0.5176199E-04 Eh
 * total energy  :   -30.2639869 Eh     change       -0.2726717E-04 Eh
 * total energy  :   -30.2640084 Eh     change       -0.2155829E-04 Eh
 * total energy  :   -30.2640299 Eh     change       -0.2145795E-04 Eh
 * total energy  :   -30.2640777 Eh     change       -0.4776705E-04 Eh
 * total energy  :   -30.2641161 Eh     change       -0.3841252E-04 Eh
 * total energy  :   -30.2641419 Eh     change       -0.2583890E-04 Eh
 * total energy  :   -30.2641557 Eh     change       -0.1381011E-04 Eh
 * total energy  :   -30.2641633 Eh     change       -0.7599350E-05 Eh
 * total energy  :   -30.2641694 Eh     change       -0.6103581E-05 Eh
 * total energy  :   -30.2641744 Eh     change       -0.4938946E-05 Eh
   *** GEOMETRY OPTIMIZATION CONVERGED AFTER 18 ITERATIONS ***

 final structure:
================
25
 xtb: 6.7.1 (edcfbbe)
C            1.24546160093544        0.10440133703062        0.19483005371755
C            0.40891488063544       -0.52304261232827        1.30526262329565
C            0.66404119357846        0.16485554008772        2.66345219862144
N            0.27978572711477        1.55558532173462        2.65509637956086
C           -0.95181661129970        2.04437901878029        2.96461048110726
C           -0.91861977076135        3.39105374106237        2.76140885906371
N            0.33263517364702        3.70291798307498        2.32444384977765
C            1.03945864948200        2.57667539701057        2.26754585691441
C            0.80499486568504        5.02630572872515        2.01648527916492
C           -1.07338294051473       -0.51911466113657        0.94471766347850
H            0.93116111059069        1.12603956442781       -0.01156710289425
H            1.12341407754567       -0.46703856425575       -0.72040504450161
H            2.30219048706520        0.10075097458359        0.45053192833201
H            0.73140343820089       -1.55956362675727        1.43734926893664
H            0.08896850680736       -0.34044054551017        3.44144341851198
H            1.72568175091603        0.10093008645947        2.91047908681102
H           -1.75108869487409        1.42091398954143        3.30892500860786
H           -1.68361688518477        4.12862880243614        2.89457329125160
H            2.06704004234234        2.50555755077997        1.96818462447993
H            1.01166941004227        5.57703558216997        2.93564547369008
H            1.71788371704494        4.96839782282863        1.42760854150190
H            0.04734982280205        5.56796932675711        1.45209813847549
H           -1.23119877369852       -1.10385025383599        0.04325966511988
H           -1.66991346746687       -0.96350462803782        1.73756232349801
H           -1.43442731063672        0.48961712437174        0.75238813347716

          :  Hamiltonian                  GFN2-xTB          :
         :: total energy             -30.264174356743 Eh    ::
         :: gradient norm              0.000704347295 Eh/a0 ::
         :: HOMO-LUMO gap              4.256394702594 eV    ::
         :: SCC energy               -30.729272277712 Eh    ::
         :: -> dispersion             -0.018211819048 Eh    ::
         :: repulsion energy           0.465097920969 Eh    ::

    * Orbital Energies and Occupations

         #    Occupation            Energy/Eh            Energy/eV
      -------------------------------------------------------------
         1        2.0000           -0.8973871             -24.4191
       ...           ...                  ...                  ...
        16        2.0000           -0.6689094             -18.2020
        17        2.0000           -0.6611347             -17.9904
        18        2.0000           -0.6455092             -17.5652
        19        2.0000           -0.6436116             -17.5136
        20        2.0000           -0.6405658             -17.4307
        21        2.0000           -0.6265739             -17.0499
        22        2.0000           -0.6105560             -16.6141
        23        2.0000           -0.6003131             -16.3354
        24        2.0000           -0.5907072             -16.0740
        25        2.0000           -0.5818184             -15.8321
        26        2.0000           -0.5710217             -15.5383
        27        2.0000           -0.5695736             -15.4989
        28        2.0000           -0.5637885             -15.3415 (HOMO)
        29                         -0.4073689             -11.0851 (LUMO)
        30                         -0.3713896             -10.1060
        31                         -0.1838832              -5.0037
        32                         -0.1291960              -3.5156
        33                         -0.0699207              -1.9026
        34                         -0.0590537              -1.6069
        35                         -0.0519276              -1.4130
        36                         -0.0336800              -0.9165
        37                         -0.0239963              -0.6530
        38                         -0.0127493              -0.3469
        39                         -0.0028342              -0.0771
       ...                                ...                  ...
        55                          0.4622459              12.5784
      -------------------------------------------------------------
                  HL-Gap            0.1564196 Eh            4.2564 eV

     #   Z          covCN         q      C6AA      α(0)
     1   6 C        3.755    -0.121    22.876     6.820
     2   6 C        3.849    -0.016    20.833     6.492
     3   6 C        3.744    -0.034    21.253     6.576
     4   7 N        2.867     0.077    19.908     6.627
     5   6 C        3.075    -0.005    28.078     8.688
     6   6 C        3.072    -0.010    28.188     8.705
     7   7 N        2.867     0.075    19.932     6.631
     8   6 C        3.101     0.044    26.883     8.497
     9   6 C        3.692    -0.086    22.333     6.762
    10   6 C        3.755    -0.121    22.876     6.820
    11   1 H        0.925     0.035     2.522     2.483
    12   1 H        0.925     0.070     2.084     2.258
    13   1 H        0.925     0.047     2.360     2.402
    14   1 H        0.924     0.070     2.081     2.256
    15   1 H        0.924     0.090     1.878     2.143
    16   1 H        0.924     0.084     1.943     2.180
    17   1 H        0.926     0.111     1.690     2.033
    18   1 H        0.926     0.108     1.711     2.046
    19   1 H        0.926     0.114     1.659     2.014
    20   1 H        0.924     0.106     1.729     2.057
    21   1 H        0.925     0.099     1.790     2.092
    22   1 H        0.925     0.107     1.723     2.053
    23   1 H        0.925     0.068     2.106     2.270
    24   1 H        0.925     0.050     2.323     2.383
    25   1 H        0.925     0.038     2.469     2.457

Wiberg/Mayer (AO) data.
largest (>0.10) Wiberg bond orders for each atom

     #   Z sym  total        # sym  WBO       # sym  WBO       # sym  WBO
 ---------------------------------------------------------------------------
     1   6 C    3.992 --     2 C    1.012    13 H    0.985    11 H    0.984
                            12 H    0.980
     2   6 C    3.984 --     1 C    1.012    10 C    1.011     3 C    0.963
                            14 H    0.959
     3   6 C    3.935 --     4 N    0.972    16 H    0.964    15 H    0.964
                             2 C    0.963
     4   7 N    3.723 --     8 C    1.361     5 C    1.231     3 C    0.972
     5   6 C    3.950 --     6 C    1.588     4 N    1.231    17 H    0.960
     6   6 C    3.948 --     5 C    1.588     7 N    1.228    18 H    0.961
     7   7 N    3.720 --     8 C    1.358     6 C    1.228     9 C    0.991
     8   6 C    3.946 --     4 N    1.361     7 N    1.358    19 H    0.953
     9   6 C    3.934 --     7 N    0.991    21 H    0.975    22 H    0.967
                            20 H    0.959
    10   6 C    3.991 --     2 C    1.011    24 H    0.985    25 H    0.984
                            23 H    0.981
    11   1 H    0.999 --     1 C    0.984
    12   1 H    0.995 --     1 C    0.980
    13   1 H    0.998 --     1 C    0.985
    14   1 H    0.994 --     2 C    0.959
    15   1 H    0.991 --     3 C    0.964
    16   1 H    0.993 --     3 C    0.964
    17   1 H    0.987 --     5 C    0.960
    18   1 H    0.988 --     6 C    0.961
    19   1 H    0.987 --     8 C    0.953
    20   1 H    0.988 --     9 C    0.959
    21   1 H    0.990 --     9 C    0.975
    22   1 H    0.988 --     9 C    0.967
    23   1 H    0.995 --    10 C    0.981
    24   1 H    0.998 --    10 C    0.985
    25   1 H    0.999 --    10 C    0.984
 ---------------------------------------------------------------------------

molecular dipole:
                 x           y           z       tot (Debye)
 q only:        0.626       4.602       4.286
   full:        0.699       4.658       4.343      16.285

           -------------------------------------------------
          | TOTAL ENERGY              -30.264174356743 Eh   |
          | GRADIENT NORM               0.000704347295 Eh/α |
          | HOMO-LUMO GAP               4.256394702594 eV   |
           -------------------------------------------------

 * finished run on 2024/12/20 at 06:53:30.739
