   * xtb version 6.7.1 (edcfbbe) compiled by 'conda@3ef47c1a292c' on 2024-11-25

   ID    Z sym.   atoms
    1    6 C      1-14, 16-21, 23-25
    2    7 N      15, 22
    3    1 H      26-70

          program call               : xtb C0693.xyz --opt --namespace C0693 --charge +1
          :  Hamiltonian                  GFN2-xTB          :
 * total energy  :   -77.7423656 Eh     change       -0.9504220E-10 Eh
 * total energy  :   -77.7481139 Eh     change       -0.5748305E-02 Eh
 * total energy  :   -77.7490745 Eh     change       -0.9606141E-03 Eh
 * total energy  :   -77.7492569 Eh     change       -0.1824389E-03 Eh
 * total energy  :   -77.7494508 Eh     change       -0.1939015E-03 Eh
 * total energy  :   -77.7495823 Eh     change       -0.1314923E-03 Eh
 * total energy  :   -77.7497203 Eh     change       -0.1379386E-03 Eh
 * total energy  :   -77.7498287 Eh     change       -0.1083823E-03 Eh
 * total energy  :   -77.7499038 Eh     change       -0.7517313E-04 Eh
 * total energy  :   -77.7499765 Eh     change       -0.7267270E-04 Eh
 * total energy  :   -77.7511813 Eh     change       -0.8596852E-05 Eh
 * total energy  :   -77.7511903 Eh     change       -0.9009555E-05 Eh
 * total energy  :   -77.7512010 Eh     change       -0.1072347E-04 Eh
 * total energy  :   -77.7512147 Eh     change       -0.1372440E-04 Eh
 * total energy  :   -77.7512316 Eh     change       -0.1685241E-04 Eh
 * total energy  :   -77.7512483 Eh     change       -0.1671900E-04 Eh
 * total energy  :   -77.7512610 Eh     change       -0.1270811E-04 Eh
 * total energy  :   -77.7512698 Eh     change       -0.8827851E-05 Eh
 * total energy  :   -77.7512728 Eh     change       -0.3021845E-05 Eh
   *** GEOMETRY OPTIMIZATION CONVERGED AFTER 44 ITERATIONS ***

 final structure:
================
70
 xtb: 6.7.1 (edcfbbe)
C            1.33008674107853        0.77323623626645        0.24102201229639
C            1.08414766721070        0.98511847414493       -1.24802556525222
C            1.43953829909503       -0.23537919582270       -2.09834877775086
C            0.62712680827434       -1.49486090800171       -1.79093679625181
C           -0.88497324383090       -1.35110894889585       -1.97417474101805
C           -1.33202273793577       -0.95392276931048       -3.38275483638147
C           -0.86886523905968       -1.89381126384747       -4.49800223284401
C           -1.27934015420978       -3.35674002654804       -4.32125435100608
C           -2.78853049731329       -3.60175646180499       -4.27453425021657
C           -3.54207047692954       -3.23582431379613       -5.55497586549587
C           -3.06769075737248       -3.96160286380699       -6.81727287887397
C           -3.04474901440796       -5.48848615892134       -6.71048823591146
C           -4.39258970387363       -6.13786292398900       -6.38931992533040
C           -5.45325277095142       -6.00612288984343       -7.49004397795948
N           -5.14389659005336       -6.78049400682528       -8.68706738258663
C           -5.39686995386310       -8.07382982816466       -8.81280518613696
C           -6.06755463779545       -8.82260886361972       -7.70082117852040
C           -7.55751184172114       -9.06693770005478       -8.00407769477140
C           -7.78680248952313      -10.29816681553895       -8.87371129340499
C           -7.10258786666582      -10.20830548646938      -10.23439213393360
C           -5.57824003961395      -10.10584489946367      -10.14071761205511
N           -5.11606961028115       -8.74113508460543       -9.92252026893146
C           -4.42369280969173       -8.13209427713752      -11.04686153675450
C           -3.62291912171229       -6.93043040275957      -10.58084654325166
C           -4.54899568362645       -6.02977813955962       -9.78382904140898
H            0.66353107393838        0.01596773492678        0.64580791883601
H            1.15892024336681        1.69861594085410        0.78616258406462
H            2.35662556895729        0.45827156334626        0.41595864151467
H            0.04028029221868        1.25987495637491       -1.40924022221549
H            1.69596107846219        1.82373288445134       -1.58941523429940
H            1.31844572103196        0.02554634083008       -3.15191723259122
H            2.49583830979138       -0.47021320430679       -1.94319379991642
H            0.99414620796066       -2.30122548828737       -2.42997508254639
H            0.81654471962253       -1.79754809199439       -0.75935651736190
H           -1.35411274234954       -2.29889808677868       -1.69937927111334
H           -1.26001224669314       -0.60021260805053       -1.27641549208566
H           -2.42293898773251       -0.89135415768199       -3.39016350031937
H           -0.95670590297701        0.04603409642262       -3.60787382626440
H           -1.25819686815179       -1.51783386200467       -5.44722582051838
H            0.21990456290011       -1.85594671073545       -4.56481464164437
H           -0.83930415341415       -3.93766736479154       -5.13537001925595
H           -0.84796087476189       -3.73574631174611       -3.39357227767075
H           -2.96002175321934       -4.65485642748319       -4.03822069417836
H           -3.21718501449021       -3.02190084095206       -3.45612912607195
H           -4.60569665163076       -3.43291345479059       -5.39757541482849
H           -3.44426431367549       -2.16377747159472       -5.73117199943872
H           -3.70608832272521       -3.64594476900424       -7.64778031862989
H           -2.05606620245183       -3.63080366131769       -7.05629135004501
H           -2.64438352928763       -5.90792841734823       -7.63689381438428
H           -2.35021431409047       -5.76612919044427       -5.91750472339833
H           -4.21722021014252       -7.19414788090107       -6.17527419703656
H           -4.79933704769673       -5.68372335260751       -5.48622212494438
H           -6.43118773025834       -6.29986155003320       -7.10501962501360
H           -5.53183742050706       -4.96224407127510       -7.79388709680636
H           -5.97706012475680       -8.27705583137077       -6.76722226069174
H           -5.57226706918828       -9.78397418400245       -7.55695064402757
H           -7.98544471150814       -8.18506207251015       -8.48519106974945
H           -8.07942672808753       -9.21084943612523       -7.05798339645280
H           -7.42375607466966      -11.18308927988667       -8.34721227117922
H           -8.85865938234261      -10.42696804252710       -9.02579765024423
H           -7.34689045778936      -11.10549653914076      -10.80322959284790
H           -7.48722058425765       -9.35145290698961      -10.79102683290768
H           -5.13971645578969      -10.44097720872198      -11.08036402436604
H           -5.20547741767561      -10.76551609844157       -9.35247671763353
H           -5.15279228594498       -7.83981186340892      -11.81060954962090
H           -3.75769923241558       -8.87924016844726      -11.48433395503537
H           -3.21205593066429       -6.39582267788299      -11.43482334730187
H           -2.79530653730220       -7.25844511346785       -9.94928673925871
H           -5.34610777667874       -5.63648317833286      -10.42505726494954
H           -3.99694699816558       -5.18629242335493       -9.37115011181348

          :  Hamiltonian                  GFN2-xTB          :
         :: total energy             -77.751272846643 Eh    ::
         :: gradient norm              0.000187971803 Eh/a0 ::
         :: HOMO-LUMO gap              2.014569334442 eV    ::
         :: SCC energy               -78.876207994815 Eh    ::
         :: -> dispersion             -0.063155257844 Eh    ::
         :: repulsion energy           1.124935148171 Eh    ::

    * Orbital Energies and Occupations

         #    Occupation            Energy/Eh            Energy/eV
      -------------------------------------------------------------
         1        2.0000           -0.8440718             -22.9684
       ...           ...                  ...                  ...
        61        2.0000           -0.5221165             -14.2075
        62        2.0000           -0.5165760             -14.0567
        63        2.0000           -0.5114281             -13.9167
        64        2.0000           -0.5053964             -13.7525
        65        2.0000           -0.4989972             -13.5784
        66        2.0000           -0.4950686             -13.4715
        67        2.0000           -0.4898059             -13.3283
        68        2.0000           -0.4799381             -13.0598
        69        2.0000           -0.4780790             -13.0092
        70        2.0000           -0.4741929             -12.9034
        71        2.0000           -0.4632120             -12.6046
        72        2.0000           -0.4584029             -12.4738
        73        2.0000           -0.4567741             -12.4295 (HOMO)
        74                         -0.3827400             -10.4149 (LUMO)
        75                         -0.1803703              -4.9081
        76                         -0.1549024              -4.2151
        77                         -0.1109376              -3.0188
        78                         -0.0672950              -1.8312
        79                         -0.0608364              -1.6554
        80                         -0.0511118              -1.3908
        81                         -0.0454099              -1.2357
        82                         -0.0384935              -1.0475
        83                         -0.0371260              -1.0103
        84                         -0.0234252              -0.6374
       ...                                ...                  ...
       145                          0.3573088               9.7229
      -------------------------------------------------------------
                  HL-Gap            0.0740341 Eh            2.0146 eV

     #   Z          covCN         q      C6AA      α(0)
     1   6 C        3.751    -0.102    22.508     6.766
     2   6 C        3.799    -0.052    21.512     6.604
     3   6 C        3.800    -0.057    21.601     6.617
     4   6 C        3.800    -0.057    21.599     6.617
     5   6 C        3.800    -0.057    21.595     6.616
     6   6 C        3.800    -0.057    21.601     6.617
     7   6 C        3.800    -0.057    21.603     6.618
     8   6 C        3.800    -0.058    21.619     6.620
     9   6 C        3.800    -0.059    21.643     6.624
    10   6 C        3.800    -0.060    21.658     6.626
    11   6 C        3.799    -0.060    21.648     6.625
    12   6 C        3.800    -0.063    21.720     6.636
    13   6 C        3.800    -0.069    21.828     6.652
    14   6 C        3.745    -0.023    21.056     6.546
    15   7 N        2.740    -0.024    21.704     6.919
    16   6 C        2.842     0.145    24.830     8.166
    17   6 C        3.809    -0.085    22.119     6.695
    18   6 C        3.803    -0.060    21.648     6.624
    19   6 C        3.802    -0.070    21.830     6.652
    20   6 C        3.802    -0.070    21.845     6.654
    21   6 C        3.750    -0.022    21.023     6.539
    22   7 N        2.742    -0.024    21.712     6.920
    23   6 C        3.756    -0.018    20.951     6.526
    24   6 C        3.808    -0.074    21.914     6.664
    25   6 C        3.759    -0.019    20.958     6.527
    26   1 H        0.925     0.034     2.533     2.489
    27   1 H        0.925     0.033     2.548     2.496
    28   1 H        0.925     0.034     2.528     2.486
    29   1 H        0.924     0.030     2.585     2.514
    30   1 H        0.924     0.028     2.617     2.530
    31   1 H        0.924     0.027     2.623     2.533
    32   1 H        0.924     0.029     2.598     2.521
    33   1 H        0.924     0.026     2.642     2.542
    34   1 H        0.924     0.033     2.547     2.496
    35   1 H        0.924     0.025     2.658     2.549
    36   1 H        0.924     0.034     2.530     2.487
    37   1 H        0.924     0.025     2.657     2.549
    38   1 H        0.924     0.034     2.525     2.485
    39   1 H        0.924     0.025     2.665     2.553
    40   1 H        0.924     0.035     2.520     2.482
    41   1 H        0.924     0.023     2.682     2.561
    42   1 H        0.924     0.038     2.482     2.464
    43   1 H        0.924     0.023     2.684     2.562
    44   1 H        0.924     0.041     2.434     2.440
    45   1 H        0.924     0.024     2.680     2.560
    46   1 H        0.924     0.043     2.407     2.426
    47   1 H        0.924     0.017     2.785     2.610
    48   1 H        0.924     0.046     2.375     2.410
    49   1 H        0.924     0.024     2.670     2.555
    50   1 H        0.925     0.056     2.246     2.344
    51   1 H        0.924     0.039     2.457     2.451
    52   1 H        0.925     0.068     2.111     2.272
    53   1 H        0.924     0.067     2.124     2.279
    54   1 H        0.925     0.080     1.978     2.199
    55   1 H        0.925     0.079     1.989     2.205
    56   1 H        0.924     0.082     1.959     2.189
    57   1 H        0.924     0.046     2.371     2.408
    58   1 H        0.925     0.065     2.143     2.290
    59   1 H        0.924     0.052     2.297     2.370
    60   1 H        0.924     0.061     2.184     2.311
    61   1 H        0.925     0.067     2.119     2.276
    62   1 H        0.924     0.052     2.298     2.371
    63   1 H        0.925     0.074     2.041     2.234
    64   1 H        0.924     0.074     2.040     2.233
    65   1 H        0.924     0.073     2.051     2.240
    66   1 H        0.924     0.079     1.986     2.204
    67   1 H        0.925     0.081     1.969     2.194
    68   1 H        0.924     0.066     2.127     2.281
    69   1 H        0.924     0.070     2.089     2.260
    70   1 H        0.925     0.090     1.882     2.145

Wiberg/Mayer (AO) data.
largest (>0.10) Wiberg bond orders for each atom

     #   Z sym  total        # sym  WBO       # sym  WBO       # sym  WBO
 ---------------------------------------------------------------------------
     1   6 C    3.997 --     2 C    1.020    28 H    0.988    27 H    0.987
                            26 H    0.986
     2   6 C    3.998 --     1 C    1.020     3 C    1.008    30 H    0.978
                            29 H    0.976
     3   6 C    3.998 --     2 C    1.008     4 C    1.008    32 H    0.977
                            31 H    0.976
     4   6 C    3.998 --     5 C    1.008     3 C    1.008    34 H    0.975
                            33 H    0.975
     5   6 C    3.997 --     4 C    1.008     6 C    1.008    35 H    0.975
                            36 H    0.975
     6   6 C    3.997 --     5 C    1.008     7 C    1.008    37 H    0.976
                            38 H    0.975
     7   6 C    3.997 --     8 C    1.008     6 C    1.008    39 H    0.975
                            40 H    0.975
     8   6 C    3.997 --     7 C    1.008     9 C    1.008    41 H    0.975
                            42 H    0.974
     9   6 C    3.997 --     8 C    1.008    10 C    1.008    43 H    0.975
                            44 H    0.973
    10   6 C    3.996 --     9 C    1.008    11 C    1.007    45 H    0.976
                            46 H    0.974
    11   6 C    3.996 --    12 C    1.007    10 C    1.007    48 H    0.974
                            47 H    0.972
    12   6 C    3.994 --    11 C    1.007    13 C    1.007    49 H    0.975
                            50 H    0.970
    13   6 C    3.988 --    12 C    1.007    14 C    0.991    51 H    0.972
                            52 H    0.966
    14   6 C    3.949 --    13 C    0.991    15 N    0.968    53 H    0.964
                            54 H    0.963
    15   7 N    3.597 --    16 C    1.396    25 C    0.974    14 C    0.968
                            22 N    0.148
    16   6 C    3.961 --    15 N    1.396    22 N    1.386    17 C    1.011
    17   6 C    3.983 --    16 C    1.011    18 C    0.973    55 H    0.962
                            56 H    0.949
    18   6 C    3.990 --    19 C    1.011    57 H    0.977    17 C    0.973
                            58 H    0.972
    19   6 C    3.993 --    18 C    1.011    20 C    1.009    59 H    0.974
                            60 H    0.973
    20   6 C    3.990 --    19 C    1.009    21 C    0.996    62 H    0.974
                            61 H    0.970
    21   6 C    3.952 --    20 C    0.996    22 N    0.971    63 H    0.969
                            64 H    0.955
    22   7 N    3.590 --    16 C    1.386    23 C    0.976    21 C    0.971
                            15 N    0.148
    23   6 C    3.963 --    24 C    1.008    22 N    0.976    66 H    0.962
                            65 H    0.960
    24   6 C    3.991 --    23 C    1.008    25 C    1.006    68 H    0.972
                            67 H    0.968
    25   6 C    3.961 --    24 C    1.006    15 N    0.974    69 H    0.960
                            70 H    0.960
    26   1 H    0.999 --     1 C    0.986
    27   1 H    0.999 --     1 C    0.987
    28   1 H    0.999 --     1 C    0.988
    29   1 H    0.999 --     2 C    0.976
    30   1 H    0.999 --     2 C    0.978
    31   1 H    0.999 --     3 C    0.976
    32   1 H    0.999 --     3 C    0.977
    33   1 H    0.999 --     4 C    0.975
    34   1 H    0.999 --     4 C    0.975
    35   1 H    0.999 --     5 C    0.975
    36   1 H    0.999 --     5 C    0.975
    37   1 H    0.999 --     6 C    0.976
    38   1 H    0.999 --     6 C    0.975
    39   1 H    0.999 --     7 C    0.975
    40   1 H    0.999 --     7 C    0.975
    41   1 H    0.999 --     8 C    0.975
    42   1 H    0.999 --     8 C    0.974
    43   1 H    0.999 --     9 C    0.975
    44   1 H    0.998 --     9 C    0.973
    45   1 H    0.999 --    10 C    0.976
    46   1 H    0.998 --    10 C    0.974
    47   1 H    1.000 --    11 C    0.972
    48   1 H    0.998 --    11 C    0.974
    49   1 H    0.999 --    12 C    0.975
    50   1 H    0.997 --    12 C    0.970
    51   1 H    0.998 --    13 C    0.972
    52   1 H    0.995 --    13 C    0.966
    53   1 H    0.995 --    14 C    0.964
    54   1 H    0.993 --    14 C    0.963
    55   1 H    0.994 --    17 C    0.962
    56   1 H    0.993 --    17 C    0.949
    57   1 H    0.998 --    18 C    0.977
    58   1 H    0.995 --    18 C    0.972
    59   1 H    0.997 --    19 C    0.974
    60   1 H    0.996 --    19 C    0.973
    61   1 H    0.995 --    20 C    0.970
    62   1 H    0.997 --    20 C    0.974
    63   1 H    0.994 --    21 C    0.969
    64   1 H    0.994 --    21 C    0.955
    65   1 H    0.994 --    23 C    0.960
    66   1 H    0.993 --    23 C    0.962
    67   1 H    0.993 --    24 C    0.968
    68   1 H    0.996 --    24 C    0.972
    69   1 H    0.995 --    25 C    0.960
    70   1 H    0.992 --    25 C    0.960
 ---------------------------------------------------------------------------

molecular dipole:
                 x           y           z       tot (Debye)
 q only:       -9.758     -14.546     -16.935
   full:       -9.765     -14.566     -17.023      62.120

           -------------------------------------------------
          | TOTAL ENERGY              -77.751272846643 Eh   |
          | GRADIENT NORM               0.000187971803 Eh/α |
          | HOMO-LUMO GAP               2.014569334442 eV   |
           -------------------------------------------------

 * finished run on 2024/12/20 at 06:53:34.372
