   * xtb version 6.7.1 (edcfbbe) compiled by 'conda@3ef47c1a292c' on 2024-11-25

   ID    Z sym.   atoms
    1    6 C      1-18, 20, 21, 23, 24
    2    7 N      19, 22
    3    1 H      25-67

          program call               : xtb C0697.xyz --opt --namespace C0697 --charge +1
          :  Hamiltonian                  GFN2-xTB          :
 * total energy  :   -74.5447285 Eh     change       -0.6549584E-08 Eh
 * total energy  :   -74.5490872 Eh     change       -0.4358703E-02 Eh
 * total energy  :   -74.5499116 Eh     change       -0.8243495E-03 Eh
 * total energy  :   -74.5500731 Eh     change       -0.1614905E-03 Eh
 * total energy  :   -74.5502042 Eh     change       -0.1311575E-03 Eh
 * total energy  :   -74.5502610 Eh     change       -0.5682568E-04 Eh
 * total energy  :   -74.5503399 Eh     change       -0.7883247E-04 Eh
 * total energy  :   -74.5504565 Eh     change       -0.1166043E-03 Eh
 * total energy  :   -74.5505734 Eh     change       -0.1169388E-03 Eh
 * total energy  :   -74.5506504 Eh     change       -0.7695456E-04 Eh
 * total energy  :   -74.5526125 Eh     change       -0.1547103E-04 Eh
 * total energy  :   -74.5526274 Eh     change       -0.1492732E-04 Eh
 * total energy  :   -74.5526413 Eh     change       -0.1383599E-04 Eh
 * total energy  :   -74.5526548 Eh     change       -0.1351618E-04 Eh
 * total energy  :   -74.5526687 Eh     change       -0.1390273E-04 Eh
 * total energy  :   -74.5526778 Eh     change       -0.9142389E-05 Eh
 * total energy  :   -74.5526869 Eh     change       -0.9079195E-05 Eh
 * total energy  :   -74.5526926 Eh     change       -0.5639316E-05 Eh
 * total energy  :   -74.5526962 Eh     change       -0.3654131E-05 Eh
   *** GEOMETRY OPTIMIZATION CONVERGED AFTER 59 ITERATIONS ***

 final structure:
================
67
 xtb: 6.7.1 (edcfbbe)
C            1.19396320545114       -0.54780745651520        0.46284218892905
C            1.08326885190833        0.76765151481272        1.22442123061168
C            1.31054741405051        1.99588376333562        0.34190981355836
C            0.29375702326787        2.17736436221662       -0.78699982760930
C           -1.16135785500629        2.31203720626617       -0.33342445617332
C           -1.43372416979526        3.46604207975474        0.63356824965131
C           -1.04413388951578        4.85077126650352        0.11303334682456
C           -1.73698541133865        5.27210729023075       -1.18392950094475
C           -3.26281067878281        5.35213038360500       -1.10587103041844
C           -3.80776615648904        6.32954454158468       -0.06208610879767
C           -3.31516624869626        7.77085820047155       -0.20725730626604
C           -3.59997775393022        8.41736132931983       -1.56406482176245
C           -5.08107685786930        8.51830488927852       -1.93341729754941
C           -5.93068648587143        9.35327001085427       -0.97304939267454
C           -5.45373726313190       10.79446801115790       -0.77443462010230
C           -5.31094440889115       11.60897210995193       -2.06269706155037
C           -6.60057952555799       11.76795042906080       -2.86848931303774
C           -7.67889250717017       12.59670092852804       -2.15898979124461
N           -7.24222822432031       13.96069871319192       -1.96708568378547
C           -6.60690698237129       14.45043366797912       -0.86838803934112
C           -6.29362655981547       15.75135331034757       -1.12497816584393
N           -6.73814456805973       16.03359320722561       -2.38075391110876
C           -7.30587560381796       14.93490189928528       -2.87081888006223
C           -6.61608758103736       17.30594377229299       -3.03970885825187
H            0.39683182612647       -0.64550228048905       -0.26968042008698
H            1.12504356894130       -1.38793643272997        1.15021741314445
H            2.14842180001107       -0.60787073188727       -0.05607899385359
H            0.10442024414259        0.82998164125706        1.70304158390546
H            1.83385965946316        0.77835100634083        2.01889570747394
H            1.30944078034121        2.88553362349921        0.97520819163898
H            2.30428911142418        1.92101038740232       -0.10775943256539
H            0.57623270042956        3.06318020054121       -1.36041678493367
H            0.36016439435661        1.32579072997633       -1.46695849068233
H           -1.78560503635654        2.43081068625483       -1.22208868332131
H           -1.47354521842430        1.38420331800728        0.15002922644020
H           -2.49753699443293        3.45957826250454        0.88216842359990
H           -0.88969065021155        3.28871928821679        1.56350823101052
H           -1.26202465027862        5.58322223814407        0.89369789568597
H            0.03424548699598        4.87803017280958       -0.05524027453226
H           -1.33879898266616        6.24423447763837       -1.48406769405225
H           -1.47531496855979        4.56571037181980       -1.97387874045877
H           -3.64155019291830        5.62850830220987       -2.09287865575769
H           -3.66167835457479        4.36140737340685       -0.88064633423838
H           -4.89910080176536        6.31111760866456       -0.11303817134942
H           -3.53188614171834        5.97861786678885        0.93398707685479
H           -3.76953676862073        8.37008361459774        0.58555305186235
H           -2.23640601150053        7.79545824119398       -0.04349167293425
H           -3.15218287056481        9.41425167596629       -1.57019951862405
H           -3.09842462370488        7.84140402563053       -2.34302610503273
H           -5.15752645006474        8.93022879372345       -2.94282564981451
H           -5.50676976092951        7.51482191224751       -1.96994382861738
H           -6.96240110689344        9.35217309040411       -1.33420709280125
H           -5.93991452718106        8.86926054113804        0.00435957252004
H           -6.14496457231895       11.29035780387366       -0.08721542029363
H           -4.48021207946026       10.77863474147439       -0.28328042451012
H           -4.90597061470968       12.59506117554674       -1.81538299606970
H           -4.57788268002818       11.11964129817927       -2.70323779539839
H           -6.36940313607721       12.23598889748953       -3.82806696970433
H           -7.02242297699113       10.78558363930982       -3.07451044863138
H           -8.59181947025367       12.60540100454821       -2.75788352953787
H           -7.90145238045066       12.16650771521646       -1.18217337444328
H           -6.42805835033497       13.86084468776060        0.00763263749539
H           -5.79603167304265       16.47585994918407       -0.51315294770887
H           -7.75383295033624       14.84907226498455       -3.84191641958983
H           -5.56991040855379       17.61245636420435       -3.06835639467477
H           -6.99487555415565       17.23562040509233       -4.05700103483247
H           -7.18374637748784       18.06490461711511       -2.49954547561125

          :  Hamiltonian                  GFN2-xTB          :
         :: total energy             -74.552696208962 Eh    ::
         :: gradient norm              0.000441053693 Eh/a0 ::
         :: HOMO-LUMO gap              1.066768052219 eV    ::
         :: SCC energy               -75.668747944031 Eh    ::
         :: -> dispersion             -0.056986003593 Eh    ::
         :: repulsion energy           1.116051735068 Eh    ::

    * Orbital Energies and Occupations

         #    Occupation            Energy/Eh            Energy/eV
      -------------------------------------------------------------
         1        2.0000           -0.8964408             -24.3934
       ...           ...                  ...                  ...
        58        2.0000           -0.4985649             -13.5666
        59        2.0000           -0.4941428             -13.4463
        60        2.0000           -0.4914087             -13.3719
        61        2.0000           -0.4844756             -13.1833
        62        2.0000           -0.4798324             -13.0569
        63        2.0000           -0.4770862             -12.9822
        64        2.0000           -0.4725920             -12.8599
        65        2.0000           -0.4645640             -12.6414
        66        2.0000           -0.4633148             -12.6074
        67        2.0000           -0.4607968             -12.5389
        68        2.0000           -0.4527862             -12.3209
        69        2.0000           -0.4469116             -12.1611
        70        2.0000           -0.4457815             -12.1303 (HOMO)
        71                         -0.4065785             -11.0636 (LUMO)
        72                         -0.3704276             -10.0798
        73                         -0.1830405              -4.9808
        74                         -0.1278540              -3.4791
        75                         -0.0623233              -1.6959
        76                         -0.0503734              -1.3707
        77                         -0.0475731              -1.2945
        78                         -0.0305223              -0.8306
        79                         -0.0182210              -0.4958
        80                         -0.0099651              -0.2712
        81                         -0.0046715              -0.1271
       ...                                ...                  ...
       139                          0.4633283              12.6078
      -------------------------------------------------------------
                  HL-Gap            0.0392030 Eh            1.0668 eV

     #   Z          covCN         q      C6AA      α(0)
     1   6 C        3.751    -0.101    22.498     6.764
     2   6 C        3.799    -0.052    21.505     6.603
     3   6 C        3.800    -0.057    21.594     6.616
     4   6 C        3.800    -0.056    21.591     6.616
     5   6 C        3.800    -0.056    21.582     6.615
     6   6 C        3.800    -0.056    21.585     6.615
     7   6 C        3.800    -0.056    21.585     6.615
     8   6 C        3.800    -0.056    21.590     6.616
     9   6 C        3.800    -0.057    21.595     6.616
    10   6 C        3.800    -0.057    21.598     6.617
    11   6 C        3.800    -0.057    21.603     6.618
    12   6 C        3.800    -0.058    21.623     6.621
    13   6 C        3.800    -0.060    21.655     6.626
    14   6 C        3.800    -0.061    21.673     6.628
    15   6 C        3.800    -0.061    21.677     6.629
    16   6 C        3.800    -0.065    21.749     6.640
    17   6 C        3.801    -0.070    21.832     6.652
    18   6 C        3.742    -0.028    21.152     6.561
    19   7 N        2.868     0.072    19.978     6.639
    20   6 C        3.075    -0.004    28.034     8.681
    21   6 C        3.073    -0.011    28.202     8.707
    22   7 N        2.867     0.077    19.901     6.626
    23   6 C        3.102     0.044    26.886     8.497
    24   6 C        3.692    -0.086    22.336     6.763
    25   1 H        0.925     0.034     2.528     2.487
    26   1 H        0.925     0.031     2.566     2.505
    27   1 H        0.925     0.033     2.539     2.492
    28   1 H        0.924     0.031     2.579     2.511
    29   1 H        0.924     0.026     2.640     2.541
    30   1 H        0.924     0.028     2.618     2.530
    31   1 H        0.924     0.028     2.617     2.530
    32   1 H        0.924     0.027     2.631     2.536
    33   1 H        0.924     0.031     2.568     2.506
    34   1 H        0.924     0.026     2.640     2.541
    35   1 H        0.924     0.031     2.566     2.505
    36   1 H        0.924     0.026     2.641     2.541
    37   1 H        0.924     0.031     2.569     2.506
    38   1 H        0.924     0.026     2.651     2.546
    39   1 H        0.924     0.031     2.566     2.505
    40   1 H        0.924     0.025     2.664     2.552
    41   1 H        0.924     0.033     2.546     2.495
    42   1 H        0.924     0.025     2.663     2.552
    43   1 H        0.924     0.034     2.530     2.488
    44   1 H        0.924     0.025     2.660     2.550
    45   1 H        0.924     0.034     2.525     2.485
    46   1 H        0.924     0.024     2.680     2.560
    47   1 H        0.924     0.036     2.509     2.477
    48   1 H        0.924     0.022     2.699     2.569
    49   1 H        0.924     0.039     2.463     2.454
    50   1 H        0.924     0.023     2.682     2.561
    51   1 H        0.924     0.043     2.413     2.429
    52   1 H        0.924     0.024     2.677     2.559
    53   1 H        0.924     0.045     2.379     2.412
    54   1 H        0.924     0.018     2.766     2.601
    55   1 H        0.924     0.049     2.332     2.388
    56   1 H        0.924     0.022     2.709     2.574
    57   1 H        0.925     0.063     2.166     2.302
    58   1 H        0.924     0.046     2.372     2.408
    59   1 H        0.925     0.080     1.975     2.198
    60   1 H        0.924     0.080     1.974     2.197
    61   1 H        0.924     0.096     1.826     2.113
    62   1 H        0.926     0.111     1.687     2.031
    63   1 H        0.926     0.109     1.706     2.043
    64   1 H        0.926     0.112     1.681     2.028
    65   1 H        0.924     0.107     1.720     2.051
    66   1 H        0.925     0.099     1.792     2.093
    67   1 H        0.924     0.107     1.722     2.052

Wiberg/Mayer (AO) data.
largest (>0.10) Wiberg bond orders for each atom

     #   Z sym  total        # sym  WBO       # sym  WBO       # sym  WBO
 ---------------------------------------------------------------------------
     1   6 C    3.997 --     2 C    1.020    27 H    0.988    26 H    0.987
                            25 H    0.986
     2   6 C    3.998 --     1 C    1.020     3 C    1.008    29 H    0.979
                            28 H    0.976
     3   6 C    3.998 --     2 C    1.008     4 C    1.008    31 H    0.977
                            30 H    0.976
     4   6 C    3.998 --     5 C    1.008     3 C    1.008    33 H    0.975
                            32 H    0.975
     5   6 C    3.998 --     4 C    1.008     6 C    1.008    34 H    0.975
                            35 H    0.975
     6   6 C    3.998 --     7 C    1.008     5 C    1.008    36 H    0.975
                            37 H    0.975
     7   6 C    3.998 --     8 C    1.008     6 C    1.008    38 H    0.975
                            39 H    0.975
     8   6 C    3.997 --     7 C    1.008     9 C    1.008    40 H    0.975
                            41 H    0.974
     9   6 C    3.997 --     8 C    1.008    10 C    1.007    42 H    0.976
                            43 H    0.975
    10   6 C    3.997 --    11 C    1.008     9 C    1.007    44 H    0.976
                            45 H    0.975
    11   6 C    3.997 --    12 C    1.008    10 C    1.008    46 H    0.975
                            47 H    0.974
    12   6 C    3.997 --    11 C    1.008    13 C    1.008    48 H    0.975
                            49 H    0.974
    13   6 C    3.996 --    12 C    1.008    14 C    1.007    50 H    0.975
                            51 H    0.973
    14   6 C    3.996 --    13 C    1.007    15 C    1.007    52 H    0.975
                            53 H    0.973
    15   6 C    3.995 --    16 C    1.007    14 C    1.007    54 H    0.974
                            55 H    0.973
    16   6 C    3.993 --    17 C    1.008    15 C    1.007    56 H    0.975
                            57 H    0.968
    17   6 C    3.982 --    16 C    1.008    18 C    0.980    58 H    0.975
                            59 H    0.963
    18   6 C    3.933 --    17 C    0.980    19 N    0.967    60 H    0.965
                            61 H    0.961
    19   7 N    3.721 --    23 C    1.362    20 C    1.233    18 C    0.967
    20   6 C    3.950 --    21 C    1.587    19 N    1.233    62 H    0.959
    21   6 C    3.947 --    20 C    1.587    22 N    1.228    63 H    0.961
    22   7 N    3.721 --    23 C    1.360    21 C    1.228    24 C    0.991
    23   6 C    3.947 --    19 N    1.362    22 N    1.360    64 H    0.954
    24   6 C    3.934 --    22 N    0.991    66 H    0.976    65 H    0.963
                            67 H    0.961
    25   1 H    0.999 --     1 C    0.986
    26   1 H    0.999 --     1 C    0.987
    27   1 H    0.999 --     1 C    0.988
    28   1 H    0.999 --     2 C    0.976
    29   1 H    0.999 --     2 C    0.979
    30   1 H    0.999 --     3 C    0.976
    31   1 H    0.999 --     3 C    0.977
    32   1 H    0.999 --     4 C    0.975
    33   1 H    0.999 --     4 C    0.975
    34   1 H    0.999 --     5 C    0.975
    35   1 H    0.999 --     5 C    0.975
    36   1 H    0.999 --     6 C    0.975
    37   1 H    0.999 --     6 C    0.975
    38   1 H    0.999 --     7 C    0.975
    39   1 H    0.999 --     7 C    0.975
    40   1 H    0.999 --     8 C    0.975
    41   1 H    0.999 --     8 C    0.974
    42   1 H    0.999 --     9 C    0.976
    43   1 H    0.999 --     9 C    0.975
    44   1 H    0.999 --    10 C    0.976
    45   1 H    0.999 --    10 C    0.975
    46   1 H    0.999 --    11 C    0.975
    47   1 H    0.999 --    11 C    0.974
    48   1 H    0.999 --    12 C    0.975
    49   1 H    0.998 --    12 C    0.974
    50   1 H    0.999 --    13 C    0.975
    51   1 H    0.998 --    13 C    0.973
    52   1 H    0.999 --    14 C    0.975
    53   1 H    0.998 --    14 C    0.973
    54   1 H    1.000 --    15 C    0.974
    55   1 H    0.998 --    15 C    0.973
    56   1 H    1.000 --    16 C    0.975
    57   1 H    0.996 --    16 C    0.968
    58   1 H    0.998 --    17 C    0.975
    59   1 H    0.993 --    17 C    0.963
    60   1 H    0.993 --    18 C    0.965
    61   1 H    0.990 --    18 C    0.961
    62   1 H    0.987 --    20 C    0.959
    63   1 H    0.988 --    21 C    0.961
    64   1 H    0.988 --    23 C    0.954
    65   1 H    0.988 --    24 C    0.963
    66   1 H    0.990 --    24 C    0.976
    67   1 H    0.988 --    24 C    0.961
 ---------------------------------------------------------------------------

molecular dipole:
                 x           y           z       tot (Debye)
 q only:      -12.768      27.513      -4.180
   full:      -12.870      27.640      -4.242      78.242

           -------------------------------------------------
          | TOTAL ENERGY              -74.552696208962 Eh   |
          | GRADIENT NORM               0.000441053693 Eh/α |
          | HOMO-LUMO GAP               1.066768052219 eV   |
           -------------------------------------------------

 * finished run on 2024/12/20 at 06:53:49.391
