   * xtb version 6.7.1 (edcfbbe) compiled by 'conda@3ef47c1a292c' on 2024-11-25

   ID    Z sym.   atoms
    1    6 C      1-10, 12-17, 20, 21
    2    7 N      11
    3    8 O      18, 19
    4    1 H      22-51

          program call               : xtb C0696.xyz --opt --namespace C0696 --charge +1
          :  Hamiltonian                  GFN2-xTB          :
 * total energy  :   -64.5205188 Eh     change       -0.1013561E-08 Eh
 * total energy  :   -64.5251532 Eh     change       -0.4634381E-02 Eh
 * total energy  :   -64.5259242 Eh     change       -0.7709857E-03 Eh
 * total energy  :   -64.5260582 Eh     change       -0.1340183E-03 Eh
 * total energy  :   -64.5261676 Eh     change       -0.1093708E-03 Eh
 * total energy  :   -64.5262253 Eh     change       -0.5770568E-04 Eh
 * total energy  :   -64.5262973 Eh     change       -0.7200092E-04 Eh
 * total energy  :   -64.5263666 Eh     change       -0.6937406E-04 Eh
 * total energy  :   -64.5264256 Eh     change       -0.5894624E-04 Eh
 * total energy  :   -64.5264865 Eh     change       -0.6088234E-04 Eh
 * total energy  :   -64.5266433 Eh     change       -0.1690546E-04 Eh
 * total energy  :   -64.5266591 Eh     change       -0.1577863E-04 Eh
 * total energy  :   -64.5266747 Eh     change       -0.1561968E-04 Eh
 * total energy  :   -64.5266945 Eh     change       -0.1980086E-04 Eh
 * total energy  :   -64.5267105 Eh     change       -0.1593496E-04 Eh
 * total energy  :   -64.5267205 Eh     change       -0.9986839E-05 Eh
 * total energy  :   -64.5267265 Eh     change       -0.6001144E-05 Eh
 * total energy  :   -64.5267342 Eh     change       -0.7757977E-05 Eh
 * total energy  :   -64.5267386 Eh     change       -0.4360279E-05 Eh
   *** GEOMETRY OPTIMIZATION CONVERGED AFTER 22 ITERATIONS ***

 final structure:
================
51
 xtb: 6.7.1 (edcfbbe)
C            1.07844659247589        0.33300172992525        0.12094574369843
C            0.78222021775083        0.31880991198833       -1.37378762661529
C            1.25150002393911       -0.95897842545177       -2.07151838796983
C            0.61160561623203       -2.24976387797406       -1.55540616495295
C           -0.91600455568884       -2.28967588802782       -1.62921231796866
C           -1.49943498854726       -2.10420516950044       -3.03119648153188
C           -1.04720534242694       -3.14017698782827       -4.06366001341575
C           -1.32321462256718       -4.59776803803868       -3.68323930199655
C           -2.78221304402904       -4.91695825353809       -3.36196797723764
C           -3.74058023042683       -4.74634996227255       -4.55165137278902
N           -3.48538658904018       -5.75428850656182       -5.56181708664435
C           -2.63580370247608       -5.49985538068968       -6.56416828057600
C           -2.32460127625396       -6.46593856830828       -7.49622225351905
C           -2.90090512324030       -7.72989253412094       -7.38945522155361
C           -3.77932476404887       -7.97590973439152       -6.33558044498757
C           -4.04584729611815       -6.96463294972475       -5.43902365022430
C           -2.55575710233780       -8.76733516776632       -8.43252409034072
O           -1.87275400305401       -8.49816925772829       -9.38282320220496
O           -3.08061932248156       -9.94018353586134       -8.13959652842412
C           -2.84164495475528      -11.02193899762754       -9.05971092261707
C           -3.88440101080556      -11.03958166539225      -10.16537173031797
H            0.50131340821121       -0.42412202490797        0.64587239424349
H            0.82481433154698        1.30204341075930        0.54369227566052
H            2.13491931747762        0.14812702741487        0.30117275060843
H           -0.28811738923827        0.46221152657464       -1.53433760772283
H            1.29412432800042        1.16299759511537       -1.84130571812612
H            1.06521821812222       -0.86082680660833       -3.14359715205158
H            2.33246718554861       -1.04783534674644       -1.94047966874527
H            1.02839596563891       -3.08801520601999       -2.11917955493358
H            0.90062842826934       -2.39531059167055       -0.51356669944461
H           -1.25560012194078       -3.24017870976076       -1.21024852656575
H           -1.32182420735478       -1.50209969543494       -0.99307326689051
H           -2.59020844651707       -2.10832635548726       -2.95661651412350
H           -1.21476341948792       -1.11961146056678       -3.40387078302270
H           -1.52461160647505       -2.89694383285631       -5.01760302426954
H            0.02721672151465       -3.03839157541941       -4.21838965501326
H           -0.96603166311459       -5.25005383245401       -4.48687525713190
H           -0.73405336421595       -4.84090952688807       -2.79895708353682
H           -2.85368740225835       -5.94255179464339       -2.99286783509181
H           -3.12892584080542       -4.25640389660824       -2.56862890345149
H           -4.77072463621205       -4.84775186221827       -4.20559723229554
H           -3.61231109376553       -3.75611177282815       -4.98916130383621
H           -2.21558362323222       -4.50658180128077       -6.62067567674575
H           -1.64526072069336       -6.26101044892601       -8.31044977304705
H           -4.24410591772531       -8.94286382156031       -6.22689364890366
H           -4.72136979401558       -7.11241133694385       -4.60884092211975
H           -1.83816806986809      -10.90937459973286       -9.47975467966417
H           -2.89598117740691      -11.92374661197231       -8.44820874421893
H           -3.81615045477081      -10.13594049664468      -10.76626228578229
H           -3.70705248885012      -11.89705842833780      -10.80690075220359
H           -4.88454098848008      -11.11531646445072       -9.74599783938664

          :  Hamiltonian                  GFN2-xTB          :
         :: total energy             -64.526738575097 Eh    ::
         :: gradient norm              0.000555243802 Eh/a0 ::
         :: HOMO-LUMO gap              0.416103931547 eV    ::
         :: SCC energy               -65.446921272314 Eh    ::
         :: -> dispersion             -0.043001221777 Eh    ::
         :: repulsion energy           0.920182697217 Eh    ::

    * Orbital Energies and Occupations

         #    Occupation            Energy/Eh            Energy/eV
      -------------------------------------------------------------
         1        2.0000           -0.8792665             -23.9261
       ...           ...                  ...                  ...
        47        2.0000           -0.5590363             -15.2122
        48        2.0000           -0.5532268             -15.0541
        49        2.0000           -0.5516434             -15.0110
        50        2.0000           -0.5459221             -14.8553
        51        2.0000           -0.5435126             -14.7897
        52        2.0000           -0.5365191             -14.5994
        53        2.0000           -0.5295111             -14.4087
        54        2.0000           -0.5175326             -14.0828
        55        2.0000           -0.5113431             -13.9144
        56        2.0000           -0.5076274             -13.8132
        57        2.0000           -0.4891353             -13.3100
        58        2.0000           -0.4857569             -13.2181
        59        1.9994           -0.4824216             -13.1274 (HOMO)
        60        0.0006           -0.4671300             -12.7113 (LUMO)
        61                         -0.4272848             -11.6270
        62                         -0.3617041              -9.8425
        63                         -0.2792260              -7.5981
        64                         -0.1675591              -4.5595
        65                         -0.1335634              -3.6344
        66                         -0.0807441              -2.1972
        67                         -0.0648650              -1.7651
        68                         -0.0486828              -1.3247
        69                         -0.0380784              -1.0362
        70                         -0.0283738              -0.7721
       ...                                ...                  ...
       114                          0.5690176              15.4838
      -------------------------------------------------------------
                  HL-Gap            0.0152915 Eh            0.4161 eV

     #   Z          covCN         q      C6AA      α(0)
     1   6 C        3.751    -0.104    22.547     6.772
     2   6 C        3.799    -0.053    21.533     6.607
     3   6 C        3.800    -0.059    21.631     6.622
     4   6 C        3.800    -0.059    21.641     6.624
     5   6 C        3.800    -0.061    21.665     6.627
     6   6 C        3.800    -0.062    21.691     6.631
     7   6 C        3.800    -0.062    21.688     6.631
     8   6 C        3.800    -0.066    21.772     6.644
     9   6 C        3.801    -0.069    21.818     6.650
    10   6 C        3.760    -0.037    21.291     6.578
    11   7 N        2.750     0.116    19.257     6.518
    12   6 C        2.890     0.034    27.236     8.556
    13   6 C        2.918    -0.009    28.239     8.714
    14   6 C        2.977     0.026    27.423     8.590
    15   6 C        2.915    -0.011    28.282     8.721
    16   6 C        2.893     0.031    27.301     8.567
    17   6 C        2.720     0.359    20.902     7.484
    18   8 O        0.857    -0.368    21.053     6.152
    19   8 O        1.703    -0.241    18.000     5.728
    20   6 C        3.699     0.070    19.559     6.325
    21   6 C        3.750    -0.120    22.864     6.819
    22   1 H        0.925     0.034     2.534     2.490
    23   1 H        0.925     0.037     2.493     2.469
    24   1 H        0.925     0.038     2.481     2.463
    25   1 H        0.924     0.029     2.605     2.524
    26   1 H        0.924     0.032     2.553     2.499
    27   1 H        0.924     0.025     2.655     2.548
    28   1 H        0.924     0.035     2.513     2.479
    29   1 H        0.924     0.024     2.668     2.554
    30   1 H        0.924     0.041     2.441     2.443
    31   1 H        0.924     0.024     2.676     2.558
    32   1 H        0.924     0.044     2.394     2.420
    33   1 H        0.924     0.023     2.687     2.563
    34   1 H        0.924     0.048     2.341     2.392
    35   1 H        0.924     0.016     2.791     2.613
    36   1 H        0.924     0.053     2.283     2.363
    37   1 H        0.924     0.024     2.678     2.559
    38   1 H        0.925     0.068     2.108     2.270
    39   1 H        0.924     0.050     2.315     2.379
    40   1 H        0.925     0.087     1.913     2.163
    41   1 H        0.924     0.089     1.886     2.148
    42   1 H        0.925     0.099     1.793     2.094
    43   1 H        0.926     0.117     1.641     2.004
    44   1 H        0.926     0.128     1.554     1.949
    45   1 H        0.926     0.118     1.628     1.995
    46   1 H        0.926     0.111     1.689     2.032
    47   1 H        0.924     0.075     2.033     2.230
    48   1 H        0.924     0.077     2.011     2.217
    49   1 H        0.925     0.064     2.147     2.292
    50   1 H        0.925     0.073     2.055     2.242
    51   1 H        0.925     0.062     2.178     2.308

Wiberg/Mayer (AO) data.
largest (>0.10) Wiberg bond orders for each atom

     #   Z sym  total        # sym  WBO       # sym  WBO       # sym  WBO
 ---------------------------------------------------------------------------
     1   6 C    3.996 --     2 C    1.020    24 H    0.987    23 H    0.987
                            22 H    0.986
     2   6 C    3.997 --     1 C    1.020     3 C    1.008    26 H    0.978
                            25 H    0.976
     3   6 C    3.997 --     2 C    1.008     4 C    1.007    28 H    0.977
                            27 H    0.976
     4   6 C    3.996 --     5 C    1.008     3 C    1.007    29 H    0.975
                            30 H    0.975
     5   6 C    3.996 --     4 C    1.008     6 C    1.007    31 H    0.975
                            32 H    0.973
     6   6 C    3.995 --     5 C    1.007     7 C    1.006    33 H    0.975
                            34 H    0.973
     7   6 C    3.994 --     6 C    1.006     8 C    1.006    36 H    0.972
                            35 H    0.972
     8   6 C    3.992 --     9 C    1.010     7 C    1.006    37 H    0.972
                            38 H    0.965
     9   6 C    3.978 --     8 C    1.010    39 H    0.974    10 C    0.968
                            40 H    0.959
    10   6 C    3.929 --     9 C    0.968    11 N    0.966    41 H    0.962
                            42 H    0.958
    11   7 N    3.767 --    12 C    1.324    16 C    1.321    10 C    0.966
    12   6 C    3.955 --    13 C    1.461    11 N    1.324    43 H    0.949
    13   6 C    3.973 --    12 C    1.461    14 C    1.393    44 H    0.951
    14   6 C    3.973 --    13 C    1.393    15 C    1.384    17 C    0.953
    15   6 C    3.978 --    16 C    1.473    14 C    1.384    45 H    0.954
    16   6 C    3.958 --    15 C    1.473    11 N    1.321    46 H    0.953
    17   6 C    3.939 --    18 O    1.742    19 O    1.184    14 C    0.953
    18   8 O    2.074 --    17 C    1.742    19 O    0.202
    19   8 O    2.355 --    17 C    1.184    20 C    0.910    18 O    0.202
    20   6 C    3.898 --    21 C    1.010    48 H    0.969    47 H    0.967
                            19 O    0.910
    21   6 C    3.984 --    20 C    1.010    51 H    0.985    49 H    0.984
                            50 H    0.978
    22   1 H    0.999 --     1 C    0.986
    23   1 H    0.999 --     1 C    0.987
    24   1 H    0.998 --     1 C    0.987
    25   1 H    0.999 --     2 C    0.976
    26   1 H    0.999 --     2 C    0.978
    27   1 H    0.999 --     3 C    0.976
    28   1 H    0.999 --     3 C    0.977
    29   1 H    0.999 --     4 C    0.975
    30   1 H    0.998 --     4 C    0.975
    31   1 H    0.999 --     5 C    0.975
    32   1 H    0.998 --     5 C    0.973
    33   1 H    0.999 --     6 C    0.975
    34   1 H    0.998 --     6 C    0.973
    35   1 H    0.999 --     7 C    0.972
    36   1 H    0.997 --     7 C    0.972
    37   1 H    0.999 --     8 C    0.972
    38   1 H    0.994 --     8 C    0.965
    39   1 H    0.997 --     9 C    0.974
    40   1 H    0.991 --     9 C    0.959
    41   1 H    0.991 --    10 C    0.962
    42   1 H    0.990 --    10 C    0.958
    43   1 H    0.986 --    12 C    0.949
    44   1 H    0.983 --    13 C    0.951
    45   1 H    0.986 --    15 C    0.954
    46   1 H    0.987 --    16 C    0.953
    47   1 H    0.994 --    20 C    0.967
    48   1 H    0.994 --    20 C    0.969
    49   1 H    0.996 --    21 C    0.984
    50   1 H    0.994 --    21 C    0.978
    51   1 H    0.996 --    21 C    0.985
 ---------------------------------------------------------------------------

molecular dipole:
                 x           y           z       tot (Debye)
 q only:       -6.285     -12.117     -10.598
   full:       -6.396     -12.168     -10.538      44.025

           -------------------------------------------------
          | TOTAL ENERGY              -64.526738575097 Eh   |
          | GRADIENT NORM               0.000555243802 Eh/α |
          | HOMO-LUMO GAP               0.416103931547 eV   |
           -------------------------------------------------

 * finished run on 2024/12/20 at 06:53:45.240
