   * xtb version 6.7.1 (edcfbbe) compiled by 'conda@3ef47c1a292c' on 2024-11-25

   ID    Z sym.   atoms
    1    6 C      1, 3, 4, 6-15
    2    7 N      2, 5
    3    1 H      16-32

          program call               : xtb C0698.xyz --opt --namespace C0698 --charge +1
          :  Hamiltonian                  GFN2-xTB          :
 * total energy  :   -41.9710184 Eh     change       -0.4605738E-09 Eh
 * total energy  :   -41.9753803 Eh     change       -0.4361901E-02 Eh
 * total energy  :   -41.9763922 Eh     change       -0.1011854E-02 Eh
 * total energy  :   -41.9766699 Eh     change       -0.2776557E-03 Eh
 * total energy  :   -41.9768691 Eh     change       -0.1992677E-03 Eh
 * total energy  :   -41.9769624 Eh     change       -0.9332871E-04 Eh
 * total energy  :   -41.9770679 Eh     change       -0.1054746E-03 Eh
 * total energy  :   -41.9772058 Eh     change       -0.1378416E-03 Eh
 * total energy  :   -41.9773517 Eh     change       -0.1458902E-03 Eh
 * total energy  :   -41.9774914 Eh     change       -0.1397739E-03 Eh
 * total energy  :   -41.9777980 Eh     change       -0.1578478E-03 Eh
 * total energy  :   -41.9779273 Eh     change       -0.1293028E-03 Eh
 * total energy  :   -41.9779988 Eh     change       -0.7148894E-04 Eh
 * total energy  :   -41.9780209 Eh     change       -0.2205232E-04 Eh
 * total energy  :   -41.9780346 Eh     change       -0.1373116E-04 Eh
 * total energy  :   -41.9780450 Eh     change       -0.1041920E-04 Eh
 * total energy  :   -41.9780439 Eh     change        0.1154243E-05 Eh
 * total energy  :   -41.9780519 Eh     change       -0.7967695E-05 Eh
 * total energy  :   -41.9780562 Eh     change       -0.4345213E-05 Eh
   *** GEOMETRY OPTIMIZATION CONVERGED AFTER 20 ITERATIONS ***

 final structure:
================
32
 xtb: 6.7.1 (edcfbbe)
C            0.56068240154013       -0.31512658465937        0.01554123393140
N            0.49002938699952        0.67898448838951       -1.02140319445564
C            1.36034036581845        1.71407043655672       -1.18659268570025
C            0.93525479089807        2.43101563558830       -2.26375749773091
N           -0.19018283273143        1.82703621606511       -2.73393225559125
C           -0.44017636291909        0.76953027588631       -1.96830298833728
C           -0.93716297349806        2.22173438185001       -3.90545785336803
C           -0.28710626092349        1.69557612780074       -5.19051494610747
C           -0.22089624791402        0.16492109066371       -5.24650059140152
C           -1.53839213289532       -0.50859002891344       -4.95932730099934
C           -2.69886131623436       -0.13197322525718       -5.62617872307084
C           -3.90495218862318       -0.75103096305187       -5.34790312304939
C           -3.96973723834667       -1.76006810322231       -4.40161645837594
C           -2.81751864019843       -2.15721942873063       -3.74531540857353
C           -1.61223856982694       -1.53386794329909       -4.02310862666231
H           -0.11873247318574       -1.13440236823705       -0.21043415542411
H            0.28220514507024        0.12097363421715        0.97659488446287
H            1.57723872525246       -0.70084054475088        0.09274962908836
H            2.20258644202587        1.86818780659888       -0.54331743588864
H            1.34766927130515        3.31300624293689       -2.70971965554536
H           -1.26026741554850        0.09031380335600       -2.11189519038735
H           -1.94978592420394        1.82208574262571       -3.81832735799976
H           -0.98271054456644        3.31241554571663       -3.93342895546043
H           -0.87671873246967        2.07181242844265       -6.02561669421915
H            0.72117287429625        2.10186194710059       -5.28843141926248
H            0.11195542622260       -0.11913751842584       -6.24752474679141
H            0.53351672114299       -0.20124007398129       -4.54482193333840
H           -2.66094740901038        0.63984729491175       -6.38020556429693
H           -4.79537118591695       -0.44960948044378       -5.87773904122988
H           -4.90977730332311       -2.24332100016584       -4.18632681795437
H           -2.85483996013585       -2.95722065495152       -3.02020452934779
H           -0.70950583810110       -1.87023518061694       -3.52774059691109

          :  Hamiltonian                  GFN2-xTB          :
         :: total energy             -41.978056196501 Eh    ::
         :: gradient norm              0.000789524058 Eh/a0 ::
         :: HOMO-LUMO gap              2.608683963772 eV    ::
         :: SCC energy               -42.687707824759 Eh    ::
         :: -> dispersion             -0.029469648601 Eh    ::
         :: repulsion energy           0.709651628258 Eh    ::

    * Orbital Energies and Occupations

         #    Occupation            Energy/Eh            Energy/eV
      -------------------------------------------------------------
         1        2.0000           -0.8954754             -24.3671
       ...           ...                  ...                  ...
        27        2.0000           -0.6067052             -16.5093
        28        2.0000           -0.5988924             -16.2967
        29        2.0000           -0.5927752             -16.1302
        30        2.0000           -0.5897841             -16.0488
        31        2.0000           -0.5860916             -15.9484
        32        2.0000           -0.5784043             -15.7392
        33        2.0000           -0.5738829             -15.6161
        34        2.0000           -0.5683293             -15.4650
        35        2.0000           -0.5633738             -15.3302
        36        2.0000           -0.5249410             -14.2844
        37        2.0000           -0.5218645             -14.2007
        38        2.0000           -0.5067381             -13.7890
        39        2.0000           -0.5004599             -13.6182 (HOMO)
        40                         -0.4045925             -11.0095 (LUMO)
        41                         -0.3702178             -10.0741
        42                         -0.3258705              -8.8674
        43                         -0.3253853              -8.8542
        44                         -0.1969606              -5.3596
        45                         -0.1819105              -4.9500
        46                         -0.1277939              -3.4774
        47                         -0.0594676              -1.6182
        48                         -0.0539639              -1.4684
        49                         -0.0354329              -0.9642
        50                         -0.0328497              -0.8939
       ...                                ...                  ...
        77                          0.5606240              15.2554
      -------------------------------------------------------------
                  HL-Gap            0.0958674 Eh            2.6087 eV

     #   Z          covCN         q      C6AA      α(0)
     1   6 C        3.692    -0.086    22.328     6.761
     2   7 N        2.868     0.076    19.912     6.627
     3   6 C        3.072    -0.010    28.181     8.704
     4   6 C        3.073    -0.006    28.096     8.691
     5   7 N        2.870     0.072    19.980     6.639
     6   6 C        3.098     0.045    26.876     8.496
     7   6 C        3.742    -0.028    21.151     6.561
     8   6 C        3.802    -0.068    21.808     6.649
     9   6 C        3.806    -0.072    21.867     6.657
    10   6 C        2.967     0.002    27.987     8.678
    11   6 C        2.924    -0.041    29.009     8.833
    12   6 C        2.919    -0.026    28.651     8.778
    13   6 C        2.920    -0.028    28.697     8.785
    14   6 C        2.918    -0.031    28.780     8.797
    15   6 C        2.925    -0.050    29.252     8.870
    16   1 H        0.925     0.100     1.789     2.091
    17   1 H        0.924     0.106     1.733     2.058
    18   1 H        0.925     0.107     1.725     2.054
    19   1 H        0.926     0.109     1.707     2.043
    20   1 H        0.926     0.108     1.712     2.046
    21   1 H        0.926     0.119     1.622     1.991
    22   1 H        0.924     0.088     1.902     2.157
    23   1 H        0.924     0.088     1.894     2.152
    24   1 H        0.925     0.076     2.017     2.221
    25   1 H        0.924     0.057     2.233     2.337
    26   1 H        0.924     0.070     2.090     2.261
    27   1 H        0.924     0.032     2.561     2.503
    28   1 H        0.926     0.039     2.466     2.456
    29   1 H        0.926     0.048     2.344     2.394
    30   1 H        0.926     0.048     2.344     2.394
    31   1 H        0.926     0.039     2.465     2.455
    32   1 H        0.925     0.018     2.768     2.602

Wiberg/Mayer (AO) data.
largest (>0.10) Wiberg bond orders for each atom

     #   Z sym  total        # sym  WBO       # sym  WBO       # sym  WBO
 ---------------------------------------------------------------------------
     1   6 C    3.934 --     2 N    0.991    16 H    0.975    18 H    0.966
                            17 H    0.960
     2   7 N    3.719 --     6 C    1.360     3 C    1.226     1 C    0.991
     3   6 C    3.948 --     4 C    1.592     2 N    1.226    19 H    0.961
     4   6 C    3.950 --     3 C    1.592     5 N    1.230    20 H    0.961
     5   7 N    3.721 --     6 C    1.364     4 C    1.230     7 C    0.968
     6   6 C    3.945 --     5 N    1.364     2 N    1.360    21 H    0.946
     7   6 C    3.936 --     8 C    0.983     5 N    0.968    22 H    0.963
                            23 H    0.963
     8   6 C    3.984 --     9 C    0.999     7 C    0.983    25 H    0.975
                            24 H    0.966
     9   6 C    3.993 --    10 C    1.009     8 C    0.999    27 H    0.975
                            26 H    0.957
    10   6 C    3.988 --    15 C    1.412    11 C    1.411     9 C    1.009
                            13 C    0.110
    11   6 C    3.992 --    12 C    1.447    10 C    1.411    28 H    0.967
                            14 C    0.111
    12   6 C    3.991 --    11 C    1.447    13 C    1.437    29 H    0.970
                            15 C    0.110
    13   6 C    3.991 --    14 C    1.441    12 C    1.437    30 H    0.970
                            10 C    0.110
    14   6 C    3.992 --    13 C    1.441    15 C    1.440    31 H    0.970
                            11 C    0.111
    15   6 C    3.991 --    14 C    1.440    10 C    1.412    32 H    0.967
                            12 C    0.110
    16   1 H    0.990 --     1 C    0.975
    17   1 H    0.988 --     1 C    0.960
    18   1 H    0.988 --     1 C    0.966
    19   1 H    0.988 --     3 C    0.961
    20   1 H    0.988 --     4 C    0.961
    21   1 H    0.986 --     6 C    0.946
    22   1 H    0.992 --     7 C    0.963
    23   1 H    0.992 --     7 C    0.963
    24   1 H    0.993 --     8 C    0.966
    25   1 H    0.996 --     8 C    0.975
    26   1 H    0.995 --     9 C    0.957
    27   1 H    0.999 --     9 C    0.975
    28   1 H    0.998 --    11 C    0.967
    29   1 H    0.997 --    12 C    0.970
    30   1 H    0.997 --    13 C    0.970
    31   1 H    0.998 --    14 C    0.970
    32   1 H    1.000 --    15 C    0.967
 ---------------------------------------------------------------------------

molecular dipole:
                 x           y           z       tot (Debye)
 q only:       -0.080       2.085      -4.050
   full:       -0.101       2.047      -4.047      11.530

           -------------------------------------------------
          | TOTAL ENERGY              -41.978056196501 Eh   |
          | GRADIENT NORM               0.000789524058 Eh/α |
          | HOMO-LUMO GAP               2.608683963772 eV   |
           -------------------------------------------------

 * finished run on 2024/12/20 at 06:53:50.276
