   * xtb version 6.7.1 (edcfbbe) compiled by 'conda@3ef47c1a292c' on 2024-11-25

   ID    Z sym.   atoms
    1    8 O      1
    2    6 C      2, 3, 5, 6, 8, 9
    3    7 N      4, 7
    4    1 H      10-20

          program call               : xtb C0695.xyz --opt --namespace C0695 --charge +1
          :  Hamiltonian                  GFN2-xTB          :
 * total energy  :   -27.9798733 Eh     change       -0.2559801E-09 Eh
 * total energy  :   -27.9838225 Eh     change       -0.3949160E-02 Eh
 * total energy  :   -27.9849818 Eh     change       -0.1159296E-02 Eh
 * total energy  :   -27.9852403 Eh     change       -0.2585280E-03 Eh
 * total energy  :   -27.9853711 Eh     change       -0.1307985E-03 Eh
 * total energy  :   -27.9854191 Eh     change       -0.4802356E-04 Eh
 * total energy  :   -27.9854673 Eh     change       -0.4816324E-04 Eh
 * total energy  :   -27.9855433 Eh     change       -0.7603887E-04 Eh
 * total energy  :   -27.9855958 Eh     change       -0.5247867E-04 Eh
 * total energy  :   -27.9856664 Eh     change       -0.7061633E-04 Eh
 * total energy  :   -27.9872341 Eh     change       -0.2800069E-04 Eh
 * total energy  :   -27.9872674 Eh     change       -0.3329850E-04 Eh
 * total energy  :   -27.9872971 Eh     change       -0.2971835E-04 Eh
 * total energy  :   -27.9873178 Eh     change       -0.2067574E-04 Eh
 * total energy  :   -27.9873340 Eh     change       -0.1624956E-04 Eh
 * total energy  :   -27.9873448 Eh     change       -0.1081236E-04 Eh
 * total energy  :   -27.9873414 Eh     change        0.3419488E-05 Eh
 * total energy  :   -27.9873565 Eh     change       -0.1513182E-04 Eh
 * total energy  :   -27.9873595 Eh     change       -0.2965702E-05 Eh
   *** GEOMETRY OPTIMIZATION CONVERGED AFTER 37 ITERATIONS ***

 final structure:
================
20
 xtb: 6.7.1 (edcfbbe)
O            1.33108349875213       -0.05449491275187        0.71028291625106
C            0.70041896018678       -1.29468200445007        0.91397162975251
C            1.17998772294021       -2.23874771675333       -0.19821393903355
N            2.61632919277833       -2.36541962108154       -0.15607602198932
C            3.49374548060471       -1.42522781118412       -0.60000074465059
C            4.74633861310016       -1.87525494249255       -0.31211480615506
N            4.61273754641951       -3.08245068833545        0.30550802509840
C            3.31445044910476       -3.35647091826269        0.39326354187790
C            5.69724415782395       -3.90951245236663        0.76111243671033
H            0.94066865278879        0.61269757076716        1.28376866324186
H            0.96413000880808       -1.71008688300998        1.89760974307429
H           -0.39013040664041       -1.21234642148312        0.84688329679516
H            0.72078973610587       -3.22055230740380       -0.08210076185306
H            0.90143100089367       -1.81051734358606       -1.16334295608628
H            3.16773202049244       -0.51319721204173       -1.05645992799273
H            5.70090496933410       -1.42848804293139       -0.50170416202336
H            2.89608665635619       -4.24305600748824        0.82951505665965
H            5.30969303446909       -4.75259721838820        1.32826014850738
H            6.26741812938339       -4.28576720562596       -0.08942682349865
H            6.36696057629933       -3.32907786113035        1.39534468531409

          :  Hamiltonian                  GFN2-xTB          :
         :: total energy             -27.987359505038 Eh    ::
         :: gradient norm              0.000600696563 Eh/a0 ::
         :: HOMO-LUMO gap              3.956730742707 eV    ::
         :: SCC energy               -28.361209272678 Eh    ::
         :: -> dispersion             -0.013105286106 Eh    ::
         :: repulsion energy           0.373849767639 Eh    ::

    * Orbital Energies and Occupations

         #    Occupation            Energy/Eh            Energy/eV
      -------------------------------------------------------------
         1        2.0000           -0.8961028             -24.3842
       ...           ...                  ...                  ...
        13        2.0000           -0.7009904             -19.0749
        14        2.0000           -0.6943410             -18.8940
        15        2.0000           -0.6877151             -18.7137
        16        2.0000           -0.6743857             -18.3510
        17        2.0000           -0.6624340             -18.0257
        18        2.0000           -0.6575983             -17.8942
        19        2.0000           -0.6469219             -17.6036
        20        2.0000           -0.6393024             -17.3963
        21        2.0000           -0.6281628             -17.0932
        22        2.0000           -0.6180907             -16.8191
        23        2.0000           -0.5953756             -16.2010
        24        2.0000           -0.5851496             -15.9227
        25        2.0000           -0.5523754             -15.0309 (HOMO)
        26                         -0.4069682             -11.0742 (LUMO)
        27                         -0.3679248             -10.0117
        28                         -0.1860572              -5.0629
        29                         -0.1279540              -3.4818
        30                         -0.0912304              -2.4825
        31                         -0.0587465              -1.5986
        32                         -0.0505121              -1.3745
        33                         -0.0368046              -1.0015
        34                         -0.0216830              -0.5900
        35                         -0.0135891              -0.3698
        36                         -0.0001054              -0.0029
       ...                                ...                  ...
        47                          0.4679874              12.7346
      -------------------------------------------------------------
                  HL-Gap            0.1454072 Eh            3.9567 eV

     #   Z          covCN         q      C6AA      α(0)
     1   8 O        1.656    -0.435    21.548     6.266
     2   6 C        3.675     0.075    19.542     6.334
     3   6 C        3.742    -0.031    21.207     6.570
     4   7 N        2.873     0.080    19.853     6.618
     5   6 C        3.070     0.002    27.920     8.664
     6   6 C        3.074    -0.010    28.180     8.704
     7   7 N        2.867     0.081    19.841     6.616
     8   6 C        3.095     0.041    26.974     8.512
     9   6 C        3.692    -0.087    22.361     6.766
    10   1 H        0.805     0.314     0.681     1.296
    11   1 H        0.923     0.044     2.401     2.423
    12   1 H        0.924     0.063     2.163     2.300
    13   1 H        0.925     0.088     1.898     2.154
    14   1 H        0.924     0.110     1.694     2.036
    15   1 H        0.926     0.128     1.552     1.948
    16   1 H        0.926     0.112     1.682     2.028
    17   1 H        0.926     0.112     1.681     2.028
    18   1 H        0.925     0.100     1.789     2.092
    19   1 H        0.924     0.108     1.715     2.048
    20   1 H        0.925     0.109     1.709     2.044

Wiberg/Mayer (AO) data.
largest (>0.10) Wiberg bond orders for each atom

     #   Z sym  total        # sym  WBO       # sym  WBO       # sym  WBO
 ---------------------------------------------------------------------------
     1   8 O    1.956 --     2 C    1.011    10 H    0.887
     2   6 C    3.959 --     1 O    1.011     3 C    0.982    11 H    0.967
                            12 H    0.965
     3   6 C    3.945 --     2 C    0.982     4 N    0.978    13 H    0.967
                            14 H    0.958
     4   7 N    3.723 --     8 C    1.357     5 C    1.231     3 C    0.978
     5   6 C    3.946 --     6 C    1.591     4 N    1.231    15 H    0.956
     6   6 C    3.947 --     5 C    1.591     7 N    1.225    16 H    0.961
     7   7 N    3.723 --     8 C    1.364     6 C    1.225     9 C    0.991
     8   6 C    3.946 --     7 N    1.364     4 N    1.357    17 H    0.954
     9   6 C    3.933 --     7 N    0.991    18 H    0.976    20 H    0.964
                            19 H    0.960
    10   1 H    0.902 --     1 O    0.887
    11   1 H    0.998 --     2 C    0.967
    12   1 H    0.995 --     2 C    0.965
    13   1 H    0.992 --     3 C    0.967
    14   1 H    0.987 --     3 C    0.958
    15   1 H    0.983 --     5 C    0.956
    16   1 H    0.987 --     6 C    0.961
    17   1 H    0.988 --     8 C    0.954
    18   1 H    0.990 --     9 C    0.976
    19   1 H    0.988 --     9 C    0.960
    20   1 H    0.988 --     9 C    0.964
 ---------------------------------------------------------------------------

molecular dipole:
                 x           y           z       tot (Debye)
 q only:        6.327      -5.023       0.584
   full:        6.132      -5.083       0.774      20.341

           -------------------------------------------------
          | TOTAL ENERGY              -27.987359505038 Eh   |
          | GRADIENT NORM               0.000600696563 Eh/α |
          | HOMO-LUMO GAP               3.956730742707 eV   |
           -------------------------------------------------

 * finished run on 2024/12/20 at 06:53:43.546
