   * xtb version 6.7.1 (edcfbbe) compiled by 'conda@3ef47c1a292c' on 2024-11-25

   ID    Z sym.   atoms
    1    6 C      1-6, 8-26
    2    7 N      7
    3    1 H      27-72

          program call               : xtb C0690.xyz --opt --namespace C0690 --charge +1
          :  Hamiltonian                  GFN2-xTB          :
 * total energy  :   -79.4984634 Eh     change       -0.7598118E-09 Eh
 * total energy  :   -79.5091935 Eh     change       -0.1073013E-01 Eh
 * total energy  :   -79.5129116 Eh     change       -0.3718031E-02 Eh
 * total energy  :   -79.5137742 Eh     change       -0.8626102E-03 Eh
 * total energy  :   -79.5144283 Eh     change       -0.6541193E-03 Eh
 * total energy  :   -79.5148836 Eh     change       -0.4553402E-03 Eh
 * total energy  :   -79.5153237 Eh     change       -0.4400429E-03 Eh
 * total energy  :   -79.5158211 Eh     change       -0.4974640E-03 Eh
 * total energy  :   -79.5163999 Eh     change       -0.5787406E-03 Eh
 * total energy  :   -79.5170479 Eh     change       -0.6480321E-03 Eh
 * total energy  :   -79.5284255 Eh     change       -0.1646136E-04 Eh
 * total energy  :   -79.5284405 Eh     change       -0.1497988E-04 Eh
 * total energy  :   -79.5284507 Eh     change       -0.1022939E-04 Eh
 * total energy  :   -79.5284598 Eh     change       -0.9129517E-05 Eh
 * total energy  :   -79.5284665 Eh     change       -0.6614457E-05 Eh
 * total energy  :   -79.5284755 Eh     change       -0.9036775E-05 Eh
 * total energy  :   -79.5284840 Eh     change       -0.8460075E-05 Eh
 * total energy  :   -79.5284893 Eh     change       -0.5336321E-05 Eh
 * total energy  :   -79.5284940 Eh     change       -0.4729268E-05 Eh
   *** GEOMETRY OPTIMIZATION CONVERGED AFTER 75 ITERATIONS ***

 final structure:
================
72
 xtb: 6.7.1 (edcfbbe)
C           -1.64588958866570        0.50197893997305       -1.56378526901243
C           -0.99186004985099       -0.17524010260408       -0.36560151396617
C           -0.06998675492249        0.75117089159235        0.43089563489900
C           -0.76394196279476        1.96259529964978        1.05949070096310
C           -1.77236498019937        1.61266959925186        2.15740090429776
C           -1.23435695212675        1.01682750245746        3.46352917588201
N           -0.56012069202056        1.93629781722604        4.44339842608165
C           -1.06023838559340        3.34089056446883        4.32457832793136
C           -2.53999200761138        3.66101131378215        4.46649727131400
C           -2.84797307498789        5.00545897730125        4.25322537712652
C           -4.14209741094358        5.47166056024921        4.37265636343783
C           -5.16400506516983        4.59949803223086        4.71094411595807
C           -4.87258997316839        3.26575663248932        4.92104518918318
C           -3.57232260028852        2.79619847308609        4.80209201997510
C           -0.79534530239979        1.52025409370931        5.86922498852306
C           -0.94420125329391        0.02319541574391        6.15512887140670
C           -0.67600521396404       -0.27181775808216        7.63532471402970
C           -1.69257699109486        0.38214462401046        8.57096182155826
C           -1.56464258460990       -0.10794566492503       10.01443032499548
C           -0.25956998735613        0.31320664297788       10.67928911925336
C            0.92252125153083        2.01620606003462        4.15823872313873
C            1.86188507340039        0.93315159315625        4.70757200249716
C            2.12079262379824       -0.28158623061310        3.81026128081515
C            2.98645269729247        0.02425188823135        2.58456444492230
C            4.43587439358157        0.40352165173293        2.89794758418016
C            5.21831491820835       -0.70162143751869        3.59709703634334
H           -2.36810198257441        1.25337159410375       -1.25412753196629
H           -2.17034444061986       -0.23480685562431       -2.16602692316057
H           -0.89463963342682        0.97896504148607       -2.18856461838997
H           -1.76411442652208       -0.59331759613238        0.28362967594050
H           -0.38820978151147       -1.01151665636779       -0.72325299459864
H            0.42711746310420        0.15997127963851        1.20240467833133
H            0.70551041256116        1.12041495179341       -0.24319272615013
H           -0.00603968974811        2.65942935676897        1.42601748366634
H           -1.30773496146663        2.49084235188361        0.27610352314223
H           -2.39975824398410        2.47858592694596        2.36506610191016
H           -2.43881679937115        0.84930928652191        1.75135257393944
H           -2.08442019578617        0.56795756094504        3.97159101858878
H           -0.53251668417832        0.21930657817994        3.22880619070456
H           -0.54443723411604        3.92018719271766        5.09846655880559
H           -0.72876945408283        3.72589700220975        3.35704100782300
H           -2.05773543917537        5.69390810720585        3.99098364237958
H           -4.35115596438683        6.51587264342596        4.20250539259225
H           -6.17621012906910        4.95744435239040        4.80853811346494
H           -5.65794527627913        2.57380326330795        5.18248532035620
H           -3.41021037784411        1.74426227525387        4.97149092857450
H            0.03714392604416        1.91915956062584        6.45245508343462
H           -1.69762678840211        2.02363004294886        6.21407933794067
H           -1.95721283034829       -0.31202582990612        5.92567993601250
H           -0.25698833358725       -0.56808803112449        5.55189108832058
H           -0.71817257623832       -1.35297877388139        7.77646659879854
H            0.33161503034773        0.05489330078630        7.89725462592720
H           -1.57336692764502        1.46783755238356        8.55915451777978
H           -2.69935367241677        0.15097386782918        8.21451962843903
H           -2.39902467710135        0.29854781691472       10.58868613693477
H           -1.64931146363123       -1.19597156340937       10.03534439622671
H           -0.13465926160507        1.39296222019872       10.62905573453327
H           -0.26543160895220        0.02174110582533       11.72585490135103
H            0.59718005876125       -0.15977481306610       10.20609959990329
H            1.04141819261173        2.06705117878049        3.07707416013254
H            1.25983698721692        2.96628742196671        4.57693521786161
H            2.82444246353382        1.42536200447276        4.85719962615109
H            1.54437712554908        0.59550286420269        5.69039161292967
H            2.63014064061221       -1.03518394930715        4.41109690465550
H            1.18381533443169       -0.73410617459781        3.47803963139741
H            2.99638371249713       -0.86453385673010        1.95065277046641
H            2.53922998086861        0.83287219950362        2.00160481568471
H            4.92659779723112        0.63322398498563        1.95043516645209
H            4.47007194086037        1.31257986186033        3.50249475165738
H            5.15240531299495       -1.62980354735717        3.03463597765714
H            6.26597708282488       -0.42323754830852        3.67165978049714
H            4.84920526496781       -0.87904393159272        4.60434294723355

          :  Hamiltonian                  GFN2-xTB          :
         :: total energy             -79.528494024997 Eh    ::
         :: gradient norm              0.000224648932 Eh/a0 ::
         :: HOMO-LUMO gap              4.588160289139 eV    ::
         :: SCC energy               -80.762882738638 Eh    ::
         :: -> dispersion             -0.067603412567 Eh    ::
         :: repulsion energy           1.234388713641 Eh    ::

    * Orbital Energies and Occupations

         #    Occupation            Energy/Eh            Energy/eV
      -------------------------------------------------------------
         1        2.0000           -0.8358124             -22.7436
       ...           ...                  ...                  ...
        63        2.0000           -0.5384040             -14.6507
        64        2.0000           -0.5336710             -14.5219
        65        2.0000           -0.5280291             -14.3684
        66        2.0000           -0.5231786             -14.2364
        67        2.0000           -0.5218334             -14.1998
        68        2.0000           -0.5198161             -14.1449
        69        2.0000           -0.5186960             -14.1144
        70        2.0000           -0.5185752             -14.1111
        71        2.0000           -0.5164419             -14.0531
        72        2.0000           -0.5149134             -14.0115
        73        2.0000           -0.5135114             -13.9734
        74        2.0000           -0.5126770             -13.9507
        75        2.0000           -0.5089867             -13.8502 (HOMO)
        76                         -0.3403749              -9.2621 (LUMO)
        77                         -0.3368864              -9.1671
        78                         -0.2321176              -6.3162
        79                         -0.2090456              -5.6884
        80                         -0.1745666              -4.7502
        81                         -0.1560318              -4.2458
        82                         -0.1459589              -3.9717
        83                         -0.0659943              -1.7958
        84                         -0.0651516              -1.7729
        85                         -0.0543980              -1.4802
        86                         -0.0491377              -1.3371
       ...                                ...                  ...
       150                          0.5539354              15.0734
      -------------------------------------------------------------
                  HL-Gap            0.1686118 Eh            4.5882 eV

     #   Z          covCN         q      C6AA      α(0)
     1   6 C        3.751    -0.108    22.630     6.784
     2   6 C        3.799    -0.057    21.597     6.617
     3   6 C        3.801    -0.064    21.731     6.637
     4   6 C        3.799    -0.063    21.718     6.635
     5   6 C        3.799    -0.075    21.942     6.669
     6   6 C        3.743    -0.032    21.228     6.573
     7   7 N        3.614     0.099    19.527     6.563
     8   6 C        3.777    -0.034    21.201     6.560
     9   6 C        2.964    -0.002    28.066     8.690
    10   6 C        2.932    -0.039    28.974     8.828
    11   6 C        2.919    -0.020    28.502     8.755
    12   6 C        2.919    -0.022    28.545     8.761
    13   6 C        2.921    -0.025    28.622     8.773
    14   6 C        2.921    -0.043    29.075     8.842
    15   6 C        3.756    -0.036    21.276     6.577
    16   6 C        3.800    -0.069    21.825     6.652
    17   6 C        3.803    -0.065    21.743     6.639
    18   6 C        3.801    -0.063    21.705     6.633
    19   6 C        3.800    -0.058    21.611     6.619
    20   6 C        3.751    -0.107    22.612     6.781
    21   6 C        3.756    -0.037    21.281     6.577
    22   6 C        3.799    -0.076    21.957     6.672
    23   6 C        3.799    -0.063    21.706     6.634
    24   6 C        3.800    -0.064    21.729     6.637
    25   6 C        3.799    -0.057    21.599     6.617
    26   6 C        3.751    -0.108    22.628     6.784
    27   1 H        0.925     0.034     2.527     2.486
    28   1 H        0.925     0.045     2.386     2.416
    29   1 H        0.925     0.042     2.419     2.432
    30   1 H        0.924     0.028     2.619     2.531
    31   1 H        0.924     0.041     2.436     2.441
    32   1 H        0.924     0.027     2.625     2.534
    33   1 H        0.924     0.044     2.396     2.421
    34   1 H        0.924     0.021     2.722     2.580
    35   1 H        0.925     0.058     2.223     2.332
    36   1 H        0.925     0.055     2.258     2.350
    37   1 H        0.924     0.072     2.063     2.246
    38   1 H        0.925     0.078     2.001     2.212
    39   1 H        0.925     0.086     1.921     2.167
    40   1 H        0.924     0.075     2.026     2.226
    41   1 H        0.924     0.086     1.916     2.165
    42   1 H        0.926     0.039     2.455     2.450
    43   1 H        0.926     0.058     2.224     2.332
    44   1 H        0.926     0.058     2.218     2.329
    45   1 H        0.926     0.053     2.288     2.366
    46   1 H        0.926     0.034     2.535     2.490
    47   1 H        0.924     0.079     1.994     2.208
    48   1 H        0.925     0.088     1.898     2.154
    49   1 H        0.924     0.047     2.354     2.399
    50   1 H        0.925     0.055     2.262     2.352
    51   1 H        0.924     0.056     2.250     2.346
    52   1 H        0.924     0.041     2.440     2.443
    53   1 H        0.924     0.029     2.606     2.524
    54   1 H        0.924     0.033     2.544     2.494
    55   1 H        0.924     0.042     2.429     2.437
    56   1 H        0.924     0.039     2.461     2.453
    57   1 H        0.925     0.035     2.515     2.480
    58   1 H        0.925     0.046     2.371     2.408
    59   1 H        0.925     0.034     2.524     2.485
    60   1 H        0.925     0.090     1.882     2.145
    61   1 H        0.924     0.067     2.122     2.278
    62   1 H        0.924     0.071     2.071     2.251
    63   1 H        0.925     0.060     2.205     2.322
    64   1 H        0.925     0.057     2.236     2.338
    65   1 H        0.924     0.024     2.678     2.559
    66   1 H        0.924     0.046     2.376     2.411
    67   1 H        0.924     0.027     2.628     2.535
    68   1 H        0.924     0.042     2.425     2.436
    69   1 H        0.924     0.027     2.623     2.533
    70   1 H        0.925     0.042     2.417     2.431
    71   1 H        0.925     0.045     2.386     2.416
    72   1 H        0.925     0.034     2.534     2.489

Wiberg/Mayer (AO) data.
largest (>0.10) Wiberg bond orders for each atom

     #   Z sym  total        # sym  WBO       # sym  WBO       # sym  WBO
 ---------------------------------------------------------------------------
     1   6 C    3.995 --     2 C    1.021    29 H    0.987    28 H    0.986
                            27 H    0.985
     2   6 C    3.997 --     1 C    1.021     3 C    1.007    31 H    0.977
                            30 H    0.974
     3   6 C    3.996 --     2 C    1.007     4 C    1.007    33 H    0.976
                            32 H    0.971
     4   6 C    3.993 --     3 C    1.007     5 C    1.007    35 H    0.970
                            34 H    0.968
     5   6 C    3.985 --     4 C    1.007     6 C    1.006    36 H    0.966
                            37 H    0.960
     6   6 C    3.931 --     5 C    1.006    38 H    0.960    39 H    0.955
                             7 N    0.926
     7   7 N    3.795 --     8 C    0.938    15 C    0.928     6 C    0.926
                            21 C    0.925
     8   6 C    3.936 --     9 C    0.992    40 H    0.957    41 H    0.956
                             7 N    0.938
     9   6 C    3.979 --    14 C    1.426    10 C    1.393     8 C    0.992
                            12 C    0.110
    10   6 C    3.991 --    11 C    1.459     9 C    1.393    42 H    0.969
                            13 C    0.113
    11   6 C    3.989 --    10 C    1.459    12 C    1.426    43 H    0.968
                            14 C    0.108
    12   6 C    3.989 --    13 C    1.452    11 C    1.426    44 H    0.969
                             9 C    0.110
    13   6 C    3.991 --    12 C    1.452    14 C    1.426    45 H    0.969
                            10 C    0.113
    14   6 C    3.991 --     9 C    1.426    13 C    1.426    46 H    0.959
                            11 C    0.108
    15   6 C    3.931 --    16 C    1.005    47 H    0.964    48 H    0.961
                             7 N    0.928
    16   6 C    3.988 --    15 C    1.005    17 C    0.998    49 H    0.972
                            50 H    0.969
    17   6 C    3.991 --    18 C    1.008    16 C    0.998    52 H    0.974
                            51 H    0.973
    18   6 C    3.997 --    17 C    1.008    19 C    1.006    54 H    0.977
                            53 H    0.977
    19   6 C    3.996 --    20 C    1.021    18 C    1.006    56 H    0.977
                            55 H    0.977
    20   6 C    3.996 --    19 C    1.021    57 H    0.987    59 H    0.987
                            58 H    0.986
    21   6 C    3.931 --    22 C    1.005    61 H    0.970    60 H    0.956
                             7 N    0.925
    22   6 C    3.984 --    23 C    1.006    21 C    1.005    63 H    0.964
                            62 H    0.961
    23   6 C    3.993 --    24 C    1.007    22 C    1.006    64 H    0.970
                            65 H    0.965
    24   6 C    3.996 --    23 C    1.007    25 C    1.007    66 H    0.975
                            67 H    0.972
    25   6 C    3.996 --    26 C    1.021    24 C    1.007    68 H    0.977
                            69 H    0.974
    26   6 C    3.995 --    25 C    1.021    70 H    0.987    71 H    0.986
                            72 H    0.985
    27   1 H    0.999 --     1 C    0.985
    28   1 H    0.998 --     1 C    0.986
    29   1 H    0.998 --     1 C    0.987
    30   1 H    0.999 --     2 C    0.974
    31   1 H    0.998 --     2 C    0.977
    32   1 H    0.999 --     3 C    0.971
    33   1 H    0.998 --     3 C    0.976
    34   1 H    1.000 --     4 C    0.968
    35   1 H    0.996 --     4 C    0.970
    36   1 H    0.997 --     5 C    0.966
    37   1 H    0.995 --     5 C    0.960
    38   1 H    0.994 --     6 C    0.960
    39   1 H    0.992 --     6 C    0.955
    40   1 H    0.994 --     8 C    0.957
    41   1 H    0.992 --     8 C    0.956
    42   1 H    0.998 --    10 C    0.969
    43   1 H    0.996 --    11 C    0.968
    44   1 H    0.996 --    12 C    0.969
    45   1 H    0.997 --    13 C    0.969
    46   1 H    0.999 --    14 C    0.959
    47   1 H    0.994 --    15 C    0.964
    48   1 H    0.992 --    15 C    0.961
    49   1 H    0.998 --    16 C    0.972
    50   1 H    0.997 --    16 C    0.969
    51   1 H    0.997 --    17 C    0.973
    52   1 H    0.998 --    17 C    0.974
    53   1 H    0.999 --    18 C    0.977
    54   1 H    0.999 --    18 C    0.977
    55   1 H    0.998 --    19 C    0.977
    56   1 H    0.998 --    19 C    0.977
    57   1 H    0.999 --    20 C    0.987
    58   1 H    0.998 --    20 C    0.986
    59   1 H    0.999 --    20 C    0.987
    60   1 H    0.992 --    21 C    0.956
    61   1 H    0.996 --    21 C    0.970
    62   1 H    0.995 --    22 C    0.961
    63   1 H    0.996 --    22 C    0.964
    64   1 H    0.996 --    23 C    0.970
    65   1 H    0.999 --    23 C    0.965
    66   1 H    0.998 --    24 C    0.975
    67   1 H    0.999 --    24 C    0.972
    68   1 H    0.998 --    25 C    0.977
    69   1 H    0.999 --    25 C    0.974
    70   1 H    0.998 --    26 C    0.987
    71   1 H    0.998 --    26 C    0.986
    72   1 H    0.999 --    26 C    0.985
 ---------------------------------------------------------------------------

molecular dipole:
                 x           y           z       tot (Debye)
 q only:       -1.316       3.403       8.283
   full:       -1.279       3.520       8.295      23.132

           -------------------------------------------------
          | TOTAL ENERGY              -79.528494024997 Eh   |
          | GRADIENT NORM               0.000224648932 Eh/α |
          | HOMO-LUMO GAP               4.588160289139 eV   |
           -------------------------------------------------

 * finished run on 2024/12/20 at 06:53:29.402
