   * xtb version 6.7.1 (edcfbbe) compiled by 'conda@3ef47c1a292c' on 2024-11-25

   ID    Z sym.   atoms
    1    6 C      1, 3, 4, 6-10
    2    8 O      2
    3    7 N      5
    4    1 H      11-30

          program call               : xtb C0691.xyz --opt --namespace C0691 --charge +1
          :  Hamiltonian                  GFN2-xTB          :
 * total energy  :   -33.9040752 Eh     change       -0.5577760E-10 Eh
 * total energy  :   -33.9111012 Eh     change       -0.7025977E-02 Eh
 * total energy  :   -33.9129099 Eh     change       -0.1808722E-02 Eh
 * total energy  :   -33.9130305 Eh     change       -0.1205486E-03 Eh
 * total energy  :   -33.9131802 Eh     change       -0.1497132E-03 Eh
 * total energy  :   -33.9132543 Eh     change       -0.7412554E-04 Eh
 * total energy  :   -33.9133882 Eh     change       -0.1338236E-03 Eh
 * total energy  :   -33.9134485 Eh     change       -0.6037079E-04 Eh
 * total energy  :   -33.9135007 Eh     change       -0.5218804E-04 Eh
 * total energy  :   -33.9135184 Eh     change       -0.1766718E-04 Eh
 * total energy  :   -33.9137973 Eh     change       -0.5302353E-04 Eh
 * total energy  :   -33.9138319 Eh     change       -0.3456347E-04 Eh
 * total energy  :   -33.9138607 Eh     change       -0.2882641E-04 Eh
 * total energy  :   -33.9138801 Eh     change       -0.1937143E-04 Eh
 * total energy  :   -33.9138901 Eh     change       -0.9968708E-05 Eh
 * total energy  :   -33.9138964 Eh     change       -0.6383145E-05 Eh
 * total energy  :   -33.9139055 Eh     change       -0.9104013E-05 Eh
 * total energy  :   -33.9139115 Eh     change       -0.5966303E-05 Eh
 * total energy  :   -33.9139154 Eh     change       -0.3886740E-05 Eh
   *** GEOMETRY OPTIMIZATION CONVERGED AFTER 26 ITERATIONS ***

 final structure:
================
30
 xtb: 6.7.1 (edcfbbe)
C            1.43283362709529        0.83747518421405        1.71353476311752
O            1.04848339889550       -0.14167846956780        0.76754610615429
C            0.99564883519486       -1.44238984998285        1.30187089376099
C            0.30550262054766       -2.40288564865090        0.32766963370199
N            0.85061530235254       -2.45211953845488       -1.06145941748975
C            2.34682801143414       -2.43296999964494       -1.07893407918030
C            3.03400057079548       -3.61141528691896       -0.40437923758215
C            0.37127039477788       -3.69554180512151       -1.74267523500971
C           -1.13625019844031       -3.83291913847226       -1.89332123564957
C            0.39007107940591       -1.26513654851557       -1.81181199058376
H            0.71971977930248        0.88206642315907        2.54133042882703
H            1.43780258826945        1.78660651053189        1.18412701259479
H            2.43173825653665        0.63049011232703        2.10956871829606
H            2.00635905884280       -1.78464060111228        1.56849894861758
H            0.39662704888253       -1.45010184584795        2.22532015242300
H            0.35521405229460       -3.40361201581447        0.75943614775658
H           -0.74074281420925       -2.10564214573380        0.25091124631521
H            2.65804111467483       -2.39719154904117       -2.12508926249201
H            2.65632948123529       -1.49873743247926       -0.60972554934327
H            2.91704337967326       -4.53407638825607       -0.96555486867905
H            4.09886471756499       -3.39560949836696       -0.36220537337700
H            2.69125968250573       -3.77166480102883        0.61342386550769
H            0.83062838486256       -3.71627164825935       -2.73331847239939
H            0.74297688113018       -4.54829109809159       -1.17392675049093
H           -1.56330912653312       -3.06910383927955       -2.53583085846509
H           -1.33346870060337       -4.79385848593876       -2.36242862332743
H           -1.65104514091353       -3.82773251463581       -0.93732212113041
H           -0.69528926063401       -1.21827795857431       -1.81675718909393
H            0.76647167929037       -0.36535969925533       -1.33044733448472
H            0.74819529577481       -1.31122042318703       -2.83822031829444

          :  Hamiltonian                  GFN2-xTB          :
         :: total energy             -33.913915401313 Eh    ::
         :: gradient norm              0.000221098035 Eh/a0 ::
         :: HOMO-LUMO gap              8.274279820922 eV    ::
         :: SCC energy               -34.341098756025 Eh    ::
         :: -> dispersion             -0.021069239325 Eh    ::
         :: repulsion energy           0.427183354712 Eh    ::

    * Orbital Energies and Occupations

         #    Occupation            Energy/Eh            Energy/eV
      -------------------------------------------------------------
         1        2.0000           -0.8570344             -23.3211
       ...           ...                  ...                  ...
        19        2.0000           -0.6521620             -17.7462
        20        2.0000           -0.6377600             -17.3543
        21        2.0000           -0.6349130             -17.2769
        22        2.0000           -0.6312657             -17.1776
        23        2.0000           -0.6271244             -17.0649
        24        2.0000           -0.6161481             -16.7662
        25        2.0000           -0.6116517             -16.6439
        26        2.0000           -0.6066555             -16.5079
        27        2.0000           -0.6039919             -16.4355
        28        2.0000           -0.5990247             -16.3003
        29        2.0000           -0.5936033             -16.1528
        30        2.0000           -0.5806219             -15.7995
        31        2.0000           -0.5365278             -14.5997 (HOMO)
        32                         -0.2324536              -6.3254 (LUMO)
        33                         -0.1677920              -4.5659
        34                         -0.1609512              -4.3797
        35                         -0.1435780              -3.9070
        36                         -0.1154205              -3.1408
        37                         -0.0650180              -1.7692
        38                         -0.0486282              -1.3232
        39                         -0.0419701              -1.1421
        40                         -0.0349730              -0.9517
        41                         -0.0225625              -0.6140
        42                         -0.0053329              -0.1451
       ...                                ...                  ...
        60                          0.1475307               4.0145
      -------------------------------------------------------------
                  HL-Gap            0.3040742 Eh            8.2743 eV

     #   Z          covCN         q      C6AA      α(0)
     1   6 C        3.651     0.026    20.445     6.494
     2   8 O        1.700    -0.320    19.340     5.937
     3   6 C        3.700     0.072    19.526     6.319
     4   6 C        3.755    -0.040    21.337     6.587
     5   7 N        3.619     0.122    19.160     6.501
     6   6 C        3.762    -0.037    21.280     6.576
     7   6 C        3.751    -0.129    23.037     6.845
     8   6 C        3.759    -0.036    21.259     6.573
     9   6 C        3.751    -0.131    23.081     6.852
    10   6 C        3.721    -0.102    22.561     6.784
    11   1 H        0.924     0.049     2.328     2.386
    12   1 H        0.925     0.078     1.998     2.211
    13   1 H        0.924     0.044     2.392     2.418
    14   1 H        0.923     0.047     2.353     2.399
    15   1 H        0.923     0.061     2.190     2.314
    16   1 H        0.924     0.089     1.890     2.150
    17   1 H        0.924     0.101     1.779     2.086
    18   1 H        0.924     0.084     1.940     2.178
    19   1 H        0.924     0.100     1.788     2.091
    20   1 H        0.925     0.066     2.130     2.282
    21   1 H        0.925     0.086     1.923     2.168
    22   1 H        0.925     0.062     2.175     2.306
    23   1 H        0.924     0.086     1.919     2.166
    24   1 H        0.924     0.087     1.907     2.159
    25   1 H        0.925     0.069     2.093     2.262
    26   1 H        0.925     0.086     1.917     2.165
    27   1 H        0.925     0.064     2.149     2.293
    28   1 H        0.925     0.099     1.793     2.094
    29   1 H        0.925     0.124     1.583     1.967
    30   1 H        0.925     0.091     1.870     2.138

Wiberg/Mayer (AO) data.
largest (>0.10) Wiberg bond orders for each atom

     #   Z sym  total        # sym  WBO       # sym  WBO       # sym  WBO
 ---------------------------------------------------------------------------
     1   6 C    3.934 --    13 H    0.979    11 H    0.978    12 H    0.977
                             2 O    0.975
     2   8 O    2.070 --     3 C    0.994     1 C    0.975
     3   6 C    3.959 --     4 C    1.002     2 O    0.994    14 H    0.961
                            15 H    0.958
     4   6 C    3.943 --     3 C    1.002    16 H    0.966    17 H    0.963
                             5 N    0.940
     5   7 N    3.806 --    10 C    0.956     4 C    0.940     8 C    0.927
                             6 C    0.926
     6   6 C    3.931 --     7 C    1.023    18 H    0.967    19 H    0.963
                             5 N    0.926
     7   6 C    3.983 --     6 C    1.023    20 H    0.981    22 H    0.979
                            21 H    0.973
     8   6 C    3.934 --     9 C    1.023    23 H    0.967    24 H    0.965
                             5 N    0.927
     9   6 C    3.982 --     8 C    1.023    27 H    0.981    25 H    0.980
                            26 H    0.973
    10   6 C    3.919 --    30 H    0.976    28 H    0.971    29 H    0.961
                             5 N    0.956
    11   1 H    0.998 --     1 C    0.978
    12   1 H    0.994 --     1 C    0.977
    13   1 H    0.998 --     1 C    0.979
    14   1 H    0.998 --     3 C    0.961
    15   1 H    0.996 --     3 C    0.958
    16   1 H    0.992 --     4 C    0.966
    17   1 H    0.990 --     4 C    0.963
    18   1 H    0.993 --     6 C    0.967
    19   1 H    0.990 --     6 C    0.963
    20   1 H    0.996 --     7 C    0.981
    21   1 H    0.992 --     7 C    0.973
    22   1 H    0.996 --     7 C    0.979
    23   1 H    0.992 --     8 C    0.967
    24   1 H    0.992 --     8 C    0.965
    25   1 H    0.995 --     9 C    0.980
    26   1 H    0.992 --     9 C    0.973
    27   1 H    0.996 --     9 C    0.981
    28   1 H    0.990 --    10 C    0.971
    29   1 H    0.985 --    10 C    0.961
    30   1 H    0.992 --    10 C    0.976
 ---------------------------------------------------------------------------

molecular dipole:
                 x           y           z       tot (Debye)
 q only:        1.728      -4.621      -1.367
   full:        1.772      -4.669      -1.208      13.060

           -------------------------------------------------
          | TOTAL ENERGY              -33.913915401313 Eh   |
          | GRADIENT NORM               0.000221098035 Eh/α |
          | HOMO-LUMO GAP               8.274279820922 eV   |
           -------------------------------------------------

 * finished run on 2024/12/20 at 06:53:30.187
