   * xtb version 6.7.1 (edcfbbe) compiled by 'conda@3ef47c1a292c' on 2024-11-25

   ID    Z sym.   atoms
    1    6 C      1-6, 8-13, 17-28
    2   16 S      7, 14
    3    8 O      15, 16
    4    1 H      29-47

          program call               : xtb C0699.xyz --opt --namespace C0699 --charge +1
          :  Hamiltonian                  GFN2-xTB          :
 * total energy  :   -75.1896880 Eh     change       -0.8810019E-09 Eh
 * total energy  :   -75.1992873 Eh     change       -0.9599294E-02 Eh
 * total energy  :   -75.2021425 Eh     change       -0.2855230E-02 Eh
 * total energy  :   -75.2030184 Eh     change       -0.8758685E-03 Eh
 * total energy  :   -75.2038508 Eh     change       -0.8323811E-03 Eh
 * total energy  :   -75.2045718 Eh     change       -0.7210049E-03 Eh
 * total energy  :   -75.2052599 Eh     change       -0.6881478E-03 Eh
 * total energy  :   -75.2061420 Eh     change       -0.8820919E-03 Eh
 * total energy  :   -75.2069418 Eh     change       -0.7997435E-03 Eh
 * total energy  :   -75.2078497 Eh     change       -0.9079188E-03 Eh
 * total energy  :   -75.2217234 Eh     change       -0.7108397E-04 Eh
 * total energy  :   -75.2217589 Eh     change       -0.3556545E-04 Eh
 * total energy  :   -75.2217724 Eh     change       -0.1343781E-04 Eh
 * total energy  :   -75.2217852 Eh     change       -0.1285242E-04 Eh
 * total energy  :   -75.2218005 Eh     change       -0.1526696E-04 Eh
 * total energy  :   -75.2218173 Eh     change       -0.1685619E-04 Eh
 * total energy  :   -75.2218258 Eh     change       -0.8450873E-05 Eh
 * total energy  :   -75.2218319 Eh     change       -0.6146670E-05 Eh
 * total energy  :   -75.2218368 Eh     change       -0.4918433E-05 Eh
   *** GEOMETRY OPTIMIZATION CONVERGED AFTER 156 ITERATIONS ***

 final structure:
================
47
 xtb: 6.7.1 (edcfbbe)
C            0.24932109448111       -1.53014731485259        0.91301582097789
C           -1.00979428137176       -1.06239863411133        0.56238912635351
C           -2.11460836455348       -1.46394103131716        1.29395444741020
C           -1.95781638986707       -2.33266490900752        2.36224335308530
C           -0.69765153866189       -2.80071137141169        2.70008887826639
C            0.41430379776697       -2.40441173647859        1.97552232020727
S            1.61547967453105       -0.97245695338922       -0.14333178942659
C            2.40504809848329        0.23834685357325        0.94356038015549
C            3.64877206626300        0.73547665085924        0.58589049488043
C            4.28419169887225        1.67187846411156        1.37902367589279
C            3.66607800784461        2.13196033737819        2.53179713947190
C            2.41217461217834        1.65311166028952        2.87662278885547
C            1.77558126775807        0.70744986164466        2.08696410453796
S            4.44583452146515        0.14442828439666       -0.92941733659361
O            5.43767889339771       -0.82143360440396       -0.56049559495757
O            3.33198975169598       -0.30955397905530       -1.74120824307307
C            5.20124439285047        1.58240871241002       -1.66562282821875
C            4.38092374092983        2.56152933932281       -2.19513968393578
C            4.96231406488494        3.68422448334713       -2.76031352065180
C            6.34409344270104        3.80947505791987       -2.78421406658093
C            7.15257163508251        2.81722700467129       -2.25041875524678
C            6.57907532463359        1.69024118872268       -1.68333914093414
C            2.73008900959933       -2.37650566984539       -0.00256603766017
C            3.61052548355470       -2.51967815965882        1.05553836490842
C            4.45033994758664       -3.62085170468001        1.07619129162818
C            4.40721175604851       -4.55381588416868        0.05377547645946
C            3.52040351926315       -4.39485224510923       -0.99881515391214
C            2.67552502209143       -3.29933749672143       -1.03326757905573
H           -1.11745768293913       -0.39188899140552       -0.27619985946927
H           -3.09462977466884       -1.10320090882738        1.02507255827435
H           -2.81865026012105       -2.65061317454030        2.92907934757623
H           -0.57553368315972       -3.48151365801938        3.52792598791497
H            1.39151253481725       -2.77910428329561        2.23635283806347
H            5.25752064924381        2.03303697577501        1.08505755996432
H            4.15811785497922        2.86282508200710        3.15352273341736
H            1.92029016927996        2.01357997231622        3.76630168104983
H            0.80030771747555        0.34043478021499        2.36571868302314
H            3.31066092021405        2.42716277276485       -2.17516127940026
H            4.34042738617315        4.45692508393788       -3.18431188446140
H            6.79327642944263        4.68465290503376       -3.22784185592181
H            8.22623596717979        2.91746182509954       -2.27842959115132
H            7.17300290279694        0.89162377514421       -1.26733427096541
H            3.66156946764179       -1.78732119885376        1.84759220390675
H            5.14596518713634       -3.73867480464601        1.89195435872846
H            5.07312133976060       -5.40223708813020        0.07359395660679
H            3.49098368892067       -5.11606375720950       -1.80024073512286
H            1.99401893640734       -3.14814251180423       -1.85506036483625

          :  Hamiltonian                  GFN2-xTB          :
         :: total energy             -75.221836849737 Eh    ::
         :: gradient norm              0.000523175901 Eh/a0 ::
         :: HOMO-LUMO gap              3.363074801535 eV    ::
         :: SCC energy               -76.484109900389 Eh    ::
         :: -> dispersion             -0.067756192898 Eh    ::
         :: repulsion energy           1.262273050651 Eh    ::

    * Orbital Energies and Occupations

         #    Occupation            Energy/Eh            Energy/eV
      -------------------------------------------------------------
         1        2.0000           -0.8916011             -24.2617
       ...           ...                  ...                  ...
        57        2.0000           -0.5502802             -14.9739
        58        2.0000           -0.5492497             -14.9458
        59        2.0000           -0.5464823             -14.8705
        60        2.0000           -0.5427405             -14.7687
        61        2.0000           -0.5398064             -14.6889
        62        2.0000           -0.5386974             -14.6587
        63        2.0000           -0.5367456             -14.6056
        64        2.0000           -0.5349341             -14.5563
        65        2.0000           -0.5286110             -14.3842
        66        2.0000           -0.5254472             -14.2981
        67        2.0000           -0.5253089             -14.2944
        68        2.0000           -0.5245781             -14.2745
        69        2.0000           -0.5179452             -14.0940 (HOMO)
        70                         -0.3943545             -10.7309 (LUMO)
        71                         -0.3809259             -10.3655
        72                         -0.3781720             -10.2906
        73                         -0.3625794              -9.8663
        74                         -0.3577263              -9.7342
        75                         -0.3525785              -9.5942
        76                         -0.3438301              -9.3561
        77                         -0.3432222              -9.3396
        78                         -0.3280179              -8.9258
        79                         -0.3166550              -8.6166
        80                         -0.2656442              -7.2285
       ...                                ...                  ...
       141                          1.0925365              29.7294
      -------------------------------------------------------------
                  HL-Gap            0.1235907 Eh            3.3631 eV

     #   Z          covCN         q      C6AA      α(0)
     1   6 C        2.967    -0.012    28.310     8.727
     2   6 C        2.969    -0.029    28.732     8.792
     3   6 C        2.920    -0.017    28.432     8.744
     4   6 C        2.919    -0.015    28.393     8.738
     5   6 C        2.922    -0.018    28.469     8.750
     6   6 C        2.934    -0.030    28.750     8.794
     7  16 S        3.282     0.311   128.998    19.116
     8   6 C        2.996     0.008    27.833     8.654
     9   6 C        3.002    -0.087    30.166     9.009
    10   6 C        2.951    -0.021    28.536     8.762
    11   6 C        2.919    -0.013    28.327     8.728
    12   6 C        2.921    -0.015    28.381     8.736
    13   6 C        2.942    -0.026    28.662     8.781
    14  16 S        3.862     1.007   106.443    17.364
    15   8 O        0.860    -0.538    24.647     6.656
    16   8 O        0.968    -0.557    25.027     6.710
    17   6 C        2.974    -0.077    29.918     8.972
    18   6 C        2.963    -0.026    28.649     8.779
    19   6 C        2.922    -0.017    28.433     8.744
    20   6 C        2.920    -0.015    28.379     8.736
    21   6 C        2.922    -0.016    28.419     8.742
    22   6 C        2.959    -0.023    28.584     8.769
    23   6 C        2.973     0.009    27.805     8.649
    24   6 C        2.940    -0.025    28.636     8.776
    25   6 C        2.924    -0.014    28.353     8.732
    26   6 C        2.919    -0.013    28.342     8.730
    27   6 C        2.923    -0.014    28.367     8.734
    28   6 C        2.974    -0.021    28.516     8.759
    29   1 H        0.926     0.060     2.201     2.320
    30   1 H        0.926     0.072     2.065     2.247
    31   1 H        0.926     0.072     2.061     2.245
    32   1 H        0.926     0.069     2.101     2.267
    33   1 H        0.926     0.053     2.278     2.360
    34   1 H        0.926     0.067     2.115     2.274
    35   1 H        0.926     0.085     1.927     2.171
    36   1 H        0.926     0.085     1.933     2.174
    37   1 H        0.926     0.073     2.055     2.242
    38   1 H        0.926     0.054     2.276     2.359
    39   1 H        0.926     0.070     2.086     2.259
    40   1 H        0.926     0.073     2.051     2.240
    41   1 H        0.926     0.073     2.054     2.241
    42   1 H        0.926     0.073     2.055     2.242
    43   1 H        0.926     0.042     2.418     2.432
    44   1 H        0.926     0.070     2.085     2.258
    45   1 H        0.926     0.074     2.046     2.237
    46   1 H        0.926     0.074     2.044     2.236
    47   1 H        0.926     0.067     2.115     2.274

Wiberg/Mayer (AO) data.
largest (>0.10) Wiberg bond orders for each atom

     #   Z sym  total        # sym  WBO       # sym  WBO       # sym  WBO
 ---------------------------------------------------------------------------
     1   6 C    3.948 --     6 C    1.410     2 C    1.405     7 S    0.929
                             4 C    0.104
     2   6 C    3.987 --     3 C    1.441     1 C    1.405    29 H    0.966
                             5 C    0.108
     3   6 C    3.986 --     2 C    1.441     4 C    1.437    30 H    0.966
                             6 C    0.109
     4   6 C    3.986 --     3 C    1.437     5 C    1.435    31 H    0.967
                             1 C    0.104
     5   6 C    3.987 --     6 C    1.439     4 C    1.435    32 H    0.966
                             2 C    0.108
     6   6 C    3.989 --     5 C    1.439     1 C    1.410    33 H    0.961
                             3 C    0.109
     7  16 S    3.189 --     8 C    0.941     1 C    0.929    23 C    0.924
                            16 O    0.117
     8   6 C    3.959 --    13 C    1.413     9 C    1.395     7 S    0.941
                            11 C    0.104
     9   6 C    3.972 --    10 C    1.428     8 C    1.395    14 S    0.761
                            12 C    0.106
    10   6 C    3.986 --    11 C    1.431     9 C    1.428    34 H    0.962
                            13 C    0.106
    11   6 C    3.984 --    12 C    1.438    10 C    1.431    35 H    0.964
                             8 C    0.104
    12   6 C    3.985 --    11 C    1.438    13 C    1.432    36 H    0.963
                             9 C    0.106
    13   6 C    3.984 --    12 C    1.432     8 C    1.413    37 H    0.958
                            10 C    0.106
    14  16 S    4.881 --    15 O    1.680    16 O    1.568     9 C    0.761
                            17 C    0.759
    15   8 O    1.975 --    14 S    1.680    16 O    0.103
    16   8 O    1.974 --    14 S    1.568     7 S    0.117    15 O    0.103
    17   6 C    3.954 --    22 C    1.415    18 C    1.411    14 S    0.759
                            20 C    0.104
    18   6 C    3.989 --    19 C    1.443    17 C    1.411    38 H    0.966
                            21 C    0.111
    19   6 C    3.988 --    18 C    1.443    20 C    1.434    39 H    0.967
                            22 C    0.109
    20   6 C    3.985 --    21 C    1.440    19 C    1.434    40 H    0.967
                            17 C    0.104
    21   6 C    3.987 --    20 C    1.440    22 C    1.435    41 H    0.966
                            18 C    0.111
    22   6 C    3.985 --    21 C    1.435    17 C    1.415    42 H    0.962
                            19 C    0.109
    23   6 C    3.935 --    24 C    1.409    28 C    1.408     7 S    0.924
                            26 C    0.104
    24   6 C    3.989 --    25 C    1.432    23 C    1.409    43 H    0.964
                            27 C    0.109
    25   6 C    3.987 --    26 C    1.438    24 C    1.432    44 H    0.965
                            28 C    0.109
    26   6 C    3.986 --    25 C    1.438    27 C    1.436    45 H    0.967
                            23 C    0.104
    27   6 C    3.986 --    28 C    1.438    26 C    1.436    46 H    0.965
                            24 C    0.109
    28   6 C    3.986 --    27 C    1.438    23 C    1.408    47 H    0.965
                            25 C    0.109
    29   1 H    0.996 --     2 C    0.966
    30   1 H    0.994 --     3 C    0.966
    31   1 H    0.994 --     4 C    0.967
    32   1 H    0.995 --     5 C    0.966
    33   1 H    0.997 --     6 C    0.961
    34   1 H    0.995 --    10 C    0.962
    35   1 H    0.991 --    11 C    0.964
    36   1 H    0.992 --    12 C    0.963
    37   1 H    0.994 --    13 C    0.958
    38   1 H    0.997 --    18 C    0.966
    39   1 H    0.994 --    19 C    0.967
    40   1 H    0.994 --    20 C    0.967
    41   1 H    0.993 --    21 C    0.966
    42   1 H    0.995 --    22 C    0.962
    43   1 H    0.998 --    24 C    0.964
    44   1 H    0.995 --    25 C    0.965
    45   1 H    0.993 --    26 C    0.967
    46   1 H    0.994 --    27 C    0.965
    47   1 H    0.995 --    28 C    0.965
 ---------------------------------------------------------------------------

molecular dipole:
                 x           y           z       tot (Debye)
 q only:        4.480       0.082       1.557
   full:        4.691       0.120       1.509      12.530

           -------------------------------------------------
          | TOTAL ENERGY              -75.221836849737 Eh   |
          | GRADIENT NORM               0.000523175901 Eh/α |
          | HOMO-LUMO GAP               3.363074801535 eV   |
           -------------------------------------------------

 * finished run on 2024/12/20 at 06:53:56.553
