   * xtb version 6.7.1 (edcfbbe) compiled by 'conda@3ef47c1a292c' on 2024-11-25

   ID    Z sym.   atoms
    1    6 C      1-6, 10, 11
    2    7 N      7-9
    3    1 H      12-27

          program call               : xtb C0709.xyz --opt --namespace C0709 --charge +1
          :  Hamiltonian                  GFN2-xTB          :
 * total energy  :   -33.6560140 Eh     change       -0.2332001E-10 Eh
 * total energy  :   -33.6644381 Eh     change       -0.8424087E-02 Eh
 * total energy  :   -33.6656188 Eh     change       -0.1180677E-02 Eh
 * total energy  :   -33.6657761 Eh     change       -0.1572822E-03 Eh
 * total energy  :   -33.6658937 Eh     change       -0.1176608E-03 Eh
 * total energy  :   -33.6659188 Eh     change       -0.2508954E-04 Eh
 * total energy  :   -33.6659548 Eh     change       -0.3593467E-04 Eh
 * total energy  :   -33.6659827 Eh     change       -0.2796245E-04 Eh
 * total energy  :   -33.6660105 Eh     change       -0.2776713E-04 Eh
 * total energy  :   -33.6660200 Eh     change       -0.9495226E-05 Eh
 * total energy  :   -33.6660237 Eh     change       -0.3700179E-05 Eh
   *** GEOMETRY OPTIMIZATION CONVERGED AFTER 11 ITERATIONS ***

 final structure:
================
27
 xtb: 6.7.1 (edcfbbe)
C            1.20260472525394        0.02611702399119       -0.25416438407421
C            0.55598444078944       -1.26396359769552       -0.74397238960326
C            0.90549048997005       -2.48052342378487        0.11268296486413
C            0.36741254355684       -2.40425702879181        1.55595732997033
C           -1.11010758448597       -2.35801319655672        1.58531511756997
C           -1.98314204025941       -1.28740206166195        1.61022385118007
N           -3.22285550354065       -1.81518569033113        1.57534888807606
N           -3.17539395789412       -3.10997219949274        1.53015482748286
N           -1.91720187501629       -3.44750274012994        1.53328322781312
C           -1.54387948406373       -4.83055679976916        1.50115521055216
C           -4.47759116100418       -1.12361694780111        1.57924521645349
H            0.81192135115012        0.33465284313083        0.71286697163409
H            1.01369389983931        0.82807592748596       -0.96236667277714
H            2.27851409684416       -0.09952175945627       -0.16627393908527
H           -0.52894551259570       -1.13829404915408       -0.79424431314194
H            0.90423123649168       -1.46339395556684       -1.75819469787714
H            0.52485872868364       -3.38119746079949       -0.37297730734969
H            1.98979408268361       -2.57156388484164        0.17240370859141
H            0.72031393211041       -3.27512531554029        2.11018374592261
H            0.76044913959063       -1.50875280394926        2.03545349817401
H           -1.79495342620251       -0.23452415674903        1.65330214706876
H           -0.97145160743897       -5.05172347149396        0.60037263139928
H           -0.94045334699898       -5.08106733920302        2.37415857577190
H           -2.45571272205331       -5.42416327885371        1.50649616306882
H           -4.55845492600493       -0.49316263764759        2.46491331657664
H           -4.56582136722324       -0.49618170208317        0.69155421421426
H           -5.27511415218253       -1.86394029325444        1.58202209752450

          :  Hamiltonian                  GFN2-xTB          :
         :: total energy             -33.666023688863 Eh    ::
         :: gradient norm              0.000428047824 Eh/a0 ::
         :: HOMO-LUMO gap              2.981247553221 eV    ::
         :: SCC energy               -34.140793606147 Eh    ::
         :: -> dispersion             -0.019713142340 Eh    ::
         :: repulsion energy           0.474769917284 Eh    ::

    * Orbital Energies and Occupations

         #    Occupation            Energy/Eh            Energy/eV
      -------------------------------------------------------------
         1        2.0000           -0.9263671             -25.2077
       ...           ...                  ...                  ...
        19        2.0000           -0.6479447             -17.6315
        20        2.0000           -0.6463641             -17.5885
        21        2.0000           -0.6415384             -17.4571
        22        2.0000           -0.6337292             -17.2446
        23        2.0000           -0.6169213             -16.7873
        24        2.0000           -0.6110671             -16.6280
        25        2.0000           -0.6095761             -16.5874
        26        2.0000           -0.5973227             -16.2540
        27        2.0000           -0.5902297             -16.0610
        28        2.0000           -0.5819520             -15.8357
        29        2.0000           -0.5581992             -15.1894
        30        2.0000           -0.5504451             -14.9784
        31        2.0000           -0.5450858             -14.8325 (HOMO)
        32                         -0.4355270             -11.8513 (LUMO)
        33                         -0.3814157             -10.3789
        34                         -0.1889490              -5.1416
        35                         -0.1489788              -4.0539
        36                         -0.0733785              -1.9967
        37                         -0.0601377              -1.6364
        38                         -0.0460965              -1.2543
        39                         -0.0323889              -0.8813
        40                         -0.0233496              -0.6354
        41                         -0.0173826              -0.4730
        42                         -0.0025761              -0.0701
       ...                                ...                  ...
        60                          0.4394872              11.9591
      -------------------------------------------------------------
                  HL-Gap            0.1095588 Eh            2.9812 eV

     #   Z          covCN         q      C6AA      α(0)
     1   6 C        3.752    -0.113    22.718     6.797
     2   6 C        3.800    -0.059    21.639     6.623
     3   6 C        3.803    -0.062    21.690     6.630
     4   6 C        3.803    -0.074    21.915     6.665
     5   6 C        3.044     0.053    26.772     8.486
     6   6 C        3.024    -0.023    28.545     8.764
     7   7 N        3.022     0.160    18.549     6.397
     8   7 N        2.150    -0.115    24.039     7.275
     9   7 N        3.040     0.142    18.838     6.446
    10   6 C        3.695    -0.090    22.398     6.771
    11   6 C        3.695    -0.094    22.486     6.784
    12   1 H        0.925     0.031     2.570     2.507
    13   1 H        0.925     0.052     2.294     2.368
    14   1 H        0.925     0.052     2.296     2.370
    15   1 H        0.924     0.022     2.703     2.571
    16   1 H        0.924     0.056     2.251     2.346
    17   1 H        0.924     0.040     2.454     2.450
    18   1 H        0.925     0.070     2.088     2.260
    19   1 H        0.924     0.075     2.034     2.230
    20   1 H        0.925     0.087     1.904     2.158
    21   1 H        0.926     0.108     1.710     2.045
    22   1 H        0.925     0.109     1.703     2.041
    23   1 H        0.924     0.108     1.718     2.050
    24   1 H        0.925     0.120     1.616     1.988
    25   1 H        0.925     0.112     1.678     2.025
    26   1 H        0.924     0.113     1.674     2.023
    27   1 H        0.925     0.122     1.599     1.978

Wiberg/Mayer (AO) data.
largest (>0.10) Wiberg bond orders for each atom

     #   Z sym  total        # sym  WBO       # sym  WBO       # sym  WBO
 ---------------------------------------------------------------------------
     1   6 C    3.994 --     2 C    1.020    14 H    0.986    12 H    0.985
                            13 H    0.985
     2   6 C    3.995 --     1 C    1.020     3 C    1.009    15 H    0.976
                            16 H    0.974
     3   6 C    3.987 --     2 C    1.009    17 H    0.976    18 H    0.970
                             4 C    0.965
     4   6 C    3.980 --     5 C    1.034     3 C    0.965    20 H    0.960
                            19 H    0.958
     5   6 C    3.955 --     6 C    1.461     9 N    1.260     4 C    1.034
                             8 N    0.105
     6   6 C    3.953 --     5 C    1.461     7 N    1.290    21 H    0.960
                             8 N    0.132
     7   7 N    3.758 --     8 N    1.327     6 C    1.290    11 C    0.990
     8   7 N    2.994 --     7 N    1.327     9 N    1.305     6 C    0.132
                             5 C    0.105
     9   7 N    3.742 --     8 N    1.305     5 C    1.260    10 C    0.991
    10   6 C    3.929 --     9 N    0.991    24 H    0.970    23 H    0.957
                            22 H    0.956
    11   6 C    3.926 --     7 N    0.990    27 H    0.970    25 H    0.958
                            26 H    0.956
    12   1 H    0.999 --     1 C    0.985
    13   1 H    0.997 --     1 C    0.985
    14   1 H    0.997 --     1 C    0.986
    15   1 H    1.000 --     2 C    0.976
    16   1 H    0.997 --     2 C    0.974
    17   1 H    0.998 --     3 C    0.976
    18   1 H    0.994 --     3 C    0.970
    19   1 H    0.994 --     4 C    0.958
    20   1 H    0.992 --     4 C    0.960
    21   1 H    0.988 --     6 C    0.960
    22   1 H    0.987 --    10 C    0.956
    23   1 H    0.988 --    10 C    0.957
    24   1 H    0.986 --    10 C    0.970
    25   1 H    0.987 --    11 C    0.958
    26   1 H    0.986 --    11 C    0.956
    27   1 H    0.985 --    11 C    0.970
 ---------------------------------------------------------------------------

molecular dipole:
                 x           y           z       tot (Debye)
 q only:       -3.729      -4.593       2.674
   full:       -3.572      -4.391       2.728      15.970

           -------------------------------------------------
          | TOTAL ENERGY              -33.666023688863 Eh   |
          | GRADIENT NORM               0.000428047824 Eh/α |
          | HOMO-LUMO GAP               2.981247553221 eV   |
           -------------------------------------------------

 * finished run on 2024/12/20 at 06:54:06.838
