   * xtb version 6.7.1 (edcfbbe) compiled by 'conda@3ef47c1a292c' on 2024-11-25

   ID    Z sym.   atoms
    1    6 C      1-8, 10, 11, 13, 14
    2    7 N      9
    3    8 O      12
    4    1 H      15-42

          program call               : xtb C0706.xyz --opt --namespace C0706 --charge +1
          :  Hamiltonian                  GFN2-xTB          :
 * total energy  :   -46.5572656 Eh     change       -0.8671464E-10 Eh
 * total energy  :   -46.5648156 Eh     change       -0.7549959E-02 Eh
 * total energy  :   -46.5667075 Eh     change       -0.1891913E-02 Eh
 * total energy  :   -46.5668652 Eh     change       -0.1577279E-03 Eh
 * total energy  :   -46.5670877 Eh     change       -0.2225225E-03 Eh
 * total energy  :   -46.5671900 Eh     change       -0.1022189E-03 Eh
 * total energy  :   -46.5673447 Eh     change       -0.1547742E-03 Eh
 * total energy  :   -46.5674170 Eh     change       -0.7228560E-04 Eh
 * total energy  :   -46.5674885 Eh     change       -0.7151741E-04 Eh
 * total energy  :   -46.5675304 Eh     change       -0.4184192E-04 Eh
 * total energy  :   -46.5692100 Eh     change       -0.1140413E-04 Eh
 * total energy  :   -46.5692221 Eh     change       -0.1207375E-04 Eh
 * total energy  :   -46.5692368 Eh     change       -0.1469508E-04 Eh
 * total energy  :   -46.5692534 Eh     change       -0.1660384E-04 Eh
 * total energy  :   -46.5692689 Eh     change       -0.1545997E-04 Eh
 * total energy  :   -46.5692795 Eh     change       -0.1062271E-04 Eh
 * total energy  :   -46.5692869 Eh     change       -0.7369489E-05 Eh
 * total energy  :   -46.5692923 Eh     change       -0.5423151E-05 Eh
 * total energy  :   -46.5692962 Eh     change       -0.3951991E-05 Eh
   *** GEOMETRY OPTIMIZATION CONVERGED AFTER 63 ITERATIONS ***

 final structure:
================
42
 xtb: 6.7.1 (edcfbbe)
C            2.00929673748305       -0.44393390575555       -0.57803898798666
C            1.10959164104547       -1.61317735861230       -0.95918333065623
C            1.21102851281549       -2.79342424294051        0.00871999493983
C            0.77622584932464       -2.48827924195044        1.44386199167551
C           -0.66649489081694       -2.00139429927015        1.59660698546432
C           -1.73411157114169       -2.93029482634053        1.01251962896398
C           -1.73139208632051       -4.34963730726725        1.59365368136553
C           -2.10436566484936       -4.41502428682500        3.08048965537683
N           -3.46898826188136       -4.94082280340450        3.38794161978384
C           -3.67839070578412       -6.33723052648701        2.89927560574154
C           -2.48804124482267       -7.29027439556677        3.05430862123316
O           -2.03887102075555       -7.29896422991267        4.39008061454741
C           -3.64230230990018       -4.91453593046121        4.85667469543051
C           -4.49867674899057       -4.07407707082403        2.78642845527851
H            1.69078732817886        0.01521496296322        0.35461175250563
H            1.98072092088331        0.31712692365391       -1.35360828311021
H            3.03849004705035       -0.77706960436014       -0.46547665676808
H            0.07535750755489       -1.27008157813094       -1.02777174940412
H            1.39816660947838       -1.96875994693317       -1.95078620784068
H            0.62149390984433       -3.62376201481488       -0.38756402447384
H            2.25103709375417       -3.12521254356927        0.03978510224080
H            0.92857169943141       -3.38426910280778        2.05134267336917
H            1.43069216477297       -1.71885008589637        1.85410997543950
H           -0.85555311220417       -1.83141767559940        2.65994748059412
H           -0.76712655744989       -1.03452592949267        1.10338360597923
H           -2.71108131092948       -2.46357590871111        1.15633215937309
H           -1.57296614630328       -3.01145704859428       -0.06240083180944
H           -2.39823770030939       -4.97226192954357        0.99684361200935
H           -0.72954135420439       -4.75902663086680        1.46758118744251
H           -1.39962440106563       -5.03704536047472        3.63230873037418
H           -2.05076352995426       -3.40907275800361        3.49989906937506
H           -4.52598096767092       -6.74536152087842        3.45286239347061
H           -3.94119945946209       -6.31151186042340        1.84103341653116
H           -2.84690177466336       -8.28185090118937        2.75246444458406
H           -1.67217007941503       -7.00706831268136        2.37646848776630
H           -1.47029571588359       -8.06071801384459        4.54159652042567
H           -3.43468769696081       -3.91823917011210        5.24123834635211
H           -4.66484447168392       -5.18140620333375        5.11647890773474
H           -2.96348963161084       -5.62917864139940        5.31722148755170
H           -4.41887519030811       -3.06906633483332        3.19678707050469
H           -4.37648170747397       -4.02265149263714        1.70724613086649
H           -5.49123470874675       -4.46295089189915        3.00745596774959

          :  Hamiltonian                  GFN2-xTB          :
         :: total energy             -46.569296231814 Eh    ::
         :: gradient norm              0.000507757760 Eh/a0 ::
         :: HOMO-LUMO gap              7.329228795189 eV    ::
         :: SCC energy               -47.188197996739 Eh    ::
         :: -> dispersion             -0.032223435517 Eh    ::
         :: repulsion energy           0.618901764924 Eh    ::

    * Orbital Energies and Occupations

         #    Occupation            Energy/Eh            Energy/eV
      -------------------------------------------------------------
         1        2.0000           -0.8584809             -23.3605
       ...           ...                  ...                  ...
        31        2.0000           -0.5904474             -16.0669
        32        2.0000           -0.5860036             -15.9460
        33        2.0000           -0.5752881             -15.6544
        34        2.0000           -0.5691497             -15.4874
        35        2.0000           -0.5624650             -15.3055
        36        2.0000           -0.5559357             -15.1278
        37        2.0000           -0.5522159             -15.0266
        38        2.0000           -0.5365868             -14.6013
        39        2.0000           -0.5292784             -14.4024
        40        2.0000           -0.5249639             -14.2850
        41        2.0000           -0.5051595             -13.7461
        42        2.0000           -0.5007322             -13.6256
        43        2.0000           -0.4962074             -13.5025 (HOMO)
        44                         -0.2268632              -6.1733 (LUMO)
        45                         -0.1690164              -4.5992
        46                         -0.1472994              -4.0082
        47                         -0.1403684              -3.8196
        48                         -0.1055143              -2.8712
        49                         -0.0643552              -1.7512
        50                         -0.0519031              -1.4124
        51                         -0.0465316              -1.2662
        52                         -0.0333374              -0.9072
        53                         -0.0257236              -0.7000
        54                         -0.0137280              -0.3736
       ...                                ...                  ...
        84                          0.2293196               6.2401
      -------------------------------------------------------------
                  HL-Gap            0.2693442 Eh            7.3292 eV

     #   Z          covCN         q      C6AA      α(0)
     1   6 C        3.751    -0.106    22.578     6.776
     2   6 C        3.799    -0.055    21.555     6.610
     3   6 C        3.800    -0.060    21.663     6.627
     4   6 C        3.800    -0.062    21.695     6.632
     5   6 C        3.800    -0.063    21.715     6.635
     6   6 C        3.800    -0.068    21.812     6.650
     7   6 C        3.799    -0.073    21.890     6.662
     8   6 C        3.759    -0.045    21.430     6.600
     9   7 N        3.621     0.137    18.907     6.458
    10   6 C        3.760    -0.040    21.341     6.586
    11   6 C        3.672     0.072    19.613     6.347
    12   8 O        1.656    -0.440    21.639     6.280
    13   6 C        3.727    -0.104    22.589     6.786
    14   6 C        3.723    -0.095    22.436     6.764
    15   1 H        0.925     0.034     2.527     2.486
    16   1 H        0.925     0.040     2.453     2.449
    17   1 H        0.925     0.039     2.458     2.452
    18   1 H        0.924     0.029     2.603     2.523
    19   1 H        0.924     0.035     2.520     2.482
    20   1 H        0.924     0.023     2.685     2.563
    21   1 H        0.924     0.039     2.463     2.454
    22   1 H        0.924     0.022     2.698     2.569
    23   1 H        0.924     0.048     2.349     2.397
    24   1 H        0.924     0.022     2.698     2.568
    25   1 H        0.925     0.053     2.286     2.364
    26   1 H        0.924     0.031     2.566     2.505
    27   1 H        0.925     0.059     2.213     2.326
    28   1 H        0.925     0.044     2.399     2.422
    29   1 H        0.925     0.072     2.065     2.247
    30   1 H        0.925     0.097     1.812     2.105
    31   1 H        0.924     0.091     1.873     2.140
    32   1 H        0.924     0.098     1.800     2.098
    33   1 H        0.924     0.087     1.905     2.159
    34   1 H        0.924     0.062     2.175     2.306
    35   1 H        0.924     0.053     2.281     2.362
    36   1 H        0.805     0.314     0.679     1.295
    37   1 H        0.925     0.093     1.851     2.128
    38   1 H        0.925     0.093     1.847     2.125
    39   1 H        0.925     0.130     1.539     1.940
    40   1 H        0.925     0.100     1.786     2.090
    41   1 H        0.925     0.101     1.778     2.085
    42   1 H        0.925     0.093     1.849     2.126

Wiberg/Mayer (AO) data.
largest (>0.10) Wiberg bond orders for each atom

     #   Z sym  total        # sym  WBO       # sym  WBO       # sym  WBO
 ---------------------------------------------------------------------------
     1   6 C    3.996 --     2 C    1.020    17 H    0.987    16 H    0.987
                            15 H    0.986
     2   6 C    3.998 --     1 C    1.020     3 C    1.008    19 H    0.978
                            18 H    0.976
     3   6 C    3.997 --     2 C    1.008     4 C    1.008    21 H    0.976
                            20 H    0.976
     4   6 C    3.996 --     3 C    1.008     5 C    1.007    22 H    0.975
                            23 H    0.973
     5   6 C    3.995 --     6 C    1.007     4 C    1.007    24 H    0.973
                            25 H    0.972
     6   6 C    3.992 --     5 C    1.007     7 C    1.004    26 H    0.975
                            27 H    0.971
     7   6 C    3.986 --     6 C    1.004     8 C    1.002    28 H    0.968
                            29 H    0.967
     8   6 C    3.921 --     7 C    1.002    30 H    0.965    31 H    0.960
                             9 N    0.923
     9   7 N    3.812 --    14 C    0.961    13 C    0.954    10 C    0.939
                             8 C    0.923
    10   6 C    3.943 --    11 C    1.004    33 H    0.965    32 H    0.965
                             9 N    0.939
    11   6 C    3.958 --    12 O    1.004    10 C    1.004    34 H    0.964
                            35 H    0.964
    12   8 O    1.959 --    11 C    1.004    36 H    0.885
    13   6 C    3.918 --    37 H    0.976    38 H    0.975    39 H    0.961
                             9 N    0.954
    14   6 C    3.930 --    42 H    0.976    40 H    0.974    41 H    0.971
                             9 N    0.961
    15   1 H    0.999 --     1 C    0.986
    16   1 H    0.998 --     1 C    0.987
    17   1 H    0.998 --     1 C    0.987
    18   1 H    0.999 --     2 C    0.976
    19   1 H    0.999 --     2 C    0.978
    20   1 H    0.999 --     3 C    0.976
    21   1 H    0.998 --     3 C    0.976
    22   1 H    0.999 --     4 C    0.975
    23   1 H    0.998 --     4 C    0.973
    24   1 H    0.999 --     5 C    0.973
    25   1 H    0.997 --     5 C    0.972
    26   1 H    0.999 --     6 C    0.975
    27   1 H    0.996 --     6 C    0.971
    28   1 H    0.998 --     7 C    0.968
    29   1 H    0.995 --     7 C    0.967
    30   1 H    0.991 --     8 C    0.965
    31   1 H    0.992 --     8 C    0.960
    32   1 H    0.990 --    10 C    0.965
    33   1 H    0.992 --    10 C    0.965
    34   1 H    0.996 --    11 C    0.964
    35   1 H    0.997 --    11 C    0.964
    36   1 H    0.901 --    12 O    0.885
    37   1 H    0.991 --    13 C    0.976
    38   1 H    0.991 --    13 C    0.975
    39   1 H    0.983 --    13 C    0.961
    40   1 H    0.990 --    14 C    0.974
    41   1 H    0.990 --    14 C    0.971
    42   1 H    0.991 --    14 C    0.976
 ---------------------------------------------------------------------------

molecular dipole:
                 x           y           z       tot (Debye)
 q only:       -5.826      -9.577       5.768
   full:       -5.844      -9.812       5.698      32.441

           -------------------------------------------------
          | TOTAL ENERGY              -46.569296231814 Eh   |
          | GRADIENT NORM               0.000507757760 Eh/α |
          | HOMO-LUMO GAP               7.329228795189 eV   |
           -------------------------------------------------

 * finished run on 2024/12/20 at 06:54:03.995
