   * xtb version 6.7.1 (edcfbbe) compiled by 'conda@3ef47c1a292c' on 2024-11-25

   ID    Z sym.   atoms
    1    7 N      1, 4
    2    6 C      2, 3, 5-11
    3    1 H      12-22

          program call               : xtb C0707.xyz --opt --namespace C0707 --charge +1
          :  Hamiltonian                  GFN2-xTB          :
 * total energy  :   -30.2435268 Eh     change       -0.6564953E-09 Eh
 * total energy  :   -30.2758513 Eh     change       -0.3232448E-01 Eh
 * total energy  :   -30.2773291 Eh     change       -0.1477888E-02 Eh
 * total energy  :   -30.2774697 Eh     change       -0.1405965E-03 Eh
 * total energy  :   -30.2774930 Eh     change       -0.2329772E-04 Eh
 * total energy  :   -30.2775075 Eh     change       -0.1450542E-04 Eh
 * total energy  :   -30.2775124 Eh     change       -0.4867144E-05 Eh
   *** GEOMETRY OPTIMIZATION CONVERGED AFTER 7 ITERATIONS ***

 final structure:
================
22
 xtb: 6.7.1 (edcfbbe)
N            1.18001373570716        0.13555557038900       -0.13962027065262
C            2.31786648902323        0.11422534319772       -0.09740299474049
C            3.77476898044158        0.10887264334310       -0.08302914299143
N            4.27896068777449        0.60400939285881       -1.35794382292169
C            4.22942143544272        1.91854113723936       -1.60121590546297
C            4.64823065083217        2.44548166539066       -2.81554923675918
C            4.57965090452353        3.91110858611991       -3.05655037214356
C            5.12083292685513        1.55330063676379       -3.77700633004678
C            5.16423461647857        0.18419094847798       -3.52259722921129
C            4.72321261501957       -0.25431322623897       -2.27986142692094
C            5.66008999899269       -0.79611317386506       -4.52501930477520
H            4.11915821044369        0.74934504644239        0.73642054862730
H            4.12369441663431       -0.91239664589720        0.09705500607608
H            3.84589542895669        2.55775853050374       -0.81927259219194
H            3.54434257400078        4.24874411786966       -3.02969069826529
H            5.11670723938206        4.45257853505881       -2.27971108623841
H            5.00300593106344        4.17078633613258       -4.02162713630603
H            5.45547366713573        1.92835554446465       -4.73253570904045
H            4.72923970376383       -1.30511634078895       -2.02985947953406
H            6.52292412391818       -1.33409722175428       -4.13478828246024
H            4.89139301404615       -1.53440582755391       -4.74776694089857
H            5.94716264956428       -0.30264159815378       -5.44805759314226

          :  Hamiltonian                  GFN2-xTB          :
         :: total energy             -30.277512416639 Eh    ::
         :: gradient norm              0.000970135522 Eh/a0 ::
         :: HOMO-LUMO gap              3.222896460483 eV    ::
         :: SCC energy               -30.827553855441 Eh    ::
         :: -> dispersion             -0.016599659604 Eh    ::
         :: repulsion energy           0.550041438802 Eh    ::

    * Orbital Energies and Occupations

         #    Occupation            Energy/Eh            Energy/eV
      -------------------------------------------------------------
         1        2.0000           -0.8874184             -24.1479
       ...           ...                  ...                  ...
        16        2.0000           -0.6688879             -18.2014
        17        2.0000           -0.6609793             -17.9862
        18        2.0000           -0.6526803             -17.7603
        19        2.0000           -0.6507244             -17.7071
        20        2.0000           -0.6396295             -17.4052
        21        2.0000           -0.6296531             -17.1337
        22        2.0000           -0.6282668             -17.0960
        23        2.0000           -0.6240140             -16.9803
        24        2.0000           -0.6116404             -16.6436
        25        2.0000           -0.6048736             -16.4594
        26        2.0000           -0.5976169             -16.2620
        27        2.0000           -0.5882113             -16.0060
        28        2.0000           -0.5784452             -15.7403 (HOMO)
        29                         -0.4600059             -12.5174 (LUMO)
        30                         -0.4239316             -11.5358
        31                         -0.3737157             -10.1693
        32                         -0.3601902              -9.8013
        33                         -0.3080875              -8.3835
        34                         -0.1734681              -4.7203
        35                         -0.0830534              -2.2600
        36                         -0.0619643              -1.6861
        37                         -0.0601579              -1.6370
        38                         -0.0489770              -1.3327
        39                         -0.0214265              -0.5830
       ...                                ...                  ...
        55                          0.9928862              27.0178
      -------------------------------------------------------------
                  HL-Gap            0.1184393 Eh            3.2229 eV

     #   Z          covCN         q      C6AA      α(0)
     1   7 N        0.911    -0.135    23.923     7.074
     2   6 C        1.897     0.110    28.394     8.606
     3   6 C        3.762    -0.020    20.971     6.528
     4   7 N        2.753     0.103    19.472     6.554
     5   6 C        2.897     0.012    27.753     8.638
     6   6 C        2.959     0.050    26.883     8.504
     7   6 C        3.759    -0.134    23.124     6.855
     8   6 C        2.934    -0.015    28.377     8.736
     9   6 C        2.959     0.049    26.893     8.506
    10   6 C        2.894     0.012    27.754     8.637
    11   6 C        3.759    -0.134    23.119     6.855
    12   1 H        0.924     0.124     1.582     1.967
    13   1 H        0.924     0.122     1.599     1.978
    14   1 H        0.926     0.102     1.763     2.076
    15   1 H        0.925     0.097     1.816     2.107
    16   1 H        0.925     0.092     1.856     2.131
    17   1 H        0.925     0.087     1.906     2.159
    18   1 H        0.926     0.101     1.778     2.085
    19   1 H        0.926     0.101     1.772     2.082
    20   1 H        0.925     0.094     1.842     2.123
    21   1 H        0.925     0.094     1.840     2.121
    22   1 H        0.925     0.087     1.907     2.160

Wiberg/Mayer (AO) data.
largest (>0.10) Wiberg bond orders for each atom

     #   Z sym  total        # sym  WBO       # sym  WBO       # sym  WBO
 ---------------------------------------------------------------------------
     1   7 N    3.046 --     2 C    2.899
     2   6 C    3.955 --     1 N    2.899     3 C    1.015
     3   6 C    3.948 --     2 C    1.015     4 N    0.960    13 H    0.938
                            12 H    0.933
     4   7 N    3.756 --    10 C    1.324     5 C    1.317     3 C    0.960
     5   6 C    3.956 --     6 C    1.405     4 N    1.317    14 H    0.956
     6   6 C    3.980 --     5 C    1.405     8 C    1.386     7 C    1.045
     7   6 C    3.981 --     6 C    1.045    17 H    0.979    16 H    0.955
                            15 H    0.949
     8   6 C    3.975 --     9 C    1.392     6 C    1.386    18 H    0.959
     9   6 C    3.980 --    10 C    1.398     8 C    1.392    11 C    1.044
    10   6 C    3.956 --     9 C    1.398     4 N    1.324    19 H    0.955
    11   6 C    3.981 --     9 C    1.044    22 H    0.979    21 H    0.953
                            20 H    0.952
    12   1 H    0.984 --     3 C    0.933
    13   1 H    0.985 --     3 C    0.938
    14   1 H    0.989 --     5 C    0.956
    15   1 H    0.990 --     7 C    0.949
    16   1 H    0.991 --     7 C    0.955
    17   1 H    0.992 --     7 C    0.979
    18   1 H    0.990 --     8 C    0.959
    19   1 H    0.989 --    10 C    0.955
    20   1 H    0.991 --    11 C    0.952
    21   1 H    0.991 --    11 C    0.953
    22   1 H    0.992 --    11 C    0.979
 ---------------------------------------------------------------------------

molecular dipole:
                 x           y           z       tot (Debye)
 q only:        9.230       1.814      -4.245
   full:        9.681       1.750      -4.101      27.091

           -------------------------------------------------
          | TOTAL ENERGY              -30.277512416639 Eh   |
          | GRADIENT NORM               0.000970135522 Eh/α |
          | HOMO-LUMO GAP               3.222896460483 eV   |
           -------------------------------------------------

 * finished run on 2024/12/20 at 06:54:04.393
