   * xtb version 6.7.1 (edcfbbe) compiled by 'conda@3ef47c1a292c' on 2024-11-25

   ID    Z sym.   atoms
    1    6 C      1, 2, 4-8
    2    7 N      3
    3    1 H      9-26

          program call               : xtb C0700.xyz --opt --namespace C0700 --charge +1
          :  Hamiltonian                  GFN2-xTB          :
 * total energy  :   -26.6866192 Eh     change       -0.3317524E-10 Eh
 * total energy  :   -26.6923927 Eh     change       -0.5773480E-02 Eh
 * total energy  :   -26.6936701 Eh     change       -0.1277371E-02 Eh
 * total energy  :   -26.6937036 Eh     change       -0.3349701E-04 Eh
 * total energy  :   -26.6937108 Eh     change       -0.7232951E-05 Eh
 * total energy  :   -26.6937141 Eh     change       -0.3275998E-05 Eh
   *** GEOMETRY OPTIMIZATION CONVERGED AFTER 6 ITERATIONS ***

 final structure:
================
26
 xtb: 6.7.1 (edcfbbe)
C            0.94024888144975        0.03659682395824       -0.03716427256559
C            0.60256139226704       -1.44662303911525       -0.04254252041309
N            1.04704242451530       -2.21582297801417        1.15965203321616
C            0.54256212233867       -1.60077222093197        2.42876767016925
C           -0.96745382870049       -1.46494927110662        2.55130615709040
C            0.53293429673406       -3.61945557832645        1.06647080708338
C            1.11159279395607       -4.47038752714398       -0.05428846980434
C            2.52139536618560       -2.23173017258470        1.23193806344551
H            0.42382059293409        0.58030184960786        0.74820166412610
H            0.61261909267329        0.45258526261839       -0.98680073900687
H            2.00788918777894        0.21784821922747        0.04345846118204
H           -0.47706174984742       -1.57147767141871       -0.13707379288870
H            1.07287174691012       -1.90720028994951       -0.91197874464976
H            0.91444046068346       -2.21343507584159        3.25305627268091
H            0.99745931101265       -0.61351616143859        2.51765777409057
H           -1.47394324863127       -2.42529911496875        2.56284670746943
H           -1.17790972423647       -0.97820357486086        3.50054502866671
H           -1.39376096853125       -0.84536162803194        1.76804761414825
H            0.74483211582612       -4.10557870593527        2.02136573608035
H           -0.54908235188957       -3.56658956443047        0.94173746066523
H            2.17879733794320       -4.63623686361916        0.05654347071351
H            0.62756535901106       -5.44297290332168       -0.00906903401834
H            0.91174227400206       -4.05790068440876       -1.03870910566252
H            2.94580517125626       -2.52267464027813        0.27414078674057
H            2.89871460317936       -1.24556922386109        1.49242591696558
H            2.84824734117937       -2.93647526582431        1.99454505447526

          :  Hamiltonian                  GFN2-xTB          :
         :: total energy             -26.693714103325 Eh    ::
         :: gradient norm              0.000581202898 Eh/a0 ::
         :: HOMO-LUMO gap              9.743817844384 eV    ::
         :: SCC energy               -27.078283249468 Eh    ::
         :: -> dispersion             -0.017202509647 Eh    ::
         :: repulsion energy           0.384569146142 Eh    ::

    * Orbital Energies and Occupations

         #    Occupation            Energy/Eh            Energy/eV
      -------------------------------------------------------------
         1        2.0000           -0.8619220             -23.4541
       ...           ...                  ...                  ...
        13        2.0000           -0.6754094             -18.3788
        14        2.0000           -0.6599419             -17.9579
        15        2.0000           -0.6535619             -17.7843
        16        2.0000           -0.6471020             -17.6085
        17        2.0000           -0.6372227             -17.3397
        18        2.0000           -0.6336000             -17.2411
        19        2.0000           -0.6305420             -17.1579
        20        2.0000           -0.6206308             -16.8882
        21        2.0000           -0.6124675             -16.6661
        22        2.0000           -0.6097053             -16.5909
        23        2.0000           -0.6040078             -16.4359
        24        2.0000           -0.6022901             -16.3891
        25        2.0000           -0.5940246             -16.1642 (HOMO)
        26                         -0.2359459              -6.4204 (LUMO)
        27                         -0.1688965              -4.5959
        28                         -0.1621798              -4.4131
        29                         -0.1479049              -4.0247
        30                         -0.0628625              -1.7106
        31                         -0.0577906              -1.5726
        32                         -0.0501985              -1.3660
        33                         -0.0397038              -1.0804
        34                         -0.0239986              -0.6530
        35                         -0.0045448              -0.1237
        36                          0.0054162               0.1474
       ...                                ...                  ...
        50                          0.1508626               4.1052
      -------------------------------------------------------------
                  HL-Gap            0.3580787 Eh            9.7438 eV

     #   Z          covCN         q      C6AA      α(0)
     1   6 C        3.751    -0.129    23.046     6.846
     2   6 C        3.754    -0.032    21.202     6.566
     3   7 N        3.619     0.115    19.268     6.519
     4   6 C        3.761    -0.034    21.227     6.568
     5   6 C        3.751    -0.129    23.049     6.847
     6   6 C        3.759    -0.034    21.225     6.568
     7   6 C        3.751    -0.131    23.073     6.850
     8   6 C        3.719    -0.092    22.385     6.758
     9   1 H        0.925     0.068     2.110     2.272
    10   1 H        0.925     0.084     1.935     2.175
    11   1 H        0.925     0.066     2.135     2.285
    12   1 H        0.924     0.087     1.913     2.163
    13   1 H        0.924     0.087     1.911     2.162
    14   1 H        0.924     0.082     1.957     2.188
    15   1 H        0.924     0.090     1.880     2.144
    16   1 H        0.925     0.065     2.140     2.288
    17   1 H        0.925     0.086     1.920     2.167
    18   1 H        0.925     0.068     2.103     2.268
    19   1 H        0.924     0.084     1.939     2.177
    20   1 H        0.924     0.087     1.904     2.158
    21   1 H        0.925     0.069     2.097     2.264
    22   1 H        0.925     0.087     1.912     2.163
    23   1 H        0.925     0.065     2.141     2.288
    24   1 H        0.925     0.101     1.774     2.083
    25   1 H        0.925     0.097     1.815     2.107
    26   1 H        0.925     0.094     1.837     2.120

Wiberg/Mayer (AO) data.
largest (>0.10) Wiberg bond orders for each atom

     #   Z sym  total        # sym  WBO       # sym  WBO       # sym  WBO
 ---------------------------------------------------------------------------
     1   6 C    3.982 --     2 C    1.022    11 H    0.980     9 H    0.980
                            10 H    0.973
     2   6 C    3.934 --     1 C    1.022    12 H    0.965    13 H    0.964
                             3 N    0.928
     3   7 N    3.803 --     8 C    0.961     2 C    0.928     6 C    0.927
                             4 C    0.927
     4   6 C    3.934 --     5 C    1.023    14 H    0.968    15 H    0.964
                             3 N    0.927
     5   6 C    3.982 --     4 C    1.023    16 H    0.981    18 H    0.979
                            17 H    0.972
     6   6 C    3.934 --     7 C    1.023    19 H    0.967    20 H    0.965
                             3 N    0.927
     7   6 C    3.981 --     6 C    1.023    21 H    0.981    23 H    0.980
                            22 H    0.972
     8   6 C    3.931 --    26 H    0.975    24 H    0.972    25 H    0.972
                             3 N    0.961
     9   1 H    0.995 --     1 C    0.980
    10   1 H    0.993 --     1 C    0.973
    11   1 H    0.996 --     1 C    0.980
    12   1 H    0.993 --     2 C    0.965
    13   1 H    0.992 --     2 C    0.964
    14   1 H    0.993 --     4 C    0.968
    15   1 H    0.992 --     4 C    0.964
    16   1 H    0.996 --     5 C    0.981
    17   1 H    0.992 --     5 C    0.972
    18   1 H    0.995 --     5 C    0.979
    19   1 H    0.993 --     6 C    0.967
    20   1 H    0.992 --     6 C    0.965
    21   1 H    0.995 --     7 C    0.981
    22   1 H    0.992 --     7 C    0.972
    23   1 H    0.996 --     7 C    0.980
    24   1 H    0.989 --     8 C    0.972
    25   1 H    0.991 --     8 C    0.972
    26   1 H    0.991 --     8 C    0.975
 ---------------------------------------------------------------------------

molecular dipole:
                 x           y           z       tot (Debye)
 q only:        1.799      -4.095       2.066
   full:        1.824      -4.126       2.104      12.652

           -------------------------------------------------
          | TOTAL ENERGY              -26.693714103325 Eh   |
          | GRADIENT NORM               0.000581202898 Eh/α |
          | HOMO-LUMO GAP               9.743817844384 eV   |
           -------------------------------------------------

 * finished run on 2024/12/20 at 06:53:56.988
