   * xtb version 6.7.1 (edcfbbe) compiled by 'conda@3ef47c1a292c' on 2024-11-25

   ID    Z sym.   atoms
    1    6 C      1, 3-9, 11, 12, 14-21
    2    8 O      2, 13
    3    7 N      10
    4    1 H      22-43

          program call               : xtb C0708.xyz --opt --namespace C0708 --charge +1
          :  Hamiltonian                  GFN2-xTB          :
 * total energy  :   -60.3736797 Eh     change       -0.3690133E-09 Eh
 * total energy  :   -60.3840725 Eh     change       -0.1039289E-01 Eh
 * total energy  :   -60.3879803 Eh     change       -0.3907728E-02 Eh
 * total energy  :   -60.3891397 Eh     change       -0.1159398E-02 Eh
 * total energy  :   -60.3903788 Eh     change       -0.1239140E-02 Eh
 * total energy  :   -60.3911888 Eh     change       -0.8099950E-03 Eh
 * total energy  :   -60.3921798 Eh     change       -0.9909440E-03 Eh
 * total energy  :   -60.3931698 Eh     change       -0.9900376E-03 Eh
 * total energy  :   -60.3939169 Eh     change       -0.7471599E-03 Eh
 * total energy  :   -60.3943303 Eh     change       -0.4133683E-03 Eh
 * total energy  :   -60.3967593 Eh     change       -0.1748543E-04 Eh
 * total energy  :   -60.3967751 Eh     change       -0.1582829E-04 Eh
 * total energy  :   -60.3967877 Eh     change       -0.1260192E-04 Eh
 * total energy  :   -60.3967975 Eh     change       -0.9847087E-05 Eh
 * total energy  :   -60.3968065 Eh     change       -0.8937060E-05 Eh
 * total energy  :   -60.3968151 Eh     change       -0.8642216E-05 Eh
 * total energy  :   -60.3968238 Eh     change       -0.8625986E-05 Eh
 * total energy  :   -60.3968298 Eh     change       -0.6014479E-05 Eh
 * total energy  :   -60.3968326 Eh     change       -0.2791887E-05 Eh
   *** GEOMETRY OPTIMIZATION CONVERGED AFTER 43 ITERATIONS ***

 final structure:
================
43
 xtb: 6.7.1 (edcfbbe)
C           -0.52511383849006        1.18683766116050       -1.25625860056651
O            0.75537089275734        1.78352130892056       -1.21741559300991
C            1.35408923405865        1.97497050157808       -0.02631599489819
C            0.79903057584312        1.67760304796888        1.21734850514287
C            1.52677490533226        1.91631109615486        2.36964852565801
C            2.79632812376215        2.46127533135204        2.31221155979423
C            3.35720610468128        2.77722032820495        1.07647862310176
C            2.63798994824995        2.52645053229787       -0.08071274925337
C            4.74226246056152        3.36247374055072        0.99307908216523
N            4.76466565399747        4.86720931502857        1.04441505534781
C            4.08473739792078        5.36465071248196        2.26745635885976
C            4.67970883288491        4.87120521504304        3.60114480323921
O            5.70965713458980        4.23361674754582        3.62628992364502
C            3.92314353243253        5.21738807596842        4.80631525087700
C            2.75890603642293        5.99427232512891        4.81073871619924
C            2.11318169073463        6.26059670169660        6.00176341412981
C            2.60735428717166        5.76074171083506        7.19910524285679
C            3.76075274400937        4.99124204287760        7.20739052610928
C            4.41453992454705        4.72343584087241        6.02245661339952
C            6.16618297860057        5.32863533113485        1.00350347161187
C            4.05654471267831        5.41142914016543       -0.12899388221639
H           -0.77742516958931        1.10754015046002       -2.31190571953693
H           -1.27026699899064        1.80829754600221       -0.75103775253112
H           -0.51307274639596        0.18870035744059       -0.81042944728450
H           -0.18585738769834        1.24788227110919        1.29476948288625
H            1.09721363846131        1.66661123970931        3.32712123862287
H            3.35591356992870        2.61543043383007        3.22221026904598
H            3.05457304296379        2.71885899781260       -1.05765419102293
H            5.34955849972829        3.00033307760150        1.82415766198305
H            5.21538515178409        3.06559908396791        0.05555591300412
H            4.12688813942667        6.45701339423408        2.26796992480941
H            3.04028346872555        5.04874250126398        2.22184052405748
H            2.35204061828726        6.40194660715151        3.89845912787716
H            1.21768239781834        6.86250605962822        5.99990721227089
H            2.09258552800026        5.97383630668709        8.12312485132150
H            4.14875333206553        4.60351495545817        8.13649554965465
H            5.31487270416356        4.12776732405595        6.00869404836499
H            6.64540454357768        4.97523341587092        0.09278521826569
H            6.20056702275815        6.41666119564659        1.02004035589115
H            6.71059155121877        4.94145184309930        1.86295576995775
H            4.55123239484382        5.08653495364301       -1.04239131356427
H            3.02719505936687        5.05744086208417       -0.14458513438400
H            4.06066830679121        6.49977071629316       -0.10012244187481

          :  Hamiltonian                  GFN2-xTB          :
         :: total energy             -60.396832558749 Eh    ::
         :: gradient norm              0.000576926045 Eh/a0 ::
         :: HOMO-LUMO gap              2.132070667573 eV    ::
         :: SCC energy               -61.324150489204 Eh    ::
         :: -> dispersion             -0.043326744812 Eh    ::
         :: repulsion energy           0.927317930455 Eh    ::

    * Orbital Energies and Occupations

         #    Occupation            Energy/Eh            Energy/eV
      -------------------------------------------------------------
         1        2.0000           -0.8543059             -23.2468
       ...           ...                  ...                  ...
        43        2.0000           -0.5916674             -16.1001
        44        2.0000           -0.5861052             -15.9487
        45        2.0000           -0.5632837             -15.3277
        46        2.0000           -0.5558108             -15.1244
        47        2.0000           -0.5543901             -15.0857
        48        2.0000           -0.5522457             -15.0274
        49        2.0000           -0.5379371             -14.6380
        50        2.0000           -0.5342412             -14.5374
        51        2.0000           -0.5294521             -14.4071
        52        2.0000           -0.5290159             -14.3953
        53        2.0000           -0.5252060             -14.2916
        54        2.0000           -0.5228292             -14.2269
        55        2.0000           -0.4897636             -13.3271 (HOMO)
        56                         -0.4114114             -11.1951 (LUMO)
        57                         -0.3489139              -9.4944
        58                         -0.3417395              -9.2992
        59                         -0.3313603              -9.0168
        60                         -0.3151800              -8.5765
        61                         -0.2258217              -6.1449
        62                         -0.2053877              -5.5889
        63                         -0.1990809              -5.4173
        64                         -0.1481211              -4.0306
        65                         -0.1325702              -3.6074
        66                         -0.1298828              -3.5343
       ...                                ...                  ...
       106                          0.5486569              14.9297
      -------------------------------------------------------------
                  HL-Gap            0.0783522 Eh            2.1321 eV

     #   Z          covCN         q      C6AA      α(0)
     1   6 C        3.644     0.026    20.470     6.503
     2   8 O        1.706    -0.250    18.147     5.752
     3   6 C        2.864     0.153    24.676     8.143
     4   6 C        2.917    -0.061    29.529     8.911
     5   6 C        2.919    -0.026    28.657     8.779
     6   6 C        2.921    -0.055    29.366     8.887
     7   6 C        2.967    -0.006    28.167     8.705
     8   6 C        2.924    -0.070    29.746     8.944
     9   6 C        3.764    -0.045    21.425     6.598
    10   7 N        3.621     0.139    18.879     6.453
    11   6 C        3.764    -0.060    21.693     6.639
    12   6 C        2.820     0.230    23.187     7.890
    13   8 O        0.857    -0.364    20.980     6.141
    14   6 C        2.970    -0.021    28.523     8.760
    15   6 C        2.918    -0.029    28.717     8.788
    16   6 C        2.917    -0.020    28.498     8.754
    17   6 C        2.920    -0.007    28.192     8.707
    18   6 C        2.915    -0.018    28.450     8.747
    19   6 C        2.928    -0.010    28.258     8.718
    20   6 C        3.719    -0.097    22.479     6.772
    21   6 C        3.725    -0.095    22.422     6.761
    22   1 H        0.925     0.079     1.988     2.205
    23   1 H        0.924     0.051     2.309     2.376
    24   1 H        0.924     0.055     2.263     2.352
    25   1 H        0.926     0.059     2.213     2.326
    26   1 H        0.926     0.055     2.255     2.348
    27   1 H        0.926     0.038     2.481     2.463
    28   1 H        0.926     0.056     2.252     2.346
    29   1 H        0.924     0.111     1.686     2.031
    30   1 H        0.924     0.084     1.939     2.178
    31   1 H        0.924     0.095     1.830     2.116
    32   1 H        0.924     0.101     1.777     2.084
    33   1 H        0.926     0.037     2.488     2.467
    34   1 H        0.926     0.060     2.199     2.319
    35   1 H        0.926     0.067     2.115     2.274
    36   1 H        0.926     0.067     2.124     2.279
    37   1 H        0.926     0.076     2.021     2.223
    38   1 H        0.925     0.093     1.851     2.127
    39   1 H        0.925     0.089     1.889     2.150
    40   1 H        0.925     0.125     1.576     1.963
    41   1 H        0.925     0.099     1.798     2.097
    42   1 H        0.925     0.099     1.790     2.092
    43   1 H        0.925     0.091     1.868     2.138

Wiberg/Mayer (AO) data.
largest (>0.10) Wiberg bond orders for each atom

     #   Z sym  total        # sym  WBO       # sym  WBO       # sym  WBO
 ---------------------------------------------------------------------------
     1   6 C    3.932 --    22 H    0.978    23 H    0.976    24 H    0.976
                             2 O    0.972
     2   8 O    2.272 --     3 C    1.103     1 C    0.972
     3   6 C    3.942 --     4 C    1.357     8 C    1.338     2 O    1.103
     4   6 C    3.988 --     5 C    1.447     3 C    1.357    25 H    0.964
     5   6 C    3.990 --     4 C    1.447     6 C    1.440    26 H    0.969
                             8 C    0.102
     6   6 C    3.989 --     5 C    1.440     7 C    1.388    27 H    0.966
     7   6 C    3.980 --     8 C    1.437     6 C    1.388     9 C    1.007
     8   6 C    3.986 --     7 C    1.437     3 C    1.338    28 H    0.965
                             5 C    0.102
     9   6 C    3.920 --     7 C    1.007    30 H    0.966    29 H    0.956
                            10 N    0.906
    10   7 N    3.812 --    21 C    0.960    20 C    0.955    11 C    0.947
                             9 C    0.906
    11   6 C    3.940 --    12 C    0.957    31 H    0.950    32 H    0.948
                            10 N    0.947
    12   6 C    3.934 --    13 O    1.790    14 C    1.076    11 C    0.957
    13   8 O    2.080 --    12 C    1.790
    14   6 C    3.985 --    15 C    1.353    19 C    1.352    12 C    1.076
    15   6 C    3.992 --    16 C    1.474    14 C    1.353    33 H    0.967
                            18 C    0.102
    16   6 C    3.990 --    15 C    1.474    17 C    1.416    34 H    0.968
    17   6 C    3.985 --    18 C    1.428    16 C    1.416    35 H    0.968
    18   6 C    3.989 --    19 C    1.463    17 C    1.428    36 H    0.967
                            15 C    0.102
    19   6 C    3.984 --    18 C    1.463    14 C    1.352    37 H    0.964
    20   6 C    3.920 --    39 H    0.976    38 H    0.976    40 H    0.962
                            10 N    0.955
    21   6 C    3.931 --    43 H    0.976    41 H    0.974    42 H    0.970
                            10 N    0.960
    22   1 H    0.993 --     1 C    0.978
    23   1 H    0.997 --     1 C    0.976
    24   1 H    0.997 --     1 C    0.976
    25   1 H    0.996 --     4 C    0.964
    26   1 H    0.997 --     5 C    0.969
    27   1 H    0.999 --     6 C    0.966
    28   1 H    0.997 --     8 C    0.965
    29   1 H    0.987 --     9 C    0.956
    30   1 H    0.993 --     9 C    0.966
    31   1 H    0.991 --    11 C    0.950
    32   1 H    0.990 --    11 C    0.948
    33   1 H    0.999 --    15 C    0.967
    34   1 H    0.996 --    16 C    0.968
    35   1 H    0.995 --    17 C    0.968
    36   1 H    0.995 --    18 C    0.967
    37   1 H    0.994 --    19 C    0.964
    38   1 H    0.991 --    20 C    0.976
    39   1 H    0.991 --    20 C    0.976
    40   1 H    0.984 --    20 C    0.962
    41   1 H    0.990 --    21 C    0.974
    42   1 H    0.990 --    21 C    0.970
    43   1 H    0.992 --    21 C    0.976
 ---------------------------------------------------------------------------

molecular dipole:
                 x           y           z       tot (Debye)
 q only:        6.559       9.095       3.318
   full:        6.339       9.187       3.276      29.566

           -------------------------------------------------
          | TOTAL ENERGY              -60.396832558749 Eh   |
          | GRADIENT NORM               0.000576926045 Eh/α |
          | HOMO-LUMO GAP               2.132070667573 eV   |
           -------------------------------------------------

 * finished run on 2024/12/20 at 06:54:06.305
