   * xtb version 6.7.1 (edcfbbe) compiled by 'conda@3ef47c1a292c' on 2024-11-25

   ID    Z sym.   atoms
    1    6 C      1, 2, 4, 6, 7, 9, 10
    2   16 S      3
    3    7 N      5, 8
    4    1 H      11-27

          program call               : xtb C0703.xyz --opt --namespace C0703 --charge +1
          :  Hamiltonian                  GFN2-xTB          :
 * total energy  :   -32.3558747 Eh     change       -0.4319958E-09 Eh
 * total energy  :   -32.3598033 Eh     change       -0.3928603E-02 Eh
 * total energy  :   -32.3607974 Eh     change       -0.9940815E-03 Eh
 * total energy  :   -32.3611774 Eh     change       -0.3800080E-03 Eh
 * total energy  :   -32.3616415 Eh     change       -0.4641117E-03 Eh
 * total energy  :   -32.3620148 Eh     change       -0.3732954E-03 Eh
 * total energy  :   -32.3624226 Eh     change       -0.4077421E-03 Eh
 * total energy  :   -32.3628075 Eh     change       -0.3848930E-03 Eh
 * total energy  :   -32.3630940 Eh     change       -0.2864988E-03 Eh
 * total energy  :   -32.3633164 Eh     change       -0.2224868E-03 Eh
 * total energy  :   -32.3649753 Eh     change       -0.9713835E-05 Eh
 * total energy  :   -32.3649840 Eh     change       -0.8678474E-05 Eh
 * total energy  :   -32.3649914 Eh     change       -0.7455385E-05 Eh
 * total energy  :   -32.3649989 Eh     change       -0.7515200E-05 Eh
 * total energy  :   -32.3650037 Eh     change       -0.4728786E-05 Eh
 * total energy  :   -32.3650105 Eh     change       -0.6861937E-05 Eh
 * total energy  :   -32.3650166 Eh     change       -0.6091902E-05 Eh
 * total energy  :   -32.3650235 Eh     change       -0.6879487E-05 Eh
 * total energy  :   -32.3650277 Eh     change       -0.4215575E-05 Eh
   *** GEOMETRY OPTIMIZATION CONVERGED AFTER 58 ITERATIONS ***

 final structure:
================
27
 xtb: 6.7.1 (edcfbbe)
C            1.11877654089901        0.06015963959214        0.05723433652644
C            0.57128084245606        1.27333653672071        0.78516932842680
S            0.28686032913163       -0.24888425563594       -1.54476518970916
C            0.93059014098117        0.94612300256976       -2.63575385473062
N            1.90908059821263        1.76747587091253       -2.28026040579537
C            2.48138877670121        2.82122381715021       -3.10769263439892
C            1.62864583985859        4.08595074373779       -3.08988182228403
N            0.40521050197050        0.96421028163290       -3.84647936886464
C           -0.62683253038166        0.05574667047332       -4.31663298429289
C           -1.12871442600999        0.50878312905046       -5.67643085319046
H            0.89402169999975       -0.84784635374453        0.61819822643340
H            2.19637879683362        0.09403646378523       -0.10521506014222
H            0.71508890183630        2.19774186498239        0.22959919576340
H           -0.49291705493467        1.15252589548002        0.97088095583945
H            1.07269698612065        1.36941693534278        1.74562454890646
H            2.21867057781717        1.74537555552155       -1.32047326873176
H            3.47256092411762        3.03755141793901       -2.70716885672493
H            2.61160271610901        2.45201411719689       -4.12814945529686
H            1.56237057674575        4.48864620625302       -2.08258259886770
H            2.08404775547849        4.83918718417405       -3.72538311049840
H            0.62129501930562        3.89280761329774       -3.45064551824306
H            0.76105515741434        1.61578273575176       -4.53375609551931
H           -0.21847493864425       -0.95880134053783       -4.37684864411177
H           -1.44493234367540        0.04656467562633       -3.58946004663427
H           -0.32702852927789        0.49355314990172       -6.41165986072552
H           -1.91012785676276       -0.16281456806081       -6.01734681997367
H           -1.54488500229948        1.51204301088607       -5.62203014316323

          :  Hamiltonian                  GFN2-xTB          :
         :: total energy             -32.365027700568 Eh    ::
         :: gradient norm              0.000692869433 Eh/a0 ::
         :: HOMO-LUMO gap              3.789306868253 eV    ::
         :: SCC energy               -32.799050305663 Eh    ::
         :: -> dispersion             -0.019009923162 Eh    ::
         :: repulsion energy           0.434022605094 Eh    ::

    * Orbital Energies and Occupations

         #    Occupation            Energy/Eh            Energy/eV
      -------------------------------------------------------------
         1        2.0000           -0.8914313             -24.2571
       ...           ...                  ...                  ...
        18        2.0000           -0.6493720             -17.6703
        19        2.0000           -0.6399988             -17.4153
        20        2.0000           -0.6295577             -17.1311
        21        2.0000           -0.6239078             -16.9774
        22        2.0000           -0.6105102             -16.6128
        23        2.0000           -0.6012136             -16.3599
        24        2.0000           -0.5943503             -16.1731
        25        2.0000           -0.5920797             -16.1113
        26        2.0000           -0.5910066             -16.0821
        27        2.0000           -0.5887398             -16.0204
        28        2.0000           -0.5848270             -15.9140
        29        2.0000           -0.5590865             -15.2135
        30        2.0000           -0.5411368             -14.7251 (HOMO)
        31                         -0.4018823             -10.9358 (LUMO)
        32                         -0.3557035              -9.6792
        33                         -0.3112139              -8.4686
        34                         -0.1874625              -5.1011
        35                         -0.1746054              -4.7513
        36                         -0.1616920              -4.3999
        37                         -0.1214190              -3.3040
        38                         -0.1177238              -3.2034
        39                         -0.0662878              -1.8038
        40                         -0.0450192              -1.2250
        41                         -0.0312782              -0.8511
       ...                                ...                  ...
        62                          0.3625901               9.8666
      -------------------------------------------------------------
                  HL-Gap            0.1392545 Eh            3.7893 eV

     #   Z          covCN         q      C6AA      α(0)
     1   6 C        3.793    -0.026    21.047     6.533
     2   6 C        3.774    -0.120    22.822     6.807
     3  16 S        2.085    -0.019   141.828    20.044
     4   6 C        2.807     0.167    24.390     8.091
     5   7 N        2.724    -0.133    23.892     7.260
     6   6 C        3.736    -0.009    20.823     6.512
     7   6 C        3.752    -0.127    22.999     6.839
     8   7 N        2.768    -0.112    23.442     7.191
     9   6 C        3.743    -0.011    20.854     6.515
    10   6 C        3.754    -0.128    23.009     6.840
    11   1 H        0.925     0.095     1.835     2.119
    12   1 H        0.925     0.066     2.132     2.283
    13   1 H        0.925     0.049     2.331     2.387
    14   1 H        0.925     0.074     2.043     2.235
    15   1 H        0.925     0.077     2.009     2.217
    16   1 H        0.860     0.214     1.038     1.596
    17   1 H        0.924     0.085     1.930     2.173
    18   1 H        0.924     0.066     2.125     2.280
    19   1 H        0.925     0.065     2.144     2.290
    20   1 H        0.925     0.079     1.991     2.206
    21   1 H        0.925     0.055     2.261     2.351
    22   1 H        0.860     0.217     1.021     1.583
    23   1 H        0.924     0.081     1.974     2.197
    24   1 H        0.924     0.085     1.932     2.174
    25   1 H        0.925     0.064     2.154     2.295
    26   1 H        0.925     0.083     1.950     2.184
    27   1 H        0.925     0.065     2.143     2.289

Wiberg/Mayer (AO) data.
largest (>0.10) Wiberg bond orders for each atom

     #   Z sym  total        # sym  WBO       # sym  WBO       # sym  WBO
 ---------------------------------------------------------------------------
     1   6 C    3.957 --     2 C    1.026     3 S    0.971    12 H    0.963
                            11 H    0.959
     2   6 C    3.985 --     1 C    1.026    14 H    0.982    13 H    0.981
                            15 H    0.971
     3  16 S    2.422 --     4 C    1.152     1 C    0.971
     4   6 C    3.973 --     8 N    1.381     5 N    1.347     3 S    1.152
     5   7 N    3.497 --     4 C    1.347     6 C    0.967    16 H    0.914
                             8 N    0.128
     6   6 C    3.948 --     7 C    1.007    17 H    0.968     5 N    0.967
                            18 H    0.963
     7   6 C    3.985 --     6 C    1.007    19 H    0.984    21 H    0.984
                            20 H    0.977
     8   7 N    3.528 --     4 C    1.381     9 C    0.972    22 H    0.906
                             5 N    0.128
     9   6 C    3.945 --    10 C    1.020     8 N    0.972    23 H    0.957
                            24 H    0.955
    10   6 C    3.983 --     9 C    1.020    27 H    0.983    25 H    0.982
                            26 H    0.977
    11   1 H    0.991 --     1 C    0.959
    12   1 H    0.996 --     1 C    0.963
    13   1 H    0.998 --     2 C    0.981
    14   1 H    0.995 --     2 C    0.982
    15   1 H    0.994 --     2 C    0.971
    16   1 H    0.954 --     5 N    0.914
    17   1 H    0.993 --     6 C    0.968
    18   1 H    0.995 --     6 C    0.963
    19   1 H    0.996 --     7 C    0.984
    20   1 H    0.993 --     7 C    0.977
    21   1 H    0.997 --     7 C    0.984
    22   1 H    0.952 --     8 N    0.906
    23   1 H    0.993 --     9 C    0.957
    24   1 H    0.993 --     9 C    0.955
    25   1 H    0.996 --    10 C    0.982
    26   1 H    0.993 --    10 C    0.977
    27   1 H    0.996 --    10 C    0.983
 ---------------------------------------------------------------------------

molecular dipole:
                 x           y           z       tot (Debye)
 q only:        1.840       2.557      -4.962
   full:        2.152       2.646      -4.745      14.853

           -------------------------------------------------
          | TOTAL ENERGY              -32.365027700568 Eh   |
          | GRADIENT NORM               0.000692869433 Eh/α |
          | HOMO-LUMO GAP               3.789306868253 eV   |
           -------------------------------------------------

 * finished run on 2024/12/20 at 06:53:58.536
