   * xtb version 6.7.1 (edcfbbe) compiled by 'conda@3ef47c1a292c' on 2024-11-25

   ID    Z sym.   atoms
    1    6 C      1, 3, 5-9
    2    8 O      2
    3    7 N      4
    4    1 H      10-25

          program call               : xtb C0702.xyz --opt --namespace C0702 --charge +1
          :  Hamiltonian                  GFN2-xTB          :
 * total energy  :   -29.7280323 Eh     change       -0.2907896E-10 Eh
 * total energy  :   -29.7321972 Eh     change       -0.4164875E-02 Eh
 * total energy  :   -29.7332239 Eh     change       -0.1026693E-02 Eh
 * total energy  :   -29.7333803 Eh     change       -0.1563750E-03 Eh
 * total energy  :   -29.7334682 Eh     change       -0.8787987E-04 Eh
 * total energy  :   -29.7335287 Eh     change       -0.6056272E-04 Eh
 * total energy  :   -29.7335522 Eh     change       -0.2352654E-04 Eh
 * total energy  :   -29.7335688 Eh     change       -0.1650376E-04 Eh
 * total energy  :   -29.7335813 Eh     change       -0.1253363E-04 Eh
 * total energy  :   -29.7335939 Eh     change       -0.1256837E-04 Eh
 * total energy  :   -29.7336056 Eh     change       -0.1173095E-04 Eh
 * total energy  :   -29.7336118 Eh     change       -0.6167209E-05 Eh
 * total energy  :   -29.7336158 Eh     change       -0.4003324E-05 Eh
   *** GEOMETRY OPTIMIZATION CONVERGED AFTER 13 ITERATIONS ***

 final structure:
================
25
 xtb: 6.7.1 (edcfbbe)
C            1.42371042796233        0.81701405466228       -0.80161247475202
O            0.89355639361654        0.09709442314861        0.29964139279117
C            1.13274766390225        0.71026941563908        1.51776138834015
N            0.50346064845818       -0.07926895417304        2.61292172104038
C            0.61449985858368        0.70464660980900        3.85424135505218
C            1.14131715105154       -1.41826463210283        2.76632559185513
C            0.49434396940783       -2.30753224776740        1.71329167169874
C           -0.92714791404829       -1.74644509414323        1.56139135156863
C           -0.92006932863661       -0.39640295990772        2.28809165737269
H            0.97956695169151        1.81423544402990       -0.86996162063064
H            1.16701242562862        0.24052860551978       -1.68603252276646
H            2.51081548671918        0.90870596620940       -0.72404113502011
H            2.21359364927308        0.79002705879057        1.72488107107234
H            0.70036469951763        1.72600060884002        1.53824392129376
H            1.66055786568173        0.91588318329869        4.07208972781717
H            0.07692882968543        1.64662196380083        3.75607061107366
H            0.19086621907937        0.14701255005740        4.68751225792927
H            0.90686452790050       -1.78312036649550        3.76742872618373
H            2.22206074642263       -1.34068928570852        2.66165448877420
H            1.03018660567676       -2.24033613318235        0.76989875295053
H            0.49290594016731       -3.34689612196112        2.03264445280011
H           -1.17575360047793       -1.62416058815282        0.51068458251347
H           -1.66530575078710       -2.40846867141323        2.00945716796910
H           -1.34559671949888        0.40313453942799        1.68467904353223
H           -1.47117674697766       -0.45931936822596        3.22653681954057

          :  Hamiltonian                  GFN2-xTB          :
         :: total energy             -29.733615755667 Eh    ::
         :: gradient norm              0.000328044909 Eh/a0 ::
         :: HOMO-LUMO gap              8.760884186994 eV    ::
         :: SCC energy               -30.091973382907 Eh    ::
         :: -> dispersion             -0.017158301777 Eh    ::
         :: repulsion energy           0.358357627240 Eh    ::

    * Orbital Energies and Occupations

         #    Occupation            Energy/Eh            Energy/eV
      -------------------------------------------------------------
         1        2.0000           -0.8798357             -23.9415
       ...           ...                  ...                  ...
        15        2.0000           -0.6758282             -18.3902
        16        2.0000           -0.6700453             -18.2329
        17        2.0000           -0.6688278             -18.1997
        18        2.0000           -0.6587332             -17.9250
        19        2.0000           -0.6481857             -17.6380
        20        2.0000           -0.6446043             -17.5406
        21        2.0000           -0.6381626             -17.3653
        22        2.0000           -0.6177328             -16.8094
        23        2.0000           -0.6135031             -16.6943
        24        2.0000           -0.6088334             -16.5672
        25        2.0000           -0.6018691             -16.3777
        26        2.0000           -0.5757407             -15.6667
        27        2.0000           -0.5585654             -15.1993 (HOMO)
        28                         -0.2366088              -6.4385 (LUMO)
        29                         -0.1893007              -5.1511
        30                         -0.1721970              -4.6857
        31                         -0.1649317              -4.4880
        32                         -0.1075889              -2.9276
        33                         -0.0746406              -2.0311
        34                         -0.0471163              -1.2821
        35                         -0.0418735              -1.1394
        36                         -0.0312884              -0.8514
        37                         -0.0192628              -0.5242
        38                         -0.0080250              -0.2184
       ...                                ...                  ...
        52                          0.1970567               5.3622
      -------------------------------------------------------------
                  HL-Gap            0.3219566 Eh            8.7609 eV

     #   Z          covCN         q      C6AA      α(0)
     1   6 C        3.657     0.018    20.561     6.508
     2   8 O        1.701    -0.284    18.716     5.841
     3   6 C        3.669     0.122    18.814     6.218
     4   7 N        3.629     0.114    19.290     6.523
     5   6 C        3.715    -0.096    22.455     6.770
     6   6 C        3.789    -0.029    21.112     6.544
     7   6 C        3.814    -0.075    21.916     6.663
     8   6 C        3.815    -0.073    21.891     6.659
     9   6 C        3.783    -0.031    21.142     6.550
    10   1 H        0.924     0.055     2.263     2.352
    11   1 H        0.925     0.096     1.822     2.111
    12   1 H        0.924     0.055     2.253     2.348
    13   1 H        0.923     0.064     2.151     2.294
    14   1 H        0.923     0.064     2.153     2.295
    15   1 H        0.925     0.099     1.798     2.097
    16   1 H        0.925     0.099     1.793     2.094
    17   1 H        0.925     0.105     1.738     2.062
    18   1 H        0.924     0.090     1.878     2.143
    19   1 H        0.925     0.087     1.907     2.159
    20   1 H        0.925     0.087     1.904     2.158
    21   1 H        0.925     0.084     1.937     2.177
    22   1 H        0.925     0.087     1.909     2.161
    23   1 H        0.925     0.079     1.987     2.204
    24   1 H        0.925     0.094     1.845     2.124
    25   1 H        0.925     0.088     1.894     2.152

Wiberg/Mayer (AO) data.
largest (>0.10) Wiberg bond orders for each atom

     #   Z sym  total        # sym  WBO       # sym  WBO       # sym  WBO
 ---------------------------------------------------------------------------
     1   6 C    3.919 --    12 H    0.978    10 H    0.978    11 H    0.975
                             2 O    0.960
     2   8 O    2.089 --     3 C    1.026     1 C    0.960
     3   6 C    3.935 --     2 O    1.026    14 H    0.954    13 H    0.954
                             4 N    0.935
     4   7 N    3.801 --     5 C    0.962     3 C    0.935     6 C    0.923
                             9 C    0.921
     5   6 C    3.927 --    15 H    0.975    16 H    0.975    17 H    0.972
                             4 N    0.962
     6   6 C    3.925 --     7 C    1.008    19 H    0.969    18 H    0.968
                             4 N    0.923
     7   6 C    3.981 --     6 C    1.008     8 C    0.998    20 H    0.973
                            21 H    0.971
     8   6 C    3.982 --     9 C    1.003     7 C    0.998    23 H    0.976
                            22 H    0.976
     9   6 C    3.922 --     8 C    1.003    24 H    0.971    25 H    0.971
                             4 N    0.921
    10   1 H    0.997 --     1 C    0.978
    11   1 H    0.990 --     1 C    0.975
    12   1 H    0.997 --     1 C    0.978
    13   1 H    0.996 --     3 C    0.954
    14   1 H    0.996 --     3 C    0.954
    15   1 H    0.990 --     5 C    0.975
    16   1 H    0.990 --     5 C    0.975
    17   1 H    0.988 --     5 C    0.972
    18   1 H    0.992 --     6 C    0.968
    19   1 H    0.992 --     6 C    0.969
    20   1 H    0.992 --     7 C    0.973
    21   1 H    0.993 --     7 C    0.971
    22   1 H    0.992 --     8 C    0.976
    23   1 H    0.994 --     8 C    0.976
    24   1 H    0.991 --     9 C    0.971
    25   1 H    0.992 --     9 C    0.971
 ---------------------------------------------------------------------------

molecular dipole:
                 x           y           z       tot (Debye)
 q only:        1.010      -0.255       4.352
   full:        1.168       0.074       4.519      11.865

           -------------------------------------------------
          | TOTAL ENERGY              -29.733615755667 Eh   |
          | GRADIENT NORM               0.000328044909 Eh/α |
          | HOMO-LUMO GAP               8.760884186994 eV   |
           -------------------------------------------------

 * finished run on 2024/12/20 at 06:53:57.630
