   * xtb version 6.7.1 (edcfbbe) compiled by 'conda@3ef47c1a292c' on 2024-11-25

   ID    Z sym.   atoms
    1    6 C      1-12, 15, 16, 18-22
    2    8 O      13, 14
    3    7 N      17
    4    1 H      23-54

          program call               : xtb C0705.xyz --opt --namespace C0705 --charge +1
          :  Hamiltonian                  GFN2-xTB          :
 * total energy  :   -67.6724844 Eh     change       -0.3253717E-09 Eh
 * total energy  :   -67.6769605 Eh     change       -0.4476157E-02 Eh
 * total energy  :   -67.6777647 Eh     change       -0.8041812E-03 Eh
 * total energy  :   -67.6780148 Eh     change       -0.2500225E-03 Eh
 * total energy  :   -67.6782495 Eh     change       -0.2347537E-03 Eh
 * total energy  :   -67.6783852 Eh     change       -0.1356600E-03 Eh
 * total energy  :   -67.6785179 Eh     change       -0.1327087E-03 Eh
 * total energy  :   -67.6786613 Eh     change       -0.1434580E-03 Eh
 * total energy  :   -67.6788232 Eh     change       -0.1619017E-03 Eh
 * total energy  :   -67.6790259 Eh     change       -0.2026298E-03 Eh
 * total energy  :   -67.6897281 Eh     change       -0.3707121E-04 Eh
 * total energy  :   -67.6897467 Eh     change       -0.1868004E-04 Eh
 * total energy  :   -67.6897575 Eh     change       -0.1078227E-04 Eh
 * total energy  :   -67.6897812 Eh     change       -0.2368400E-04 Eh
 * total energy  :   -67.6897885 Eh     change       -0.7324663E-05 Eh
 * total energy  :   -67.6898064 Eh     change       -0.1782183E-04 Eh
 * total energy  :   -67.6898123 Eh     change       -0.5928426E-05 Eh
 * total energy  :   -67.6898214 Eh     change       -0.9086512E-05 Eh
 * total energy  :   -67.6898243 Eh     change       -0.2881828E-05 Eh
   *** GEOMETRY OPTIMIZATION CONVERGED AFTER 61 ITERATIONS ***

 final structure:
================
54
 xtb: 6.7.1 (edcfbbe)
C            1.05532198300847        1.28171197632216        0.49533225854888
C            0.09663039646825        0.26737105046906        1.02498093076807
C           -0.83097697733527       -0.16432810177691       -0.12552982439707
C           -2.05139916312341       -0.94827510231094        0.35570242281516
C           -3.01964029594272       -0.14956698731840        1.23195707443741
C           -3.48407503448530        1.18501005431277        0.64327334521169
C           -4.15389344639791        1.08939177433310       -0.72950559247685
C           -5.40967709475447        0.21568221191319       -0.77181165595507
C           -6.53144466735814        0.64840959837861        0.17386519753968
C           -7.03676914133374        2.07870512532295       -0.02768133547242
C           -7.57205910081013        2.38439150805927       -1.42777531764958
C           -8.77619501789207        1.53210185022331       -1.80973658946432
O            0.92596390427980        2.47958859327097        0.55433117221079
O            2.08597201572809        0.70958336996828       -0.16673810588157
C            3.07799931873521        1.57342197127063       -0.68955293916811
C            2.73458085022312        2.05900058143188       -2.11135511939672
N            1.53008403613380        2.87128873907186       -2.10281878755417
C            0.35697228272699        2.32832308403259       -2.44534740931266
C           -0.81977824780329        3.03803387322243       -2.32440930581638
C           -0.78154353600079        4.33552785605289       -1.83255636091033
C            0.44867463547086        4.88726488239656       -1.49912107495558
C            1.58890902171851        4.12708361050135       -1.64282278603013
H            0.63419414405585       -0.59738241025483        1.41031098743533
H           -0.48629051060860        0.73175774168070        1.81847918459264
H           -1.16821722085164        0.72592034152569       -0.66008096685019
H           -0.25991499329384       -0.78389101949962       -0.82070195126450
H           -2.58250684109526       -1.31038133797333       -0.52619447876970
H           -1.71666407234332       -1.82305229849735        0.91575358636075
H           -3.88984197472653       -0.77786188887987        1.42348171241585
H           -2.55737353906313        0.04928934519032        2.20101867939261
H           -4.18625830690592        1.63405646321589        1.34659099957518
H           -2.63259382289263        1.86884131494837        0.57210674428100
H           -4.41499352147956        2.10044112835718       -1.05122095595004
H           -3.44173549652333        0.69088919918572       -1.45825020834309
H           -5.78645525287272        0.21544698880823       -1.79650114428535
H           -5.13983473512477       -0.81495794582561       -0.53283147419441
H           -7.36474582579960       -0.04393509799945        0.04529598911129
H           -6.19349922676897        0.54809375277519        1.20735435749480
H           -7.83768417689353        2.25526826872473        0.69413115656609
H           -6.23519005390408        2.78443947750964        0.20405553227117
H           -7.86399330523274        3.43727912297300       -1.45468568467175
H           -6.78132092942240        2.24878459857395       -2.16894982484507
H           -9.55691693589670        1.61970098545979       -1.05773036433883
H           -9.18242801749440        1.86046799482633       -2.76365573969846
H           -8.50330332970762        0.48403277028205       -1.90253719747257
H            3.20125160950680        2.42947921306143       -0.01627409723835
H            3.99938707411022        0.98983874823794       -0.72737979108050
H            3.57285976937193        2.64676872340833       -2.49010461774267
H            2.58024945898252        1.19331572362082       -2.75814944678481
H            0.36742677483385        1.31018535701641       -2.80710175994816
H           -1.75431691884515        2.57423692231573       -2.59904151110734
H           -1.69053843475281        4.90267976653078       -1.70841942132121
H            0.52280817514885        5.89201662867214       -1.11549344024273
H            2.56210371524356        4.51265990290057       -1.37742505046036

          :  Hamiltonian                  GFN2-xTB          :
         :: total energy             -67.689824256899 Eh    ::
         :: gradient norm              0.000508275371 Eh/a0 ::
         :: HOMO-LUMO gap              0.602389508606 eV    ::
         :: SCC energy               -68.653479183291 Eh    ::
         :: -> dispersion             -0.049679159004 Eh    ::
         :: repulsion energy           0.963654926393 Eh    ::

    * Orbital Energies and Occupations

         #    Occupation            Energy/Eh            Energy/eV
      -------------------------------------------------------------
         1        2.0000           -0.8795981             -23.9351
       ...           ...                  ...                  ...
        50        2.0000           -0.5476316             -14.9018
        51        2.0000           -0.5406955             -14.7131
        52        2.0000           -0.5356512             -14.5758
        53        2.0000           -0.5317307             -14.4691
        54        2.0000           -0.5222386             -14.2108
        55        2.0000           -0.5161709             -14.0457
        56        2.0000           -0.5126676             -13.9504
        57        2.0000           -0.5054276             -13.7534
        58        2.0000           -0.5005609             -13.6210
        59        2.0000           -0.4987769             -13.5724
        60        2.0000           -0.4834016             -13.1540
        61        2.0000           -0.4797095             -13.0536
        62        2.0000           -0.4779045             -13.0044 (HOMO)
        63        0.0000           -0.4557671             -12.4021 (LUMO)
        64                         -0.4234805             -11.5235
        65                         -0.3614077              -9.8344
        66                         -0.3032804              -8.2527
        67                         -0.1778488              -4.8395
        68                         -0.1257567              -3.4220
        69                         -0.0767781              -2.0892
        70                         -0.0687908              -1.8719
        71                         -0.0437648              -1.1909
        72                         -0.0310249              -0.8442
        73                         -0.0154566              -0.4206
       ...                                ...                  ...
       120                          0.5100086              13.8780
      -------------------------------------------------------------
                  HL-Gap            0.0221374 Eh            0.6024 eV

     #   Z          covCN         q      C6AA      α(0)
     1   6 C        2.721     0.358    20.923     7.488
     2   6 C        3.804    -0.096    22.335     6.728
     3   6 C        3.806    -0.049    21.442     6.592
     4   6 C        3.801    -0.062    21.685     6.630
     5   6 C        3.800    -0.063    21.706     6.633
     6   6 C        3.800    -0.059    21.637     6.623
     7   6 C        3.799    -0.054    21.552     6.610
     8   6 C        3.800    -0.058    21.616     6.620
     9   6 C        3.800    -0.059    21.643     6.624
    10   6 C        3.800    -0.058    21.613     6.619
    11   6 C        3.799    -0.051    21.495     6.601
    12   6 C        3.751    -0.104    22.539     6.770
    13   8 O        0.856    -0.435    22.386     6.343
    14   8 O        1.705    -0.260    18.311     5.777
    15   6 C        3.700     0.068    19.601     6.331
    16   6 C        3.758    -0.041    21.361     6.589
    17   7 N        2.750     0.118    19.219     6.511
    18   6 C        2.891     0.037    27.168     8.546
    19   6 C        2.916    -0.007    28.203     8.708
    20   6 C        2.926     0.020    27.556     8.609
    21   6 C        2.916     0.000    28.028     8.681
    22   6 C        2.893     0.046    26.962     8.513
    23   1 H        0.925     0.082     1.963     2.191
    24   1 H        0.925     0.089     1.891     2.151
    25   1 H        0.924     0.031     2.579     2.512
    26   1 H        0.924     0.038     2.472     2.459
    27   1 H        0.924     0.049     2.333     2.389
    28   1 H        0.924     0.046     2.377     2.411
    29   1 H        0.924     0.050     2.323     2.383
    30   1 H        0.924     0.033     2.540     2.492
    31   1 H        0.924     0.044     2.395     2.420
    32   1 H        0.924     0.016     2.790     2.612
    33   1 H        0.924     0.027     2.634     2.538
    34   1 H        0.924     0.013     2.845     2.638
    35   1 H        0.924     0.035     2.522     2.484
    36   1 H        0.924     0.031     2.575     2.509
    37   1 H        0.924     0.039     2.462     2.454
    38   1 H        0.924     0.030     2.581     2.512
    39   1 H        0.924     0.034     2.525     2.485
    40   1 H        0.924     0.023     2.684     2.562
    41   1 H        0.924     0.028     2.620     2.531
    42   1 H        0.924     0.024     2.671     2.556
    43   1 H        0.925     0.038     2.476     2.461
    44   1 H        0.925     0.034     2.530     2.488
    45   1 H        0.925     0.035     2.511     2.478
    46   1 H        0.924     0.081     1.972     2.196
    47   1 H        0.924     0.102     1.771     2.081
    48   1 H        0.924     0.102     1.763     2.077
    49   1 H        0.924     0.105     1.742     2.064
    50   1 H        0.926     0.106     1.731     2.057
    51   1 H        0.926     0.109     1.703     2.041
    52   1 H        0.926     0.110     1.694     2.035
    53   1 H        0.926     0.113     1.667     2.019
    54   1 H        0.926     0.111     1.684     2.030

Wiberg/Mayer (AO) data.
largest (>0.10) Wiberg bond orders for each atom

     #   Z sym  total        # sym  WBO       # sym  WBO       # sym  WBO
 ---------------------------------------------------------------------------
     1   6 C    3.901 --    13 O    1.740    14 O    1.095     2 C    0.994
     2   6 C    3.985 --     1 C    0.994     3 C    0.964    23 H    0.963
                            24 H    0.961
     3   6 C    3.991 --     4 C    1.003    26 H    0.978    25 H    0.971
                             2 C    0.964
     4   6 C    3.993 --     5 C    1.008     3 C    1.003    28 H    0.976
                            27 H    0.971
     5   6 C    3.995 --     6 C    1.008     4 C    1.008    30 H    0.974
                            29 H    0.973
     6   6 C    3.997 --     5 C    1.008     7 C    1.007    32 H    0.975
                            31 H    0.973
     7   6 C    3.998 --     6 C    1.007     8 C    1.007    33 H    0.975
                            34 H    0.975
     8   6 C    3.997 --     9 C    1.008     7 C    1.007    36 H    0.975
                            35 H    0.975
     9   6 C    3.997 --     8 C    1.008    10 C    1.008    38 H    0.975
                            37 H    0.975
    10   6 C    3.997 --    11 C    1.008     9 C    1.008    39 H    0.977
                            40 H    0.976
    11   6 C    3.998 --    12 C    1.020    10 C    1.008    41 H    0.978
                            42 H    0.976
    12   6 C    3.996 --    11 C    1.020    43 H    0.987    44 H    0.987
                            45 H    0.986
    13   8 O    2.019 --     1 C    1.740    14 O    0.158
    14   8 O    2.298 --     1 C    1.095    15 C    0.970    13 O    0.158
    15   6 C    3.935 --    16 C    0.972    14 O    0.970    46 H    0.961
                            47 H    0.959
    16   6 C    3.944 --    17 N    0.973    15 C    0.972    49 H    0.963
                            48 H    0.958
    17   7 N    3.767 --    18 C    1.326    22 C    1.319    16 C    0.973
    18   6 C    3.957 --    19 C    1.460    17 N    1.326    50 H    0.954
    19   6 C    3.981 --    18 C    1.460    20 C    1.423    51 H    0.958
    20   6 C    3.968 --    19 C    1.423    21 C    1.417    52 H    0.961
    21   6 C    3.978 --    22 C    1.465    20 C    1.417    53 H    0.958
    22   6 C    3.955 --    21 C    1.465    17 N    1.319    54 H    0.954
    23   1 H    0.993 --     2 C    0.963
    24   1 H    0.992 --     2 C    0.961
    25   1 H    0.999 --     3 C    0.971
    26   1 H    0.999 --     3 C    0.978
    27   1 H    0.997 --     4 C    0.971
    28   1 H    0.997 --     4 C    0.976
    29   1 H    0.997 --     5 C    0.973
    30   1 H    0.999 --     5 C    0.974
    31   1 H    0.998 --     6 C    0.973
    32   1 H    1.000 --     6 C    0.975
    33   1 H    0.999 --     7 C    0.975
    34   1 H    1.000 --     7 C    0.975
    35   1 H    0.999 --     8 C    0.975
    36   1 H    0.999 --     8 C    0.975
    37   1 H    0.998 --     9 C    0.975
    38   1 H    0.999 --     9 C    0.975
    39   1 H    0.999 --    10 C    0.977
    40   1 H    0.999 --    10 C    0.976
    41   1 H    0.999 --    11 C    0.978
    42   1 H    0.999 --    11 C    0.976
    43   1 H    0.999 --    12 C    0.987
    44   1 H    0.999 --    12 C    0.987
    45   1 H    0.999 --    12 C    0.986
    46   1 H    0.993 --    15 C    0.961
    47   1 H    0.988 --    15 C    0.959
    48   1 H    0.989 --    16 C    0.958
    49   1 H    0.989 --    16 C    0.963
    50   1 H    0.989 --    18 C    0.954
    51   1 H    0.988 --    19 C    0.958
    52   1 H    0.988 --    20 C    0.961
    53   1 H    0.987 --    21 C    0.958
    54   1 H    0.988 --    22 C    0.954
 ---------------------------------------------------------------------------

molecular dipole:
                 x           y           z       tot (Debye)
 q only:        1.431       4.946      -3.547
   full:        1.622       4.896      -3.537      15.897

           -------------------------------------------------
          | TOTAL ENERGY              -67.689824256899 Eh   |
          | GRADIENT NORM               0.000508275371 Eh/α |
          | HOMO-LUMO GAP               0.602389508606 eV   |
           -------------------------------------------------

 * finished run on 2024/12/20 at 06:54:02.242
