   * xtb version 6.7.1 (edcfbbe) compiled by 'conda@3ef47c1a292c' on 2024-11-25

   ID    Z sym.   atoms
    1    6 C      1-3, 5-9
    2    7 N      4
    3    1 H      10-27

          program call               : xtb C0704.xyz --opt --namespace C0704 --charge +1
          :  Hamiltonian                  GFN2-xTB          :
 * total energy  :   -28.8427550 Eh     change       -0.2892975E-10 Eh
 * total energy  :   -28.8473564 Eh     change       -0.4601359E-02 Eh
 * total energy  :   -28.8484563 Eh     change       -0.1099915E-02 Eh
 * total energy  :   -28.8485195 Eh     change       -0.6319378E-04 Eh
 * total energy  :   -28.8485797 Eh     change       -0.6021908E-04 Eh
 * total energy  :   -28.8486079 Eh     change       -0.2823706E-04 Eh
 * total energy  :   -28.8486736 Eh     change       -0.6565238E-04 Eh
 * total energy  :   -28.8487475 Eh     change       -0.7388795E-04 Eh
 * total energy  :   -28.8487840 Eh     change       -0.3648032E-04 Eh
 * total energy  :   -28.8488314 Eh     change       -0.4743884E-04 Eh
 * total energy  :   -28.8489840 Eh     change       -0.2114713E-04 Eh
 * total energy  :   -28.8489955 Eh     change       -0.1150224E-04 Eh
 * total energy  :   -28.8490067 Eh     change       -0.1114904E-04 Eh
 * total energy  :   -28.8490184 Eh     change       -0.1171102E-04 Eh
 * total energy  :   -28.8490330 Eh     change       -0.1458843E-04 Eh
 * total energy  :   -28.8490490 Eh     change       -0.1602476E-04 Eh
 * total energy  :   -28.8490612 Eh     change       -0.1217552E-04 Eh
 * total energy  :   -28.8490663 Eh     change       -0.5160873E-05 Eh
 * total energy  :   -28.8490684 Eh     change       -0.2039257E-05 Eh
   *** GEOMETRY OPTIMIZATION CONVERGED AFTER 23 ITERATIONS ***

 final structure:
================
27
 xtb: 6.7.1 (edcfbbe)
C            1.83082862246573        1.02147569953262        0.19905074173214
C            0.70907107515996        0.45075179129089       -0.66531234925632
C            1.29923338143971       -0.51113608898316       -1.69530249311793
N            0.30978503020484       -1.31673875741313       -2.46609652546709
C           -0.67607603854304       -0.43231070547991       -3.11321216212398
C           -0.38925584818194       -2.32797555404886       -1.59883909192595
C           -0.07813258328028       -3.70749854883147       -2.18122573553465
C            0.23622250735434       -3.40640981233674       -3.64258222150054
C            1.02131232560770       -2.11063951069560       -3.51971764303568
H            2.34213441859156        0.23398390072861        0.74688579036791
H            1.42217646001424        1.72429769350474        0.91827318842750
H            2.55982377578380        1.54676948249844       -0.41223315846701
H           -0.00863774654613       -0.06117727569090       -0.02216110780534
H            0.19749542801649        1.27711546021762       -1.15892725850681
H            1.89418597938161        0.05853774948193       -2.41328385295331
H            1.96412559372956       -1.21291459071439       -1.18554305487236
H           -1.30492839513242        0.04685926426333       -2.36661809046994
H           -0.16444951946312        0.33798336795567       -3.68798422695157
H           -1.30710567494383       -1.01248887286463       -3.78342815949254
H           -1.46031672029707       -2.13307919637258       -1.62194112697482
H           -0.04638465737082       -2.23775025147787       -0.57025244737298
H            0.79159881249751       -4.14764347608438       -1.69394071481873
H           -0.91456779087530       -4.39094735661043       -2.06182328892245
H            0.82253660744144       -4.18955028853944       -4.11540312097108
H           -0.67703853039714       -3.26902576909476       -4.22100986176267
H            2.03207809900253       -2.32796885856947       -3.17103318071845
H            1.08307538834008       -1.54120949566454       -4.44529884750581

          :  Hamiltonian                  GFN2-xTB          :
         :: total energy             -28.849068355147 Eh    ::
         :: gradient norm              0.000385676217 Eh/a0 ::
         :: HOMO-LUMO gap              9.109608245618 eV    ::
         :: SCC energy               -29.257568897292 Eh    ::
         :: -> dispersion             -0.018280952114 Eh    ::
         :: repulsion energy           0.408500542144 Eh    ::

    * Orbital Energies and Occupations

         #    Occupation            Energy/Eh            Energy/eV
      -------------------------------------------------------------
         1        2.0000           -0.8641082             -23.5136
       ...           ...                  ...                  ...
        15        2.0000           -0.6655159             -18.1096
        16        2.0000           -0.6579166             -17.9028
        17        2.0000           -0.6485771             -17.6487
        18        2.0000           -0.6424389             -17.4817
        19        2.0000           -0.6338929             -17.2491
        20        2.0000           -0.6245266             -16.9942
        21        2.0000           -0.6194747             -16.8568
        22        2.0000           -0.6159241             -16.7601
        23        2.0000           -0.6107370             -16.6190
        24        2.0000           -0.6001285             -16.3303
        25        2.0000           -0.5895300             -16.0419
        26        2.0000           -0.5773279             -15.7099
        27        2.0000           -0.5707650             -15.5313 (HOMO)
        28                         -0.2359931              -6.4217 (LUMO)
        29                         -0.1885024              -5.1294
        30                         -0.1656956              -4.5088
        31                         -0.1536124              -4.1800
        32                         -0.0794148              -2.1610
        33                         -0.0531339              -1.4458
        34                         -0.0469786              -1.2784
        35                         -0.0424690              -1.1556
        36                         -0.0347713              -0.9462
        37                         -0.0228277              -0.6212
        38                         -0.0132539              -0.3607
       ...                                ...                  ...
        54                          0.1670444               4.5455
      -------------------------------------------------------------
                  HL-Gap            0.3347719 Eh            9.1096 eV

     #   Z          covCN         q      C6AA      α(0)
     1   6 C        3.754    -0.118    22.814     6.811
     2   6 C        3.799    -0.067    21.777     6.644
     3   6 C        3.757    -0.037    21.286     6.578
     4   7 N        3.628     0.113    19.292     6.524
     5   6 C        3.713    -0.090    22.352     6.756
     6   6 C        3.778    -0.037    21.265     6.570
     7   6 C        3.832    -0.074    21.883     6.656
     8   6 C        3.824    -0.072    21.855     6.652
     9   6 C        3.797    -0.035    21.203     6.557
    10   1 H        0.925     0.052     2.290     2.366
    11   1 H        0.925     0.069     2.093     2.263
    12   1 H        0.925     0.055     2.258     2.350
    13   1 H        0.924     0.053     2.289     2.366
    14   1 H        0.925     0.059     2.211     2.325
    15   1 H        0.924     0.082     1.958     2.188
    16   1 H        0.924     0.084     1.936     2.176
    17   1 H        0.925     0.098     1.806     2.101
    18   1 H        0.925     0.095     1.834     2.118
    19   1 H        0.925     0.099     1.791     2.093
    20   1 H        0.925     0.090     1.879     2.144
    21   1 H        0.925     0.092     1.862     2.134
    22   1 H        0.925     0.071     2.072     2.251
    23   1 H        0.925     0.084     1.938     2.177
    24   1 H        0.925     0.087     1.911     2.162
    25   1 H        0.925     0.068     2.112     2.272
    26   1 H        0.924     0.089     1.887     2.148
    27   1 H        0.925     0.089     1.890     2.150

Wiberg/Mayer (AO) data.
largest (>0.10) Wiberg bond orders for each atom

     #   Z sym  total        # sym  WBO       # sym  WBO       # sym  WBO
 ---------------------------------------------------------------------------
     1   6 C    3.987 --     2 C    1.012    12 H    0.986    10 H    0.986
                            11 H    0.982
     2   6 C    3.987 --     1 C    1.012     3 C    1.005    14 H    0.974
                            13 H    0.972
     3   6 C    3.930 --     2 C    1.005    15 H    0.968    16 H    0.966
                             4 N    0.932
     4   7 N    3.802 --     5 C    0.964     3 C    0.932     9 C    0.927
                             6 C    0.925
     5   6 C    3.931 --    18 H    0.975    19 H    0.974    17 H    0.973
                             4 N    0.964
     6   6 C    3.932 --     7 C    1.006    20 H    0.971    21 H    0.968
                             4 N    0.925
     7   6 C    3.986 --     6 C    1.006     8 C    1.004    22 H    0.976
                            23 H    0.971
     8   6 C    3.986 --     9 C    1.011     7 C    1.004    25 H    0.973
                            24 H    0.968
     9   6 C    3.934 --     8 C    1.011    27 H    0.969    26 H    0.968
                             4 N    0.927
    10   1 H    0.997 --     1 C    0.986
    11   1 H    0.995 --     1 C    0.982
    12   1 H    0.997 --     1 C    0.986
    13   1 H    0.997 --     2 C    0.972
    14   1 H    0.997 --     2 C    0.974
    15   1 H    0.993 --     3 C    0.968
    16   1 H    0.993 --     3 C    0.966
    17   1 H    0.990 --     5 C    0.973
    18   1 H    0.991 --     5 C    0.975
    19   1 H    0.990 --     5 C    0.974
    20   1 H    0.992 --     6 C    0.971
    21   1 H    0.992 --     6 C    0.968
    22   1 H    0.995 --     7 C    0.976
    23   1 H    0.993 --     7 C    0.971
    24   1 H    0.992 --     8 C    0.968
    25   1 H    0.995 --     8 C    0.973
    26   1 H    0.992 --     9 C    0.968
    27   1 H    0.992 --     9 C    0.969
 ---------------------------------------------------------------------------

molecular dipole:
                 x           y           z       tot (Debye)
 q only:        0.606      -2.695      -4.473
   full:        0.622      -2.619      -4.512      13.354

           -------------------------------------------------
          | TOTAL ENERGY              -28.849068355147 Eh   |
          | GRADIENT NORM               0.000385676217 Eh/α |
          | HOMO-LUMO GAP               9.109608245618 eV   |
           -------------------------------------------------

 * finished run on 2024/12/20 at 06:53:59.229
