   * xtb version 6.7.1 (edcfbbe) compiled by 'conda@3ef47c1a292c' on 2024-11-25

   ID    Z sym.   atoms
    1    7 N      1, 4, 8
    2    6 C      2, 3, 6, 7
    3    8 O      5, 9
    4   35 Br     10
    5    1 H      11-13

          program call               : xtb C0701.xyz --opt --namespace C0701 --charge +1
          :  Hamiltonian                  GFN2-xTB          :
 * total energy  :   -30.4739113 Eh     change       -0.4917666E-09 Eh
 * total energy  :   -30.4884456 Eh     change       -0.1453433E-01 Eh
 * total energy  :   -30.4918263 Eh     change       -0.3380718E-02 Eh
 * total energy  :   -30.4922467 Eh     change       -0.4203463E-03 Eh
 * total energy  :   -30.4921997 Eh     change        0.4690831E-04 Eh
 * total energy  :   -30.4923756 Eh     change       -0.1758350E-03 Eh
 * total energy  :   -30.4923917 Eh     change       -0.1616842E-04 Eh
 * total energy  :   -30.4923947 Eh     change       -0.2968859E-05 Eh
   *** GEOMETRY OPTIMIZATION CONVERGED AFTER 8 ITERATIONS ***

 final structure:
================
13
 xtb: 6.7.1 (edcfbbe)
N            1.13360363052854       -0.03602885435981        0.05057153338335
C            2.27579555475765       -0.02405517128739        0.05198315241040
C            3.68548896799490       -0.01269242869124        0.05604907605673
N            4.49559232832158       -1.08752021752890        0.05798305512249
O            4.01566656676083       -2.34165092758747        0.05653283160940
C            5.78384013704742       -0.68736130888879        0.06154575773900
C            5.77787266023834        0.69360831280103        0.06189885793085
N            4.47432363731583        1.08158712560344        0.05849031698489
O            3.98594377477735        2.32854728406397        0.05758027539418
Br           7.17584411199342        1.93734444654607        0.06579462007808
H            4.73194096884505       -3.00238401294856        0.05710129516890
H            6.62302678165805       -1.35689420924349        0.06359024188183
H            4.71099087976104        2.98555996152115        0.05894898623990

          :  Hamiltonian                  GFN2-xTB          :
         :: total energy             -30.492394718121 Eh    ::
         :: gradient norm              0.000315272031 Eh/a0 ::
         :: HOMO-LUMO gap              3.095371537852 eV    ::
         :: SCC energy               -30.822795329067 Eh    ::
         :: -> dispersion             -0.011631430043 Eh    ::
         :: repulsion energy           0.330400610946 Eh    ::

    * Orbital Energies and Occupations

         #    Occupation            Energy/Eh            Energy/eV
      -------------------------------------------------------------
         1        2.0000           -1.0280875             -27.9757
       ...           ...                  ...                  ...
        14        2.0000           -0.7925138             -21.5654
        15        2.0000           -0.7590710             -20.6554
        16        2.0000           -0.7390429             -20.1104
        17        2.0000           -0.7241672             -19.7056
        18        2.0000           -0.7117495             -19.3677
        19        2.0000           -0.7025545             -19.1175
        20        2.0000           -0.6930870             -18.8599
        21        2.0000           -0.6687722             -18.1982
        22        2.0000           -0.6481000             -17.6357
        23        2.0000           -0.6340125             -17.2524
        24        2.0000           -0.6137224             -16.7002
        25        2.0000           -0.6083017             -16.5527
        26        2.0000           -0.5990224             -16.3002 (HOMO)
        27                         -0.4852696             -13.2049 (LUMO)
        28                         -0.4371667             -11.8959
        29                         -0.4162358             -11.3264
        30                         -0.3986855             -10.8488
        31                         -0.3340263              -9.0893
        32                         -0.3124457              -8.5021
        33                         -0.2393448              -6.5129
        34                         -0.2032652              -5.5311
        35                         -0.1642511              -4.4695
        36                         -0.1541224              -4.1939
        37                         -0.1207464              -3.2857
       ...                                ...                  ...
        48                          1.0052359              27.3539
      -------------------------------------------------------------
                  HL-Gap            0.1137528 Eh            3.0954 eV

     #   Z          covCN         q      C6AA      α(0)
     1   7 N        0.911    -0.055    22.307     6.831
     2   6 C        1.895     0.130    27.921     8.534
     3   6 C        3.072     0.089    25.945     8.352
     4   7 N        2.882     0.223    17.593     6.230
     5   8 O        1.725    -0.270    18.464     5.802
     6   6 C        3.056    -0.043    29.012     8.833
     7   6 C        3.022     0.085    26.084     8.378
     8   7 N        2.933     0.204    17.867     6.278
     9   8 O        1.724    -0.265    18.387     5.790
    10  35 Br       1.001     0.002   184.921    21.926
    11   1 H        0.804     0.375     0.533     1.147
    12   1 H        0.926     0.145     1.427     1.868
    13   1 H        0.803     0.378     0.526     1.140

Wiberg/Mayer (AO) data.
largest (>0.10) Wiberg bond orders for each atom

     #   Z sym  total        # sym  WBO       # sym  WBO       # sym  WBO
 ---------------------------------------------------------------------------
     1   7 N    3.044 --     2 C    2.838
     2   6 C    3.964 --     1 N    2.838     3 C    1.092
     3   6 C    3.925 --     4 N    1.252     8 N    1.237     2 C    1.092
     4   7 N    3.738 --     3 C    1.252     6 C    1.250     5 O    1.047
     5   8 O    2.071 --     4 N    1.047    11 H    0.843
     6   6 C    3.929 --     7 C    1.439     4 N    1.250    12 H    0.949
     7   6 C    3.934 --     6 C    1.439     8 N    1.211    10 Br   1.081
     8   7 N    3.725 --     3 C    1.237     7 C    1.211     9 O    1.050
     9   8 O    2.076 --     8 N    1.050    13 H    0.831
    10  35 Br   1.274 --     7 C    1.081
    11   1 H    0.859 --     5 O    0.843
    12   1 H    0.978 --     6 C    0.949
    13   1 H    0.856 --     9 O    0.831
 ---------------------------------------------------------------------------

molecular dipole:
                 x           y           z       tot (Debye)
 q only:        9.668      -0.207       0.112
   full:       10.897      -0.258       0.114      27.708

           -------------------------------------------------
          | TOTAL ENERGY              -30.492394718121 Eh   |
          | GRADIENT NORM               0.000315272031 Eh/α |
          | HOMO-LUMO GAP               3.095371537852 eV   |
           -------------------------------------------------

 * finished run on 2024/12/20 at 06:53:57.110
