   * xtb version 6.7.1 (edcfbbe) compiled by 'conda@3ef47c1a292c' on 2024-11-25

   ID    Z sym.   atoms
    1    6 C      1-8, 10-16
    2    7 N      9
    3    1 H      17-42

          program call               : xtb C0715.xyz --opt --namespace C0715 --charge +1
          :  Hamiltonian                  GFN2-xTB          :
 * total energy  :   -47.9319808 Eh     change       -0.8879297E-09 Eh
 * total energy  :   -47.9349020 Eh     change       -0.2921198E-02 Eh
 * total energy  :   -47.9354287 Eh     change       -0.5266740E-03 Eh
 * total energy  :   -47.9355413 Eh     change       -0.1125562E-03 Eh
 * total energy  :   -47.9356603 Eh     change       -0.1190250E-03 Eh
 * total energy  :   -47.9357513 Eh     change       -0.9097482E-04 Eh
 * total energy  :   -47.9358425 Eh     change       -0.9124973E-04 Eh
 * total energy  :   -47.9359482 Eh     change       -0.1057089E-03 Eh
 * total energy  :   -47.9360590 Eh     change       -0.1108002E-03 Eh
 * total energy  :   -47.9361839 Eh     change       -0.1249208E-03 Eh
 * total energy  :   -47.9368113 Eh     change       -0.5218340E-05 Eh
 * total energy  :   -47.9368197 Eh     change       -0.8335692E-05 Eh
 * total energy  :   -47.9368310 Eh     change       -0.1132879E-04 Eh
 * total energy  :   -47.9368428 Eh     change       -0.1181335E-04 Eh
 * total energy  :   -47.9368559 Eh     change       -0.1311845E-04 Eh
 * total energy  :   -47.9368644 Eh     change       -0.8424748E-05 Eh
 * total energy  :   -47.9368676 Eh     change       -0.3215571E-05 Eh
 * total energy  :   -47.9368752 Eh     change       -0.7649362E-05 Eh
 * total energy  :   -47.9368792 Eh     change       -0.3983792E-05 Eh
   *** GEOMETRY OPTIMIZATION CONVERGED AFTER 37 ITERATIONS ***

 final structure:
================
42
 xtb: 6.7.1 (edcfbbe)
C            1.34182513620508       -0.47156856757854       -0.67905924115051
C            1.06846657984895       -1.89905719982259       -0.22097873078018
C            1.38388232165267       -2.13049701903699        1.25795407679579
C            0.56046525564627       -1.28681789391979        2.23365681865724
C           -0.95605657038636       -1.46488052742452        2.12518375340322
C           -1.45460607267853       -2.90090566803139        2.30948299051857
C           -1.08879345987057       -3.54548830355772        3.64625514536794
C           -1.74288895975998       -2.87832432454295        4.86468041811957
N           -3.18076152757417       -3.08359484718389        4.85633829642973
C           -3.98353923446775       -2.16440547274038        4.31513080891325
C           -5.35576689052582       -2.35613699656502        4.22854188537639
C           -6.23882321201288       -1.32429591894678        3.61975381967516
C           -5.87378185373656       -3.54915435305147        4.72629727539571
C           -5.03504917547106       -4.50887447368119        5.28949199705344
C           -3.67691230535393       -4.23006572843271        5.33017342945941
C           -5.57513348959897       -5.77905869424174        5.84620048202638
H            0.67059430645394        0.23597105586147       -0.19854129593928
H            1.20111989008119       -0.39055991161570       -1.75387919024569
H            2.36556964198919       -0.18772628963195       -0.44733883120053
H            0.02792054288378       -2.15641182683446       -0.42946056829277
H            1.69131766302100       -2.57940149281265       -0.80542643978348
H            1.25036803223352       -3.19094600679539        1.48428122846880
H            2.43732953640455       -1.89720131236151        1.42643068120593
H            0.88775291027222       -1.51722287840692        3.25068210745198
H            0.78438887026823       -0.23297329728086        2.06387247822036
H           -1.42679279022297       -0.80146479963570        2.85650039965306
H           -1.28175590830487       -1.12599755915246        1.14125785269294
H           -2.54080424415014       -2.92059482759671        2.17428470541244
H           -1.02877720674196       -3.51871918371194        1.51903876370570
H           -1.37364436219506       -4.59987011474971        3.62443783923177
H           -0.00983392721708       -3.49918657534260        3.78696701108418
H           -1.33386154431290       -3.31018110983135        5.77997845857149
H           -1.53380447700499       -1.80856428299647        4.85962691595572
H           -3.52524663195227       -1.25693288417403        3.95261978406728
H           -5.69099022753193       -0.41591158740035        3.38764959272309
H           -6.68067236300031       -1.70812339184627        2.70069386692198
H           -7.05778502648105       -1.08152734246173        4.29428047362220
H           -6.93707286196211       -3.73059423840031        4.67840938365862
H           -2.97542300720920       -4.93304368765469        5.75405191651859
H           -4.78890832632503       -6.51174838576132        6.00409042886536
H           -6.05825152836551       -5.58364483623614        6.80421600303560
H           -6.32821350254591       -6.19934724442573        5.18282320912392

          :  Hamiltonian                  GFN2-xTB          :
         :: total energy             -47.936879209741 Eh    ::
         :: gradient norm              0.000873844961 Eh/a0 ::
         :: HOMO-LUMO gap              1.552170958676 eV    ::
         :: SCC energy               -48.706404059592 Eh    ::
         :: -> dispersion             -0.034140694219 Eh    ::
         :: repulsion energy           0.769524849851 Eh    ::

    * Orbital Energies and Occupations

         #    Occupation            Energy/Eh            Energy/eV
      -------------------------------------------------------------
         1        2.0000           -0.8623204             -23.4649
       ...           ...                  ...                  ...
        33        2.0000           -0.5880551             -16.0018
        34        2.0000           -0.5809319             -15.8080
        35        2.0000           -0.5752431             -15.6532
        36        2.0000           -0.5727064             -15.5841
        37        2.0000           -0.5673570             -15.4386
        38        2.0000           -0.5570421             -15.1579
        39        2.0000           -0.5527254             -15.0404
        40        2.0000           -0.5373002             -14.6207
        41        2.0000           -0.5306187             -14.4389
        42        2.0000           -0.5257727             -14.3070
        43        2.0000           -0.5046160             -13.7313
        44        2.0000           -0.5008399             -13.6285
        45        2.0000           -0.4964883             -13.5101 (HOMO)
        46                         -0.4394471             -11.9580 (LUMO)
        47                         -0.4036431             -10.9837
        48                         -0.2904424              -7.9033
        49                         -0.1588357              -4.3221
        50                         -0.0752462              -2.0476
        51                         -0.0582488              -1.5850
        52                         -0.0448305              -1.2199
        53                         -0.0378777              -1.0307
        54                         -0.0299325              -0.8145
        55                         -0.0093396              -0.2541
        56                         -0.0053518              -0.1456
       ...                                ...                  ...
        90                          0.4417231              12.0199
      -------------------------------------------------------------
                  HL-Gap            0.0570412 Eh            1.5522 eV

     #   Z          covCN         q      C6AA      α(0)
     1   6 C        3.751    -0.105    22.571     6.775
     2   6 C        3.799    -0.054    21.551     6.610
     3   6 C        3.800    -0.061    21.679     6.629
     4   6 C        3.800    -0.062    21.691     6.631
     5   6 C        3.800    -0.061    21.666     6.627
     6   6 C        3.800    -0.065    21.750     6.640
     7   6 C        3.801    -0.068    21.803     6.648
     8   6 C        3.761    -0.032    21.196     6.563
     9   7 N        2.747     0.103    19.471     6.554
    10   6 C        2.898     0.013    27.730     8.634
    11   6 C        2.959     0.043    27.034     8.528
    12   6 C        3.759    -0.131    23.066     6.847
    13   6 C        2.936    -0.020    28.503     8.756
    14   6 C        2.959     0.044    27.017     8.526
    15   6 C        2.900     0.011    27.777     8.642
    16   6 C        3.759    -0.131    23.069     6.848
    17   1 H        0.925     0.033     2.548     2.496
    18   1 H        0.925     0.039     2.460     2.453
    19   1 H        0.925     0.040     2.448     2.447
    20   1 H        0.924     0.027     2.626     2.534
    21   1 H        0.924     0.036     2.504     2.475
    22   1 H        0.924     0.026     2.642     2.542
    23   1 H        0.924     0.041     2.439     2.442
    24   1 H        0.924     0.025     2.655     2.548
    25   1 H        0.924     0.047     2.362     2.404
    26   1 H        0.924     0.016     2.790     2.612
    27   1 H        0.924     0.050     2.317     2.380
    28   1 H        0.924     0.023     2.688     2.564
    29   1 H        0.925     0.064     2.155     2.296
    30   1 H        0.924     0.049     2.334     2.389
    31   1 H        0.925     0.081     1.971     2.196
    32   1 H        0.924     0.084     1.942     2.179
    33   1 H        0.925     0.092     1.860     2.133
    34   1 H        0.926     0.100     1.787     2.091
    35   1 H        0.925     0.074     2.037     2.232
    36   1 H        0.925     0.093     1.854     2.130
    37   1 H        0.925     0.090     1.875     2.142
    38   1 H        0.926     0.094     1.845     2.124
    39   1 H        0.926     0.097     1.815     2.107
    40   1 H        0.925     0.075     2.026     2.226
    41   1 H        0.924     0.094     1.843     2.123
    42   1 H        0.925     0.088     1.894     2.152

Wiberg/Mayer (AO) data.
largest (>0.10) Wiberg bond orders for each atom

     #   Z sym  total        # sym  WBO       # sym  WBO       # sym  WBO
 ---------------------------------------------------------------------------
     1   6 C    3.996 --     2 C    1.020    19 H    0.987    18 H    0.987
                            17 H    0.986
     2   6 C    3.998 --     1 C    1.020     3 C    1.008    21 H    0.978
                            20 H    0.976
     3   6 C    3.996 --     2 C    1.008     4 C    1.007    23 H    0.976
                            22 H    0.976
     4   6 C    3.996 --     3 C    1.007     5 C    1.007    24 H    0.975
                            25 H    0.974
     5   6 C    3.995 --     4 C    1.007     6 C    1.007    27 H    0.973
                            26 H    0.973
     6   6 C    3.993 --     7 C    1.009     5 C    1.007    28 H    0.974
                            29 H    0.967
     7   6 C    3.982 --     6 C    1.009     8 C    0.975    30 H    0.974
                            31 H    0.961
     8   6 C    3.936 --     7 C    0.975     9 N    0.964    32 H    0.963
                            33 H    0.961
     9   7 N    3.763 --    10 C    1.328    15 C    1.325     8 C    0.964
    10   6 C    3.958 --    11 C    1.400     9 N    1.328    34 H    0.952
    11   6 C    3.983 --    10 C    1.400    13 C    1.397    12 C    1.043
    12   6 C    3.984 --    11 C    1.043    35 H    0.981    37 H    0.959
                            36 H    0.951
    13   6 C    3.980 --    11 C    1.397    14 C    1.391    38 H    0.962
    14   6 C    3.982 --    15 C    1.407    13 C    1.391    16 C    1.042
    15   6 C    3.960 --    14 C    1.407     9 N    1.325    39 H    0.955
    16   6 C    3.984 --    14 C    1.042    40 H    0.979    42 H    0.964
                            41 H    0.948
    17   1 H    0.999 --     1 C    0.986
    18   1 H    0.998 --     1 C    0.987
    19   1 H    0.998 --     1 C    0.987
    20   1 H    0.999 --     2 C    0.976
    21   1 H    0.999 --     2 C    0.978
    22   1 H    0.999 --     3 C    0.976
    23   1 H    0.998 --     3 C    0.976
    24   1 H    0.999 --     4 C    0.975
    25   1 H    0.998 --     4 C    0.974
    26   1 H    1.000 --     5 C    0.973
    27   1 H    0.997 --     5 C    0.973
    28   1 H    0.999 --     6 C    0.974
    29   1 H    0.995 --     6 C    0.967
    30   1 H    0.998 --     7 C    0.974
    31   1 H    0.992 --     7 C    0.961
    32   1 H    0.993 --     8 C    0.963
    33   1 H    0.991 --     8 C    0.961
    34   1 H    0.989 --    10 C    0.952
    35   1 H    0.994 --    12 C    0.981
    36   1 H    0.991 --    12 C    0.951
    37   1 H    0.992 --    12 C    0.959
    38   1 H    0.991 --    13 C    0.962
    39   1 H    0.990 --    15 C    0.955
    40   1 H    0.994 --    16 C    0.979
    41   1 H    0.991 --    16 C    0.948
    42   1 H    0.992 --    16 C    0.964
 ---------------------------------------------------------------------------

molecular dipole:
                 x           y           z       tot (Debye)
 q only:       -7.205      -6.052       8.520
   full:       -7.208      -6.060       8.622      32.451

           -------------------------------------------------
          | TOTAL ENERGY              -47.936879209741 Eh   |
          | GRADIENT NORM               0.000873844961 Eh/α |
          | HOMO-LUMO GAP               1.552170958676 eV   |
           -------------------------------------------------

 * finished run on 2024/12/20 at 06:54:14.637
