   * xtb version 6.7.1 (edcfbbe) compiled by 'conda@3ef47c1a292c' on 2024-11-25

   ID    Z sym.   atoms
    1    6 C      1-4, 6-11, 13-15
    2    7 N      5, 12
    3    1 H      16-40

          program call               : xtb C0719.xyz --opt --namespace C0719 --charge +1
          :  Hamiltonian                  GFN2-xTB          :
 * total energy  :   -46.0998022 Eh     change       -0.2206235E-09 Eh
 * total energy  :   -46.1047221 Eh     change       -0.4919979E-02 Eh
 * total energy  :   -46.1055749 Eh     change       -0.8527497E-03 Eh
 * total energy  :   -46.1057029 Eh     change       -0.1280199E-03 Eh
 * total energy  :   -46.1058139 Eh     change       -0.1110123E-03 Eh
 * total energy  :   -46.1058909 Eh     change       -0.7693942E-04 Eh
 * total energy  :   -46.1059834 Eh     change       -0.9251624E-04 Eh
 * total energy  :   -46.1060928 Eh     change       -0.1094756E-03 Eh
 * total energy  :   -46.1062016 Eh     change       -0.1087690E-03 Eh
 * total energy  :   -46.1063141 Eh     change       -0.1124994E-03 Eh
 * total energy  :   -46.1124555 Eh     change       -0.2054956E-04 Eh
 * total energy  :   -46.1124710 Eh     change       -0.1543695E-04 Eh
 * total energy  :   -46.1124869 Eh     change       -0.1589185E-04 Eh
 * total energy  :   -46.1124962 Eh     change       -0.9295090E-05 Eh
 * total energy  :   -46.1125161 Eh     change       -0.1990535E-04 Eh
 * total energy  :   -46.1125266 Eh     change       -0.1048005E-04 Eh
 * total energy  :   -46.1125368 Eh     change       -0.1022615E-04 Eh
 * total energy  :   -46.1125430 Eh     change       -0.6260511E-05 Eh
 * total energy  :   -46.1125458 Eh     change       -0.2789584E-05 Eh
   *** GEOMETRY OPTIMIZATION CONVERGED AFTER 68 ITERATIONS ***

 final structure:
================
40
 xtb: 6.7.1 (edcfbbe)
C            1.55111242956081        1.75238533156932       -0.10542633024042
C            0.39487187940064        0.81876361742561        0.23526134435228
C            0.49751021187123        0.24652175738686        1.65111831814247
C            0.06261026523368        1.23856861867564        2.73725240001051
N           -1.34988094913634        1.58485010776246        2.63750222870428
C           -1.83878873867905        2.80608881634832        2.47659013322400
C           -0.95258592284500        4.01342696495269        2.54437545749873
C           -0.63252781613454        4.60148156534740        1.15940475501672
C           -1.73980068603345        5.51667763838192        0.64957938274492
C           -3.08681454211209        4.81070902112581        0.52875070798258
C           -3.64554644053774        4.32435168163242        1.86875295339946
N           -3.13030059304263        3.01894282223306        2.26196099255440
C           -4.11298718770206        1.95033173732238        2.33748460012493
C           -3.59443108219469        0.85074440020041        3.24491018174477
C           -2.23440238099760        0.42937564545596        2.72090240961721
H            1.63006802337047        2.57521036070482        0.60107659918742
H            1.41913627177260        2.16975318314645       -1.10018515591276
H            2.48982866189151        1.20523860564433       -0.09263809215293
H           -0.55815356835497        1.34217145933984        0.11592879826839
H            0.39931177045061       -0.00814061874621       -0.47572608037417
H           -0.08487552366616       -0.67141226246446        1.72439944898870
H            1.53666654358530       -0.01635665832870        1.85231673356557
H            0.23533534510359        0.79422334249436        3.72285363385481
H            0.68417842380623        2.12361382223715        2.64701601351406
H           -0.03023126532520        3.77608245654136        3.06807736076457
H           -1.45552816288981        4.77794721002912        3.13980087698014
H           -0.46104778751564        3.79590991102131        0.44514854051004
H            0.28853617267023        5.17956030686035        1.23448476220842
H           -1.84169390171625        6.37213839588206        1.32028821885560
H           -1.45438031501826        5.90274806852179       -0.32919898998500
H           -3.80468573427041        5.51048153723890        0.10056210940021
H           -3.00577574577743        3.96407096302918       -0.15588173960764
H           -4.72671733001349        4.21993624626072        1.78240422063134
H           -3.45075460370505        5.06636296694082        2.64867718486388
H           -4.31896984393585        1.56182131993608        1.33404955355590
H           -5.04058197027443        2.36408622975059        2.73782243447171
H           -4.27838150846486        0.00469773988600        3.24842289569343
H           -3.50261794143859        1.22482045649965        4.26608509239323
H           -2.34080280781931       -0.02822682995548        1.73253064179190
H           -1.77464164910831       -0.30012793826720        3.39014540365184

          :  Hamiltonian                  GFN2-xTB          :
         :: total energy             -46.112545827247 Eh    ::
         :: gradient norm              0.000248534903 Eh/a0 ::
         :: HOMO-LUMO gap              3.974726031406 eV    ::
         :: SCC energy               -46.771714588350 Eh    ::
         :: -> dispersion             -0.035415296801 Eh    ::
         :: repulsion energy           0.659168761104 Eh    ::

    * Orbital Energies and Occupations

         #    Occupation            Energy/Eh            Energy/eV
      -------------------------------------------------------------
         1        2.0000           -0.8461084             -23.0238
       ...           ...                  ...                  ...
        31        2.0000           -0.6010956             -16.3566
        32        2.0000           -0.5963601             -16.2278
        33        2.0000           -0.5903117             -16.0632
        34        2.0000           -0.5863150             -15.9544
        35        2.0000           -0.5828666             -15.8606
        36        2.0000           -0.5785986             -15.7445
        37        2.0000           -0.5637561             -15.3406
        38        2.0000           -0.5601341             -15.2420
        39        2.0000           -0.5584600             -15.1965
        40        2.0000           -0.5527884             -15.0421
        41        2.0000           -0.5495933             -14.9552
        42        2.0000           -0.5416734             -14.7397
        43        2.0000           -0.5321900             -14.4816 (HOMO)
        44                         -0.3861215             -10.5069 (LUMO)
        45                         -0.1831549              -4.9839
        46                         -0.1555208              -4.2319
        47                         -0.1146581              -3.1200
        48                         -0.0709866              -1.9316
        49                         -0.0621541              -1.6913
        50                         -0.0533504              -1.4517
        51                         -0.0501695              -1.3652
        52                         -0.0396224              -1.0782
        53                         -0.0324817              -0.8839
        54                         -0.0253599              -0.6901
       ...                                ...                  ...
        85                          0.3579576               9.7405
      -------------------------------------------------------------
                  HL-Gap            0.1460685 Eh            3.9747 eV

     #   Z          covCN         q      C6AA      α(0)
     1   6 C        3.752    -0.112    22.706     6.795
     2   6 C        3.800    -0.056    21.581     6.614
     3   6 C        3.801    -0.074    21.905     6.664
     4   6 C        3.748    -0.022    21.033     6.541
     5   7 N        2.740    -0.022    21.668     6.914
     6   6 C        2.838     0.145    24.842     8.168
     7   6 C        3.809    -0.081    22.038     6.682
     8   6 C        3.802    -0.062    21.683     6.629
     9   6 C        3.802    -0.070    21.836     6.653
    10   6 C        3.802    -0.070    21.844     6.654
    11   6 C        3.748    -0.022    21.023     6.539
    12   7 N        2.744    -0.025    21.729     6.923
    13   6 C        3.757    -0.018    20.954     6.527
    14   6 C        3.808    -0.076    21.945     6.669
    15   6 C        3.762    -0.019    20.958     6.526
    16   1 H        0.925     0.034     2.533     2.489
    17   1 H        0.925     0.047     2.354     2.399
    18   1 H        0.925     0.050     2.316     2.380
    19   1 H        0.924     0.022     2.700     2.570
    20   1 H        0.924     0.051     2.310     2.377
    21   1 H        0.925     0.049     2.335     2.389
    22   1 H        0.924     0.069     2.096     2.264
    23   1 H        0.924     0.066     2.130     2.282
    24   1 H        0.925     0.079     1.992     2.207
    25   1 H        0.925     0.071     2.071     2.251
    26   1 H        0.924     0.083     1.948     2.183
    27   1 H        0.925     0.056     2.249     2.345
    28   1 H        0.925     0.063     2.165     2.301
    29   1 H        0.924     0.051     2.305     2.374
    30   1 H        0.925     0.061     2.182     2.310
    31   1 H        0.925     0.067     2.118     2.276
    32   1 H        0.924     0.052     2.295     2.369
    33   1 H        0.925     0.075     2.032     2.229
    34   1 H        0.924     0.074     2.046     2.237
    35   1 H        0.924     0.074     2.043     2.235
    36   1 H        0.924     0.080     1.978     2.200
    37   1 H        0.925     0.082     1.954     2.186
    38   1 H        0.924     0.067     2.123     2.279
    39   1 H        0.924     0.077     2.010     2.217
    40   1 H        0.924     0.083     1.953     2.185

Wiberg/Mayer (AO) data.
largest (>0.10) Wiberg bond orders for each atom

     #   Z sym  total        # sym  WBO       # sym  WBO       # sym  WBO
 ---------------------------------------------------------------------------
     1   6 C    3.994 --     2 C    1.021    18 H    0.986    17 H    0.986
                            16 H    0.983
     2   6 C    3.996 --     1 C    1.021     3 C    1.007    20 H    0.976
                            19 H    0.976
     3   6 C    3.987 --     2 C    1.007     4 C    0.992    21 H    0.974
                            22 H    0.968
     4   6 C    3.950 --     3 C    0.992     5 N    0.971    23 H    0.962
                            24 H    0.956
     5   7 N    3.598 --     6 C    1.394    15 C    0.972     4 C    0.971
                            12 N    0.148
     6   6 C    3.961 --     5 N    1.394    12 N    1.385     7 C    1.013
     7   6 C    3.983 --     6 C    1.013     8 C    0.975    25 H    0.959
                            26 H    0.947
     8   6 C    3.989 --     9 C    1.011     7 C    0.975    28 H    0.973
                            27 H    0.973
     9   6 C    3.993 --     8 C    1.011    10 C    1.009    29 H    0.974
                            30 H    0.973
    10   6 C    3.990 --     9 C    1.009    11 C    0.996    32 H    0.974
                            31 H    0.970
    11   6 C    3.952 --    10 C    0.996    12 N    0.971    33 H    0.968
                            34 H    0.954
    12   7 N    3.589 --     6 C    1.385    13 C    0.976    11 C    0.971
                             5 N    0.148
    13   6 C    3.963 --    14 C    1.008    12 N    0.976    36 H    0.962
                            35 H    0.960
    14   6 C    3.990 --    13 C    1.008    15 C    1.007    38 H    0.973
                            37 H    0.967
    15   6 C    3.962 --    14 C    1.007     5 N    0.972    40 H    0.963
                            39 H    0.959
    16   1 H    0.999 --     1 C    0.983
    17   1 H    0.998 --     1 C    0.986
    18   1 H    0.997 --     1 C    0.986
    19   1 H    1.000 --     2 C    0.976
    20   1 H    0.997 --     2 C    0.976
    21   1 H    0.998 --     3 C    0.974
    22   1 H    0.994 --     3 C    0.968
    23   1 H    0.995 --     4 C    0.962
    24   1 H    0.994 --     4 C    0.956
    25   1 H    0.995 --     7 C    0.959
    26   1 H    0.993 --     7 C    0.947
    27   1 H    0.997 --     8 C    0.973
    28   1 H    0.995 --     8 C    0.973
    29   1 H    0.997 --     9 C    0.974
    30   1 H    0.996 --     9 C    0.973
    31   1 H    0.995 --    10 C    0.970
    32   1 H    0.997 --    10 C    0.974
    33   1 H    0.994 --    11 C    0.968
    34   1 H    0.994 --    11 C    0.954
    35   1 H    0.994 --    13 C    0.960
    36   1 H    0.993 --    13 C    0.962
    37   1 H    0.993 --    14 C    0.967
    38   1 H    0.995 --    14 C    0.973
    39   1 H    0.994 --    15 C    0.959
    40   1 H    0.993 --    15 C    0.963
 ---------------------------------------------------------------------------

molecular dipole:
                 x           y           z       tot (Debye)
 q only:       -3.802       4.646       4.098
   full:       -3.861       4.614       4.220      18.679

           -------------------------------------------------
          | TOTAL ENERGY              -46.112545827247 Eh   |
          | GRADIENT NORM               0.000248534903 Eh/α |
          | HOMO-LUMO GAP               3.974726031406 eV   |
           -------------------------------------------------

 * finished run on 2024/12/20 at 06:54:19.458
