   * xtb version 6.7.1 (edcfbbe) compiled by 'conda@3ef47c1a292c' on 2024-11-25

   ID    Z sym.   atoms
    1    6 C      1-6, 8-10
    2   15 P      7
    3    1 H      11-32

          program call               : xtb C0711.xyz --opt --namespace C0711 --charge +1
          :  Hamiltonian                  GFN2-xTB          :
 * total energy  :   -32.6192303 Eh     change       -0.7690915E-10 Eh
 * total energy  :   -32.6230745 Eh     change       -0.3844233E-02 Eh
 * total energy  :   -32.6242979 Eh     change       -0.1223377E-02 Eh
 * total energy  :   -32.6243924 Eh     change       -0.9449340E-04 Eh
 * total energy  :   -32.6244598 Eh     change       -0.6747451E-04 Eh
 * total energy  :   -32.6244945 Eh     change       -0.3462187E-04 Eh
 * total energy  :   -32.6245387 Eh     change       -0.4419202E-04 Eh
 * total energy  :   -32.6245730 Eh     change       -0.3432931E-04 Eh
 * total energy  :   -32.6246018 Eh     change       -0.2875947E-04 Eh
 * total energy  :   -32.6246444 Eh     change       -0.4265947E-04 Eh
 * total energy  :   -32.6247561 Eh     change       -0.1812299E-04 Eh
 * total energy  :   -32.6247686 Eh     change       -0.1250512E-04 Eh
 * total energy  :   -32.6247766 Eh     change       -0.8023209E-05 Eh
 * total energy  :   -32.6247830 Eh     change       -0.6378383E-05 Eh
 * total energy  :   -32.6247895 Eh     change       -0.6524296E-05 Eh
 * total energy  :   -32.6247969 Eh     change       -0.7415947E-05 Eh
 * total energy  :   -32.6248044 Eh     change       -0.7485079E-05 Eh
 * total energy  :   -32.6248101 Eh     change       -0.5719556E-05 Eh
 * total energy  :   -32.6248112 Eh     change       -0.1070898E-05 Eh
   *** GEOMETRY OPTIMIZATION CONVERGED AFTER 22 ITERATIONS ***

 final structure:
================
32
 xtb: 6.7.1 (edcfbbe)
C            0.75456816976428        0.27114407594651       -0.14944520083372
C            0.73986958506155       -1.23238955547738       -0.39672302175626
C            1.17178628955842       -2.05075051609575        0.82235661090096
C            0.29826391132422       -1.86001196969153        2.06471892236288
C           -1.18075448597708       -2.18786676589767        1.87034920764987
C           -1.45607215365428       -3.62851354340765        1.43711603083459
P           -0.95156852063591       -4.91768131527101        2.62787054736241
C           -1.28088273669929       -4.41317449103116        4.33430190560271
C           -1.96168168984643       -6.37970068956216        2.27991060459998
C            0.77763403779361       -5.43248506663512        2.46275230183379
H           -0.00829102911529        0.56674805412784        0.56651942161654
H            0.56437864158614        0.80182321932903       -1.07832061677039
H            1.72450556119215        0.58523149075249        0.22814112023286
H           -0.25524262026400       -1.53874494180913       -0.72621773537615
H            1.43092185026811       -1.46015365421964       -1.21052880694168
H            1.20070337059705       -3.10768225858155        0.54307636090219
H            2.19107305825590       -1.76148498872263        1.08584892873327
H            0.70000684112308       -2.47467389610551        2.87714045369380
H            0.37190343549721       -0.82117924632230        2.38672007614590
H           -1.71463756827741       -1.97975179222854        2.80012227437362
H           -1.59678294353770       -1.52795867096902        1.10852856732113
H           -2.53297480022279       -3.76342053276109        1.29150916314028
H           -0.96275013302792       -3.84911866080706        0.48715357664695
H           -2.32678770526073       -4.12457103682807        4.43304884071669
H           -1.07842398569507       -5.25252807069470        4.99887324694338
H           -0.64832918742787       -3.57375066544830        4.61635352668280
H           -1.82602856105207       -6.68469379910877        1.24292776006180
H           -1.66297629327890       -7.19848312734527        2.93298575683330
H           -3.01354757068415       -6.15402663068321        2.44938808595378
H            0.95521561157377       -5.77927090020639        1.44536300604740
H            1.45886716331395       -4.61488853186533        2.68557419941745
H            0.96555445774736       -6.25302152237949        3.15507488507047

          :  Hamiltonian                  GFN2-xTB          :
         :: total energy             -32.624811215646 Eh    ::
         :: gradient norm              0.000147924845 Eh/a0 ::
         :: HOMO-LUMO gap              6.226861963772 eV    ::
         :: SCC energy               -33.112649200229 Eh    ::
         :: -> dispersion             -0.023997980126 Eh    ::
         :: repulsion energy           0.487837984583 Eh    ::

    * Orbital Energies and Occupations

         #    Occupation            Energy/Eh            Energy/eV
      -------------------------------------------------------------
         1        2.0000           -0.8595890             -23.3906
       ...           ...                  ...                  ...
        19        2.0000           -0.6258509             -17.0303
        20        2.0000           -0.6222506             -16.9323
        21        2.0000           -0.6190510             -16.8452
        22        2.0000           -0.6137932             -16.7022
        23        2.0000           -0.6068613             -16.5135
        24        2.0000           -0.5911216             -16.0852
        25        2.0000           -0.5844308             -15.9032
        26        2.0000           -0.5700967             -15.5131
        27        2.0000           -0.5610013             -15.2656
        28        2.0000           -0.5550902             -15.1048
        29        2.0000           -0.5340897             -14.5333
        30        2.0000           -0.5265808             -14.3290
        31        2.0000           -0.5213026             -14.1854 (HOMO)
        32                         -0.2924696              -7.9585 (LUMO)
        33                         -0.2781696              -7.5694
        34                         -0.2656471              -7.2286
        35                         -0.1830444              -4.9809
        36                         -0.0868662              -2.3638
        37                         -0.0658915              -1.7930
        38                         -0.0419518              -1.1416
        39                         -0.0365812              -0.9954
        40                         -0.0275613              -0.7500
        41                         -0.0224865              -0.6119
        42                         -0.0095946              -0.2611
       ...                                ...                  ...
        67                          0.7827823              21.3006
      -------------------------------------------------------------
                  HL-Gap            0.2288330 Eh            6.2269 eV

     #   Z          covCN         q      C6AA      α(0)
     1   6 C        3.752    -0.109    22.648     6.787
     2   6 C        3.799    -0.057    21.593     6.616
     3   6 C        3.800    -0.064    21.723     6.636
     4   6 C        3.800    -0.065    21.752     6.640
     5   6 C        3.849    -0.066    21.737     6.632
     6   6 C        3.750    -0.073    21.956     6.683
     7  15 P        3.779     0.191   152.015    22.148
     8   6 C        3.701    -0.135    23.271     6.898
     9   6 C        3.700    -0.142    23.411     6.919
    10   6 C        3.701    -0.136    23.281     6.900
    11   1 H        0.925     0.035     2.510     2.477
    12   1 H        0.925     0.046     2.364     2.404
    13   1 H        0.925     0.044     2.402     2.424
    14   1 H        0.924     0.028     2.611     2.527
    15   1 H        0.924     0.042     2.423     2.434
    16   1 H        0.924     0.022     2.710     2.574
    17   1 H        0.924     0.047     2.355     2.400
    18   1 H        0.924     0.027     2.635     2.538
    19   1 H        0.925     0.064     2.158     2.297
    20   1 H        0.924     0.052     2.297     2.370
    21   1 H        0.924     0.076     2.025     2.225
    22   1 H        0.928     0.092     1.862     2.134
    23   1 H        0.927     0.100     1.786     2.090
    24   1 H        0.927     0.110     1.700     2.039
    25   1 H        0.927     0.109     1.705     2.042
    26   1 H        0.926     0.112     1.680     2.027
    27   1 H        0.926     0.107     1.721     2.051
    28   1 H        0.927     0.107     1.720     2.051
    29   1 H        0.926     0.107     1.724     2.053
    30   1 H        0.927     0.108     1.713     2.047
    31   1 H        0.926     0.114     1.666     2.019
    32   1 H        0.927     0.108     1.713     2.046

Wiberg/Mayer (AO) data.
largest (>0.10) Wiberg bond orders for each atom

     #   Z sym  total        # sym  WBO       # sym  WBO       # sym  WBO
 ---------------------------------------------------------------------------
     1   6 C    3.995 --     2 C    1.021    13 H    0.987    11 H    0.986
                            12 H    0.986
     2   6 C    3.997 --     1 C    1.021     3 C    1.007    15 H    0.977
                            14 H    0.976
     3   6 C    3.996 --     4 C    1.007     2 C    1.007    17 H    0.975
                            16 H    0.972
     4   6 C    3.994 --     5 C    1.008     3 C    1.007    19 H    0.971
                            18 H    0.960
     5   6 C    3.986 --     4 C    1.008     6 C    0.988    20 H    0.970
                            21 H    0.964
     6   6 C    3.983 --     7 P    1.003     5 C    0.988    22 H    0.932
                            23 H    0.930
     7  15 P    4.644 --     9 C    1.058     8 C    1.054    10 C    1.049
                             6 C    1.003
     8   6 C    3.986 --     7 P    1.054    26 H    0.940    24 H    0.940
                            25 H    0.939
     9   6 C    3.987 --     7 P    1.058    29 H    0.943    28 H    0.942
                            27 H    0.942
    10   6 C    3.986 --     7 P    1.049    31 H    0.941    30 H    0.941
                            32 H    0.939
    11   1 H    0.999 --     1 C    0.986
    12   1 H    0.998 --     1 C    0.986
    13   1 H    0.998 --     1 C    0.987
    14   1 H    0.999 --     2 C    0.976
    15   1 H    0.998 --     2 C    0.977
    16   1 H    1.000 --     3 C    0.972
    17   1 H    0.998 --     3 C    0.975
    18   1 H    0.999 --     4 C    0.960
    19   1 H    0.996 --     4 C    0.971
    20   1 H    0.997 --     5 C    0.970
    21   1 H    0.994 --     5 C    0.964
    22   1 H    0.992 --     6 C    0.932
    23   1 H    0.990 --     6 C    0.930
    24   1 H    0.988 --     8 C    0.940
    25   1 H    0.988 --     8 C    0.939
    26   1 H    0.987 --     8 C    0.940
    27   1 H    0.988 --     9 C    0.942
    28   1 H    0.988 --     9 C    0.942
    29   1 H    0.989 --     9 C    0.943
    30   1 H    0.988 --    10 C    0.941
    31   1 H    0.987 --    10 C    0.941
    32   1 H    0.988 --    10 C    0.939
 ---------------------------------------------------------------------------

molecular dipole:
                 x           y           z       tot (Debye)
 q only:       -1.606      -8.755       4.795
   full:       -1.660      -8.878       4.810      26.010

           -------------------------------------------------
          | TOTAL ENERGY              -32.624811215646 Eh   |
          | GRADIENT NORM               0.000147924845 Eh/α |
          | HOMO-LUMO GAP               6.226861963772 eV   |
           -------------------------------------------------

 * finished run on 2024/12/20 at 06:54:09.803
