   * xtb version 6.7.1 (edcfbbe) compiled by 'conda@3ef47c1a292c' on 2024-11-25

   ID    Z sym.   atoms
    1    6 C      1-6, 8, 10, 11, 13, 14
    2   16 S      7
    3    7 N      9, 12
    4    1 H      15-39

          program call               : xtb C0710.xyz --opt --namespace C0710 --charge +1
          :  Hamiltonian                  GFN2-xTB          :
 * total energy  :   -45.0091145 Eh     change       -0.6354952E-09 Eh
 * total energy  :   -45.0134482 Eh     change       -0.4333605E-02 Eh
 * total energy  :   -45.0147046 Eh     change       -0.1256422E-02 Eh
 * total energy  :   -45.0152070 Eh     change       -0.5024592E-03 Eh
 * total energy  :   -45.0158351 Eh     change       -0.6280640E-03 Eh
 * total energy  :   -45.0163899 Eh     change       -0.5548227E-03 Eh
 * total energy  :   -45.0169984 Eh     change       -0.6085236E-03 Eh
 * total energy  :   -45.0175394 Eh     change       -0.5409469E-03 Eh
 * total energy  :   -45.0179531 Eh     change       -0.4137346E-03 Eh
 * total energy  :   -45.0182806 Eh     change       -0.3274849E-03 Eh
 * total energy  :   -45.0213042 Eh     change       -0.9690629E-05 Eh
 * total energy  :   -45.0213165 Eh     change       -0.1234677E-04 Eh
 * total energy  :   -45.0213148 Eh     change        0.1728386E-05 Eh
 * total energy  :   -45.0213285 Eh     change       -0.1376275E-04 Eh
 * total energy  :   -45.0213340 Eh     change       -0.5442859E-05 Eh
 * total energy  :   -45.0213405 Eh     change       -0.6511950E-05 Eh
 * total energy  :   -45.0213451 Eh     change       -0.4630476E-05 Eh
 * total energy  :   -45.0213537 Eh     change       -0.8625087E-05 Eh
 * total energy  :   -45.0213566 Eh     change       -0.2819163E-05 Eh
   *** GEOMETRY OPTIMIZATION CONVERGED AFTER 95 ITERATIONS ***

 final structure:
================
39
 xtb: 6.7.1 (edcfbbe)
C            0.62841245768075        0.26665155704553        0.23210161547296
C           -0.17012703061773       -0.88923985195707        0.81988732719639
C            0.08760672371360       -1.23490952362972        2.28890203355496
C           -0.63027978659418       -0.35814638637206        3.32088583777287
C           -2.15872613762240       -0.39901345158845        3.24282023406892
C           -2.74146706446810       -1.79123511240195        3.44948608215848
S            0.09595235034446        1.94332607997527        0.75680875757568
C            1.18493841549242        2.43630761635851        2.02129390983995
N            2.08942374494153        1.61056885490729        2.53020599926236
C            3.02793520332025        1.92312581326928        3.59794732518690
C            2.40181163854593        1.75452612518271        4.97842774263805
N            1.07263912555099        3.69058864652298        2.41869682467598
C            0.15333663228996        4.66017389650804        1.84694199677655
C            0.37142703512392        6.01714991727812        2.48979498950945
H            0.45430772067087        0.30425828772361       -0.84474661362010
H            1.70164157032068        0.17197287396758        0.39235997723657
H           -1.23296617781849       -0.70105189436301        0.66977594290274
H            0.08854724261686       -1.76266208719903        0.21592555622195
H           -0.24073992596888       -2.26241164976488        2.44574529882780
H            1.16605094767321       -1.22909679736868        2.48488613539752
H           -0.33050845358406       -0.70557569115716        4.31246311720103
H           -0.31655722279147        0.68423261026111        3.23377764822024
H           -2.54556185606201        0.26272342093427        4.02066524022379
H           -2.49819067352220        0.00195987348551        2.28578358978702
H           -2.35884331816203       -2.23306164880040        4.36641868032865
H           -3.82351907461581       -1.73150488056307        3.52754620739804
H           -2.50319108359284       -2.45112239368931        2.61951427948899
H            1.99030543600962        0.62685188116953        2.31548192220783
H            3.87061365674528        1.23845098599359        3.48847285994772
H            3.40753573593266        2.93809109652860        3.45918432436723
H            2.07115636470237        0.72954968167423        5.12382119959357
H            3.13865439304197        1.98528773777108        5.74158822483233
H            1.54721487165489        2.41323586816652        5.11269998788749
H            1.66067630827941        4.02998837499561        3.16836934832020
H            0.31957709822936        4.71543561104006        0.76672525004040
H           -0.87384386253325        4.31920351430847        2.01162551046531
H            1.38404818839551        6.37114123946500        2.31474583187021
H           -0.31686924338984        6.73779653305729        2.05949455459533
H            0.18798805008884        5.97342327129238        3.56036525057869

          :  Hamiltonian                  GFN2-xTB          :
         :: total energy             -45.021356569017 Eh    ::
         :: gradient norm              0.000568717673 Eh/a0 ::
         :: HOMO-LUMO gap              3.344390887153 eV    ::
         :: SCC energy               -45.641449890597 Eh    ::
         :: -> dispersion             -0.032018984097 Eh    ::
         :: repulsion energy           0.620093321580 Eh    ::

    * Orbital Energies and Occupations

         #    Occupation            Energy/Eh            Energy/eV
      -------------------------------------------------------------
         1        2.0000           -0.8859694             -24.1085
       ...           ...                  ...                  ...
        30        2.0000           -0.5906492             -16.0724
        31        2.0000           -0.5892273             -16.0337
        32        2.0000           -0.5877233             -15.9928
        33        2.0000           -0.5857027             -15.9378
        34        2.0000           -0.5821632             -15.8415
        35        2.0000           -0.5664035             -15.4126
        36        2.0000           -0.5609407             -15.2640
        37        2.0000           -0.5554672             -15.1150
        38        2.0000           -0.5538327             -15.0706
        39        2.0000           -0.5402602             -14.7012
        40        2.0000           -0.5281096             -14.3706
        41        2.0000           -0.5264014             -14.3241
        42        2.0000           -0.5210088             -14.1774 (HOMO)
        43                         -0.3981047             -10.8330 (LUMO)
        44                         -0.3491988              -9.5022
        45                         -0.3109057              -8.4602
        46                         -0.1809302              -4.9234
        47                         -0.1715241              -4.6674
        48                         -0.1579082              -4.2969
        49                         -0.1164211              -3.1680
        50                         -0.1134303              -3.0866
        51                         -0.0675353              -1.8377
        52                         -0.0522599              -1.4221
        53                         -0.0468944              -1.2761
       ...                                ...                  ...
        86                          0.3646868               9.9236
      -------------------------------------------------------------
                  HL-Gap            0.1229041 Eh            3.3444 eV

     #   Z          covCN         q      C6AA      α(0)
     1   6 C        3.792    -0.028    21.086     6.539
     2   6 C        3.813    -0.070    21.821     6.649
     3   6 C        3.799    -0.064    21.722     6.636
     4   6 C        3.800    -0.060    21.662     6.627
     5   6 C        3.799    -0.055    21.565     6.612
     6   6 C        3.751    -0.109    22.645     6.786
     7  16 S        2.078    -0.021   141.913    20.050
     8   6 C        2.807     0.168    24.374     8.088
     9   7 N        2.724    -0.138    23.993     7.275
    10   6 C        3.736    -0.008    20.805     6.509
    11   6 C        3.752    -0.127    22.989     6.838
    12   7 N        2.770    -0.115    23.508     7.201
    13   6 C        3.744    -0.010    20.833     6.511
    14   6 C        3.754    -0.127    23.004     6.839
    15   1 H        0.925     0.086     1.916     2.165
    16   1 H        0.925     0.064     2.158     2.297
    17   1 H        0.925     0.071     2.076     2.253
    18   1 H        0.924     0.065     2.146     2.291
    19   1 H        0.925     0.064     2.158     2.297
    20   1 H        0.924     0.020     2.737     2.587
    21   1 H        0.924     0.040     2.455     2.450
    22   1 H        0.924     0.011     2.868     2.648
    23   1 H        0.924     0.037     2.489     2.467
    24   1 H        0.924     0.031     2.566     2.505
    25   1 H        0.925     0.042     2.425     2.435
    26   1 H        0.925     0.046     2.366     2.405
    27   1 H        0.925     0.038     2.469     2.457
    28   1 H        0.860     0.218     1.020     1.582
    29   1 H        0.924     0.082     1.954     2.186
    30   1 H        0.924     0.065     2.137     2.286
    31   1 H        0.925     0.066     2.135     2.285
    32   1 H        0.925     0.077     2.008     2.216
    33   1 H        0.925     0.053     2.279     2.361
    34   1 H        0.860     0.216     1.027     1.587
    35   1 H        0.924     0.081     1.966     2.193
    36   1 H        0.924     0.081     1.967     2.193
    37   1 H        0.925     0.064     2.152     2.294
    38   1 H        0.925     0.082     1.959     2.189
    39   1 H        0.925     0.064     2.157     2.297

Wiberg/Mayer (AO) data.
largest (>0.10) Wiberg bond orders for each atom

     #   Z sym  total        # sym  WBO       # sym  WBO       # sym  WBO
 ---------------------------------------------------------------------------
     1   6 C    3.953 --     2 C    1.012     7 S    0.965    16 H    0.960
                            15 H    0.960
     2   6 C    3.986 --     1 C    1.012     3 C    1.007    17 H    0.966
                            18 H    0.961
     3   6 C    3.993 --     2 C    1.007     4 C    1.006    19 H    0.970
                            20 H    0.966
     4   6 C    3.997 --     5 C    1.007     3 C    1.006    21 H    0.976
                            22 H    0.974
     5   6 C    3.997 --     6 C    1.021     4 C    1.007    23 H    0.977
                            24 H    0.974
     6   6 C    3.995 --     5 C    1.021    25 H    0.987    27 H    0.986
                            26 H    0.986
     7  16 S    2.429 --     8 C    1.156     1 C    0.965
     8   6 C    3.973 --    12 N    1.377     9 N    1.344     7 S    1.156
     9   7 N    3.491 --     8 C    1.344    10 C    0.969    28 H    0.900
                            12 N    0.126
    10   6 C    3.950 --    11 C    1.006     9 N    0.969    29 H    0.968
                            30 H    0.964
    11   6 C    3.986 --    10 C    1.006    33 H    0.985    31 H    0.984
                            32 H    0.977
    12   7 N    3.526 --     8 C    1.377    13 C    0.972    34 H    0.907
                             9 N    0.126
    13   6 C    3.946 --    14 C    1.021    12 N    0.972    35 H    0.957
                            36 H    0.957
    14   6 C    3.983 --    13 C    1.021    37 H    0.983    39 H    0.983
                            38 H    0.977
    15   1 H    0.992 --     1 C    0.960
    16   1 H    0.996 --     1 C    0.960
    17   1 H    0.995 --     2 C    0.966
    18   1 H    0.995 --     2 C    0.961
    19   1 H    0.996 --     3 C    0.970
    20   1 H    1.000 --     3 C    0.966
    21   1 H    0.998 --     4 C    0.976
    22   1 H    1.000 --     4 C    0.974
    23   1 H    0.999 --     5 C    0.977
    24   1 H    0.999 --     5 C    0.974
    25   1 H    0.998 --     6 C    0.987
    26   1 H    0.998 --     6 C    0.986
    27   1 H    0.999 --     6 C    0.986
    28   1 H    0.952 --     9 N    0.900
    29   1 H    0.993 --    10 C    0.968
    30   1 H    0.996 --    10 C    0.964
    31   1 H    0.996 --    11 C    0.984
    32   1 H    0.993 --    11 C    0.977
    33   1 H    0.997 --    11 C    0.985
    34   1 H    0.953 --    12 N    0.907
    35   1 H    0.993 --    13 C    0.957
    36   1 H    0.993 --    13 C    0.957
    37   1 H    0.996 --    14 C    0.983
    38   1 H    0.993 --    14 C    0.977
    39   1 H    0.996 --    14 C    0.983
 ---------------------------------------------------------------------------

molecular dipole:
                 x           y           z       tot (Debye)
 q only:        2.244       4.107       4.446
   full:        2.505       3.831       4.427      16.185

           -------------------------------------------------
          | TOTAL ENERGY              -45.021356569017 Eh   |
          | GRADIENT NORM               0.000568717673 Eh/α |
          | HOMO-LUMO GAP               3.344390887153 eV   |
           -------------------------------------------------

 * finished run on 2024/12/20 at 06:54:08.998
