   * xtb version 6.7.1 (edcfbbe) compiled by 'conda@3ef47c1a292c' on 2024-11-25

   ID    Z sym.   atoms
    1    6 C      1, 2, 4-7, 9, 10
    2    7 N      3, 8
    3    1 H      11-29

          program call               : xtb C0713.xyz --opt --namespace C0713 --charge +1
          :  Hamiltonian                  GFN2-xTB          :
 * total energy  :   -32.2629187 Eh     change       -0.1842011E-09 Eh
 * total energy  :   -32.2702433 Eh     change       -0.7324584E-02 Eh
 * total energy  :   -32.2719230 Eh     change       -0.1679758E-02 Eh
 * total energy  :   -32.2719817 Eh     change       -0.5865997E-04 Eh
 * total energy  :   -32.2719963 Eh     change       -0.1462790E-04 Eh
 * total energy  :   -32.2719996 Eh     change       -0.3258787E-05 Eh
   *** GEOMETRY OPTIMIZATION CONVERGED AFTER 6 ITERATIONS ***

 final structure:
================
29
 xtb: 6.7.1 (edcfbbe)
C            0.96460433233944       -0.17343348866957        0.18291158518425
C            0.22905011997838        0.36164530402295        1.40163472265441
N            0.85184170293223        1.54765645133857        2.07294999229574
C            2.26310759258493        1.25596963351283        2.47118414544357
C            2.46409763093672        0.04137781037524        3.36493117988164
C            0.82992206782816        2.71504489686671        1.14277886943642
C            1.19401699729325        4.04576480539699        1.83182155954987
N            0.38757980982830        4.32344315481243        2.99081761449228
C            0.39793016643761        3.22002890386039        3.91537919965680
C            0.00319788273423        1.88715170620456        3.25321854926620
H            1.04962265547814        0.56688682672757       -0.60718799282598
H            0.38454130487972       -1.00363413290659       -0.21267895211308
H            1.95227714389559       -0.55458275281241        0.42377449458016
H           -0.78089239848413        0.65159542786885        1.10264010030653
H            0.13915735274273       -0.42747090790966        2.14954046899700
H            2.83738187206633        1.12843208564464        1.55258899171921
H            2.65023745862688        2.13416274159011        2.98603119999203
H            2.16495661128638       -0.88698105305442        2.88776080772067
H            3.52729598735685       -0.03356265691003        3.58057632784950
H            1.94953816325914        0.13509594996484        4.31695542291008
H           -0.18234268564566        2.79365548127230        0.73809263278789
H            1.52115045756369        2.53050174065893        0.32105043726791
H            1.06646452939358        4.84847007462750        1.10454618880448
H            2.24391286745130        4.04819086329212        2.13752748660681
H           -0.55500391384300        4.59846448820745        2.74054464589610
H            1.39436309246601        3.15487690484341        4.36068715210897
H           -0.30684178559466        3.42083779140198        4.72310759847446
H            0.05507894470401        1.07370172442200        3.97578709074288
H           -1.02900596049612        1.96648022535026        2.90202848031326

          :  Hamiltonian                  GFN2-xTB          :
         :: total energy             -32.271999568034 Eh    ::
         :: gradient norm              0.000586536448 Eh/a0 ::
         :: HOMO-LUMO gap              7.270953578309 eV    ::
         :: SCC energy               -32.705114964591 Eh    ::
         :: -> dispersion             -0.022313147065 Eh    ::
         :: repulsion energy           0.433115396557 Eh    ::

    * Orbital Energies and Occupations

         #    Occupation            Energy/Eh            Energy/eV
      -------------------------------------------------------------
         1        2.0000           -0.8611119             -23.4320
       ...           ...                  ...                  ...
        18        2.0000           -0.6573286             -17.8868
        19        2.0000           -0.6507545             -17.7079
        20        2.0000           -0.6443154             -17.5327
        21        2.0000           -0.6348205             -17.2743
        22        2.0000           -0.6326203             -17.2145
        23        2.0000           -0.6193544             -16.8535
        24        2.0000           -0.6162385             -16.7687
        25        2.0000           -0.6091958             -16.5771
        26        2.0000           -0.6057095             -16.4822
        27        2.0000           -0.6018693             -16.3777
        28        2.0000           -0.5986186             -16.2892
        29        2.0000           -0.5869596             -15.9720
        30        2.0000           -0.5063633             -13.7788 (HOMO)
        31                         -0.2391607              -6.5079 (LUMO)
        32                         -0.1735919              -4.7237
        33                         -0.1652733              -4.4973
        34                         -0.1504815              -4.0948
        35                         -0.0969529              -2.6382
        36                         -0.0896245              -2.4388
        37                         -0.0724960              -1.9727
        38                         -0.0577302              -1.5709
        39                         -0.0488606              -1.3296
        40                         -0.0350947              -0.9550
        41                         -0.0288714              -0.7856
       ...                                ...                  ...
        59                          0.1589408               4.3250
      -------------------------------------------------------------
                  HL-Gap            0.2672026 Eh            7.2710 eV

     #   Z          covCN         q      C6AA      α(0)
     1   6 C        3.751    -0.128    23.028     6.844
     2   6 C        3.758    -0.031    21.170     6.560
     3   7 N        3.619     0.107    19.395     6.541
     4   6 C        3.751    -0.032    21.209     6.568
     5   6 C        3.751    -0.128    23.011     6.841
     6   6 C        3.761    -0.040    21.343     6.586
     7   6 C        3.752    -0.007    20.759     6.497
     8   7 N        2.679    -0.236    26.164     7.597
     9   6 C        3.753    -0.006    20.744     6.495
    10   6 C        3.763    -0.040    21.328     6.583
    11   1 H        0.925     0.064     2.151     2.294
    12   1 H        0.925     0.085     1.924     2.169
    13   1 H        0.925     0.069     2.096     2.264
    14   1 H        0.924     0.077     2.013     2.219
    15   1 H        0.924     0.087     1.913     2.163
    16   1 H        0.924     0.086     1.923     2.169
    17   1 H        0.925     0.090     1.883     2.146
    18   1 H        0.925     0.067     2.117     2.275
    19   1 H        0.925     0.084     1.936     2.176
    20   1 H        0.925     0.063     2.162     2.299
    21   1 H        0.924     0.078     1.998     2.210
    22   1 H        0.925     0.082     1.957     2.187
    23   1 H        0.924     0.081     1.971     2.196
    24   1 H        0.924     0.065     2.144     2.290
    25   1 H        0.860     0.157     1.354     1.822
    26   1 H        0.924     0.067     2.123     2.279
    27   1 H        0.924     0.080     1.975     2.198
    28   1 H        0.925     0.083     1.950     2.183
    29   1 H        0.924     0.076     2.022     2.224

Wiberg/Mayer (AO) data.
largest (>0.10) Wiberg bond orders for each atom

     #   Z sym  total        # sym  WBO       # sym  WBO       # sym  WBO
 ---------------------------------------------------------------------------
     1   6 C    3.981 --     2 C    1.023    11 H    0.980    13 H    0.979
                            12 H    0.972
     2   6 C    3.937 --     1 C    1.023    14 H    0.968    15 H    0.965
                             3 N    0.927
     3   7 N    3.800 --     6 C    0.936    10 C    0.936     4 C    0.929
                             2 C    0.927
     4   6 C    3.934 --     5 C    1.023    16 H    0.964    17 H    0.959
                             3 N    0.929
     5   6 C    3.983 --     4 C    1.023    18 H    0.980    20 H    0.979
                            19 H    0.973
     6   6 C    3.936 --     7 C    0.984    21 H    0.968    22 H    0.966
                             3 N    0.936
     7   6 C    3.981 --     8 N    1.032     6 C    0.984    23 H    0.965
                            24 H    0.964
     8   7 N    3.105 --     7 C    1.032     9 C    1.031    25 H    0.951
     9   6 C    3.980 --     8 N    1.031    10 C    0.985    27 H    0.965
                            26 H    0.963
    10   6 C    3.936 --     9 C    0.985    29 H    0.968    28 H    0.964
                             3 N    0.936
    11   1 H    0.996 --     1 C    0.980
    12   1 H    0.992 --     1 C    0.972
    13   1 H    0.995 --     1 C    0.979
    14   1 H    0.994 --     2 C    0.968
    15   1 H    0.992 --     2 C    0.965
    16   1 H    0.993 --     4 C    0.964
    17   1 H    0.992 --     4 C    0.959
    18   1 H    0.995 --     5 C    0.980
    19   1 H    0.993 --     5 C    0.973
    20   1 H    0.996 --     5 C    0.979
    21   1 H    0.994 --     6 C    0.968
    22   1 H    0.993 --     6 C    0.966
    23   1 H    0.993 --     7 C    0.965
    24   1 H    0.996 --     7 C    0.964
    25   1 H    0.975 --     8 N    0.951
    26   1 H    0.996 --     9 C    0.963
    27   1 H    0.993 --     9 C    0.965
    28   1 H    0.993 --    10 C    0.964
    29   1 H    0.994 --    10 C    0.968
 ---------------------------------------------------------------------------

molecular dipole:
                 x           y           z       tot (Debye)
 q only:        1.739       2.959       3.976
   full:        1.489       2.698       3.779      12.394

           -------------------------------------------------
          | TOTAL ENERGY              -32.271999568034 Eh   |
          | GRADIENT NORM               0.000586536448 Eh/α |
          | HOMO-LUMO GAP               7.270953578309 eV   |
           -------------------------------------------------

 * finished run on 2024/12/20 at 06:54:11.706
