   * xtb version 6.7.1 (edcfbbe) compiled by 'conda@3ef47c1a292c' on 2024-11-25

   ID    Z sym.   atoms
    1    6 C      1, 3-5, 7-13
    2    7 N      2, 6
    3    1 H      14-28

          program call               : xtb C0717.xyz --opt --namespace C0717 --charge +1
          :  Hamiltonian                  GFN2-xTB          :
 * total energy  :   -36.5792005 Eh     change       -0.8254872E-09 Eh
 * total energy  :   -36.6112492 Eh     change       -0.3204864E-01 Eh
 * total energy  :   -36.6131762 Eh     change       -0.1927007E-02 Eh
 * total energy  :   -36.6137163 Eh     change       -0.5401070E-03 Eh
 * total energy  :   -36.6140181 Eh     change       -0.3018240E-03 Eh
 * total energy  :   -36.6142464 Eh     change       -0.2283142E-03 Eh
 * total energy  :   -36.6144488 Eh     change       -0.2024062E-03 Eh
 * total energy  :   -36.6146365 Eh     change       -0.1876667E-03 Eh
 * total energy  :   -36.6147850 Eh     change       -0.1485086E-03 Eh
 * total energy  :   -36.6149023 Eh     change       -0.1172875E-03 Eh
 * total energy  :   -36.6155572 Eh     change       -0.1893113E-04 Eh
 * total energy  :   -36.6155811 Eh     change       -0.2392565E-04 Eh
 * total energy  :   -36.6156100 Eh     change       -0.2885916E-04 Eh
 * total energy  :   -36.6156412 Eh     change       -0.3123360E-04 Eh
 * total energy  :   -36.6156639 Eh     change       -0.2271469E-04 Eh
 * total energy  :   -36.6156373 Eh     change        0.2658742E-04 Eh
 * total energy  :   -36.6156794 Eh     change       -0.4209826E-04 Eh
 * total energy  :   -36.6156856 Eh     change       -0.6230557E-05 Eh
 * total energy  :   -36.6156901 Eh     change       -0.4497121E-05 Eh
   *** GEOMETRY OPTIMIZATION CONVERGED AFTER 37 ITERATIONS ***

 final structure:
================
28
 xtb: 6.7.1 (edcfbbe)
C            0.93809418006388       -0.17020372773203        0.23422092899512
N           -0.14951164873887       -0.38758866528247        0.50761282584592
C            2.33963366560918        0.00950982690953       -0.05582730173402
C            3.19101800028798       -0.07740368402266        1.22059505005449
C            2.80351372252554       -1.25072920598021        2.13190572160601
N            2.87582296705311       -2.53191114441556        1.44579006060778
C            4.07558977964904       -3.06127450357355        1.16295824677522
C            4.19154596632087       -4.25723310200699        0.49803626512947
C            3.04593578329581       -4.95878375962437        0.10490481800101
C            1.81337400899963       -4.37536535537334        0.41215662786778
C            1.75839554398592       -3.17312748845326        1.07818426827098
C            3.13623618676612       -6.23420043404751       -0.65080957601404
C            3.13251054830802       -5.93929584021407       -2.15896285611340
H            2.63455896823229       -0.75630606769446       -0.78093718918227
H            2.48012478690526        0.98516839494404       -0.52630427446648
H            4.24221050196017       -0.14473634279060        0.93579618760989
H            3.06155719184912        0.83414859094765        1.80552907806339
H            3.47757275812383       -1.27346097965624        2.99191595267466
H            1.78343893730215       -1.10914095552393        2.49403403806872
H            4.94529020127386       -2.51095548739633        1.49057449138631
H            5.17225305607683       -4.65628265379680        0.29125060234779
H            0.89303484379351       -4.86577029800322        0.13648719859958
H            0.81360490680302       -2.70816039239380        1.32043599246033
H            4.05599744764139       -6.76010242521658       -0.39420019160080
H            2.28434882638552       -6.87194912918670       -0.41366343388636
H            3.97836095278372       -5.31340089404591       -2.43253529879642
H            3.20339081207392       -6.87344682032109       -2.70734915074978
H            2.21474710466988       -5.43586745604941       -2.45185908182080

          :  Hamiltonian                  GFN2-xTB          :
         :: total energy             -36.615690137181 Eh    ::
         :: gradient norm              0.000419948779 Eh/a0 ::
         :: HOMO-LUMO gap              2.532729417975 eV    ::
         :: SCC energy               -37.257166812630 Eh    ::
         :: -> dispersion             -0.023055236804 Eh    ::
         :: repulsion energy           0.641476675450 Eh    ::

    * Orbital Energies and Occupations

         #    Occupation            Energy/Eh            Energy/eV
      -------------------------------------------------------------
         1        2.0000           -0.8771439             -23.8683
       ...           ...                  ...                  ...
        22        2.0000           -0.6357317             -17.2991
        23        2.0000           -0.6326600             -17.2156
        24        2.0000           -0.6260928             -17.0369
        25        2.0000           -0.6174778             -16.8024
        26        2.0000           -0.6164432             -16.7743
        27        2.0000           -0.6134810             -16.6937
        28        2.0000           -0.6078480             -16.5404
        29        2.0000           -0.5926448             -16.1267
        30        2.0000           -0.5878322             -15.9957
        31        2.0000           -0.5823911             -15.8477
        32        2.0000           -0.5783942             -15.7389
        33        2.0000           -0.5715543             -15.5528
        34        2.0000           -0.5456235             -14.8472 (HOMO)
        35                         -0.4525474             -12.3144 (LUMO)
        36                         -0.4228442             -11.5062
        37                         -0.3320207              -9.0347
        38                         -0.3262904              -8.8788
        39                         -0.3050717              -8.3014
        40                         -0.1768765              -4.8131
        41                         -0.0871687              -2.3720
        42                         -0.0738370              -2.0092
        43                         -0.0553529              -1.5062
        44                         -0.0411154              -1.1188
        45                         -0.0334080              -0.9091
       ...                                ...                  ...
        67                          1.0214491              27.7950
      -------------------------------------------------------------
                  HL-Gap            0.0930761 Eh            2.5327 eV

     #   Z          covCN         q      C6AA      α(0)
     1   6 C        1.897     0.111    28.375     8.603
     2   7 N        0.911    -0.218    25.748     7.339
     3   6 C        3.803    -0.061    21.676     6.628
     4   6 C        3.806    -0.063    21.699     6.631
     5   6 C        3.756    -0.034    21.233     6.570
     6   7 N        2.749     0.095    19.605     6.576
     7   6 C        2.889     0.029    27.355     8.575
     8   6 C        2.920    -0.026    28.641     8.776
     9   6 C        2.975     0.068    26.465     8.438
    10   6 C        2.920    -0.024    28.602     8.770
    11   6 C        2.886     0.029    27.341     8.572
    12   6 C        3.807    -0.070    21.828     6.651
    13   6 C        3.755    -0.107    22.610     6.780
    14   1 H        0.924     0.067     2.117     2.275
    15   1 H        0.924     0.099     1.794     2.095
    16   1 H        0.924     0.065     2.145     2.291
    17   1 H        0.924     0.085     1.925     2.170
    18   1 H        0.924     0.094     1.844     2.123
    19   1 H        0.924     0.097     1.815     2.107
    20   1 H        0.926     0.102     1.765     2.077
    21   1 H        0.926     0.101     1.775     2.084
    22   1 H        0.926     0.105     1.743     2.064
    23   1 H        0.926     0.114     1.661     2.016
    24   1 H        0.925     0.077     2.008     2.216
    25   1 H        0.924     0.079     1.987     2.205
    26   1 H        0.925     0.053     2.284     2.364
    27   1 H        0.925     0.077     2.008     2.216
    28   1 H        0.925     0.055     2.263     2.353

Wiberg/Mayer (AO) data.
largest (>0.10) Wiberg bond orders for each atom

     #   Z sym  total        # sym  WBO       # sym  WBO       # sym  WBO
 ---------------------------------------------------------------------------
     1   6 C    3.948 --     2 N    2.857     3 C    1.051
     2   7 N    3.015 --     1 C    2.857
     3   6 C    3.994 --     1 C    1.051     4 C    0.983    14 H    0.946
                            15 H    0.940
     4   6 C    3.985 --     5 C    0.988     3 C    0.983    16 H    0.973
                            17 H    0.968
     5   6 C    3.939 --     4 C    0.988     6 N    0.965    19 H    0.963
                            18 H    0.959
     6   7 N    3.751 --    11 C    1.314     7 C    1.304     5 C    0.965
     7   6 C    3.959 --     8 C    1.499     6 N    1.304    20 H    0.955
     8   6 C    3.983 --     7 C    1.499     9 C    1.358    21 H    0.959
     9   6 C    3.965 --    10 C    1.369     8 C    1.358    12 C    1.043
    10   6 C    3.982 --    11 C    1.485     9 C    1.369    22 H    0.958
    11   6 C    3.955 --    10 C    1.485     6 N    1.314    23 H    0.950
    12   6 C    3.986 --     9 C    1.043    13 C    0.968    24 H    0.964
                            25 H    0.962
    13   6 C    3.984 --    26 H    0.987    28 H    0.987    27 H    0.977
                            12 C    0.968
    14   1 H    0.995 --     3 C    0.946
    15   1 H    0.990 --     3 C    0.940
    16   1 H    0.996 --     4 C    0.973
    17   1 H    0.992 --     4 C    0.968
    18   1 H    0.991 --     5 C    0.959
    19   1 H    0.990 --     5 C    0.963
    20   1 H    0.989 --     7 C    0.955
    21   1 H    0.989 --     8 C    0.959
    22   1 H    0.989 --    10 C    0.958
    23   1 H    0.987 --    11 C    0.950
    24   1 H    0.994 --    12 C    0.964
    25   1 H    0.993 --    12 C    0.962
    26   1 H    0.997 --    13 C    0.987
    27   1 H    0.992 --    13 C    0.977
    28   1 H    0.997 --    13 C    0.987
 ---------------------------------------------------------------------------

molecular dipole:
                 x           y           z       tot (Debye)
 q only:        6.399      -6.049       1.281
   full:        6.837      -5.884       1.249      23.147

           -------------------------------------------------
          | TOTAL ENERGY              -36.615690137181 Eh   |
          | GRADIENT NORM               0.000419948779 Eh/α |
          | HOMO-LUMO GAP               2.532729417975 eV   |
           -------------------------------------------------

 * finished run on 2024/12/20 at 06:54:16.031
