   * xtb version 6.7.1 (edcfbbe) compiled by 'conda@3ef47c1a292c' on 2024-11-25

   ID    Z sym.   atoms
    1    6 C      1, 2, 4, 6, 8-13, 15-18
    2    8 O      3, 5
    3    7 N      7, 14
    4    1 H      19-37

          program call               : xtb C0714.xyz --opt --namespace C0714 --charge +1
          :  Hamiltonian                  GFN2-xTB          :
 * total energy  :   -53.3128082 Eh     change       -0.7797780E-09 Eh
 * total energy  :   -53.3207714 Eh     change       -0.7963194E-02 Eh
 * total energy  :   -53.3222700 Eh     change       -0.1498662E-02 Eh
 * total energy  :   -53.3225735 Eh     change       -0.3034850E-03 Eh
 * total energy  :   -53.3228641 Eh     change       -0.2906098E-03 Eh
 * total energy  :   -53.3231475 Eh     change       -0.2833405E-03 Eh
 * total energy  :   -53.3235827 Eh     change       -0.4352277E-03 Eh
 * total energy  :   -53.3242003 Eh     change       -0.6176055E-03 Eh
 * total energy  :   -53.3248566 Eh     change       -0.6563373E-03 Eh
 * total energy  :   -53.3254753 Eh     change       -0.6186140E-03 Eh
 * total energy  :   -53.3295096 Eh     change       -0.3418764E-04 Eh
 * total energy  :   -53.3295421 Eh     change       -0.3249222E-04 Eh
 * total energy  :   -53.3295695 Eh     change       -0.2732394E-04 Eh
 * total energy  :   -53.3296008 Eh     change       -0.3138234E-04 Eh
 * total energy  :   -53.3296115 Eh     change       -0.1069469E-04 Eh
 * total energy  :   -53.3296212 Eh     change       -0.9615258E-05 Eh
 * total energy  :   -53.3296301 Eh     change       -0.8907301E-05 Eh
 * total energy  :   -53.3296446 Eh     change       -0.1449362E-04 Eh
 * total energy  :   -53.3296474 Eh     change       -0.2865986E-05 Eh
   *** GEOMETRY OPTIMIZATION CONVERGED AFTER 48 ITERATIONS ***

 final structure:
================
37
 xtb: 6.7.1 (edcfbbe)
C            1.27338088405900        1.11471284875565       -1.26491559088698
C            2.31338131892182        0.27079896647813       -1.98165312303482
O            1.73988424073616       -0.96850654240331       -2.44760261122289
C            1.70991703373754       -1.98380567383343       -1.62270303883406
O            2.14716059675335       -2.03752911935611       -0.50460844675646
C            1.00571064033692       -3.19360647264457       -2.27931792880829
N            1.27678710525506       -4.37919497037511       -1.51709635579189
C            2.21803988395457       -5.33894909448927       -1.84461356686191
C            2.99178477975262       -5.53951802044498       -2.97952545183405
C            3.84228123520970       -6.62678821814146       -2.97327706338932
C            3.92496842262908       -7.48805531790087       -1.87733955415131
C            3.15972586419182       -7.29632754657056       -0.74492620864800
C            2.29913397699711       -6.20629790587482       -0.74282374605375
N            1.41059105897370       -5.73087696481097        0.20393261537734
C            0.82841807065333       -4.62875386371334       -0.27680755276161
C           -0.17428578853546       -3.80867128029246        0.42824690466904
C            1.24998067080791       -6.29894662518015        1.52565449195757
C            2.19964431405082       -5.63922629349463        2.51977428036032
H            0.42176801721703        1.30080243352531       -1.91441709954886
H            1.71642953902100        2.06583017648738       -0.98678008004142
H            0.93142086763964        0.61379105516196       -0.36216732930075
H            2.67029318459491        0.76583418038476       -2.88540040170824
H            3.15271199427681        0.04175518098566       -1.31933191294890
H           -0.06742200111050       -2.98648609901319       -2.31807059891647
H            1.36779808883996       -3.31687372935020       -3.29971826012264
H            2.94103914358015       -4.88166590773985       -3.83157408388137
H            4.46119996915101       -6.81637733051911       -3.83548554777078
H            4.60651053888666       -8.32244913022407       -1.91801249563291
H            3.23553385720840       -7.96505444321835        0.09644872894723
H            0.31376813213021       -2.94248889418711        0.87832433554856
H           -0.93053867349548       -3.44314219338745       -0.26366431128673
H           -0.66355283451779       -4.37298974799825        1.21695608027642
H            0.21414343716520       -6.17619499699538        1.84712831709140
H            1.45780485385089       -7.36777923592614        1.45288672657777
H            2.00622975977137       -4.57225219417341        2.59067840973488
H            2.06327077714473       -6.08191068377818        3.50162224208930
H            3.23299704018230       -5.78403634572721        2.21570922755591

          :  Hamiltonian                  GFN2-xTB          :
         :: total energy             -53.329647425959 Eh    ::
         :: gradient norm              0.000527199753 Eh/a0 ::
         :: HOMO-LUMO gap              3.634070815970 eV    ::
         :: SCC energy               -54.094488529349 Eh    ::
         :: -> dispersion             -0.034273082513 Eh    ::
         :: repulsion energy           0.764841103390 Eh    ::

    * Orbital Energies and Occupations

         #    Occupation            Energy/Eh            Energy/eV
      -------------------------------------------------------------
         1        2.0000           -0.8754323             -23.8217
       ...           ...                  ...                  ...
        36        2.0000           -0.6068792             -16.5140
        37        2.0000           -0.6029282             -16.4065
        38        2.0000           -0.5900305             -16.0555
        39        2.0000           -0.5882900             -16.0082
        40        2.0000           -0.5764434             -15.6858
        41        2.0000           -0.5732119             -15.5979
        42        2.0000           -0.5711828             -15.5427
        43        2.0000           -0.5658740             -15.3982
        44        2.0000           -0.5623082             -15.3012
        45        2.0000           -0.5545250             -15.0894
        46        2.0000           -0.5494692             -14.9518
        47        2.0000           -0.5411832             -14.7263
        48        2.0000           -0.5347768             -14.5520 (HOMO)
        49                         -0.4012271             -10.9179 (LUMO)
        50                         -0.3602025              -9.8016
        51                         -0.3554595              -9.6725
        52                         -0.3474411              -9.4544
        53                         -0.2300852              -6.2609
        54                         -0.1760218              -4.7898
        55                         -0.1373831              -3.7384
        56                         -0.1152279              -3.1355
        57                         -0.0644234              -1.7530
        58                         -0.0459789              -1.2511
        59                         -0.0425918              -1.1590
       ...                                ...                  ...
        91                          0.5519814              15.0202
      -------------------------------------------------------------
                  HL-Gap            0.1335496 Eh            3.6341 eV

     #   Z          covCN         q      C6AA      α(0)
     1   6 C        3.751    -0.121    22.874     6.821
     2   6 C        3.697     0.070    19.573     6.328
     3   8 O        1.703    -0.238    17.938     5.718
     4   6 C        2.714     0.361    20.869     7.478
     5   8 O        0.856    -0.404    21.752     6.253
     6   6 C        3.742    -0.047    21.491     6.614
     7   7 N        2.834     0.014    21.008     6.807
     8   6 C        3.091     0.039    27.019     8.520
     9   6 C        2.909    -0.034    28.852     8.808
    10   6 C        2.926    -0.019    28.482     8.752
    11   6 C        2.926    -0.020    28.500     8.755
    12   6 C        2.909    -0.033    28.824     8.804
    13   6 C        3.100     0.041    26.969     8.510
    14   7 N        2.830     0.014    21.007     6.807
    15   6 C        3.071     0.132    25.046     8.206
    16   6 C        3.755    -0.135    23.156     6.861
    17   6 C        3.740    -0.012    20.874     6.519
    18   6 C        3.753    -0.123    22.914     6.826
    19   1 H        0.925     0.065     2.139     2.287
    20   1 H        0.925     0.072     2.058     2.244
    21   1 H        0.925     0.059     2.213     2.327
    22   1 H        0.924     0.081     1.970     2.195
    23   1 H        0.924     0.071     2.072     2.251
    24   1 H        0.924     0.101     1.778     2.085
    25   1 H        0.925     0.109     1.708     2.044
    26   1 H        0.926     0.065     2.147     2.291
    27   1 H        0.926     0.078     2.001     2.212
    28   1 H        0.926     0.078     1.998     2.210
    29   1 H        0.926     0.070     2.083     2.257
    30   1 H        0.924     0.120     1.613     1.986
    31   1 H        0.925     0.089     1.892     2.151
    32   1 H        0.925     0.093     1.848     2.126
    33   1 H        0.924     0.075     2.033     2.230
    34   1 H        0.924     0.084     1.943     2.180
    35   1 H        0.925     0.064     2.153     2.295
    36   1 H        0.925     0.077     2.010     2.217
    37   1 H        0.925     0.064     2.150     2.293

Wiberg/Mayer (AO) data.
largest (>0.10) Wiberg bond orders for each atom

     #   Z sym  total        # sym  WBO       # sym  WBO       # sym  WBO
 ---------------------------------------------------------------------------
     1   6 C    3.987 --     2 C    1.014    21 H    0.985    19 H    0.984
                            20 H    0.978
     2   6 C    3.896 --     1 C    1.014    23 H    0.969    22 H    0.969
                             3 O    0.904
     3   8 O    2.359 --     4 C    1.209     2 C    0.904     5 O    0.191
     4   6 C    3.934 --     5 O    1.738     3 O    1.209     6 C    0.918
     5   8 O    2.051 --     4 C    1.738     3 O    0.191
     6   6 C    3.955 --     7 N    0.998    25 H    0.953    24 H    0.942
                             4 C    0.918
     7   7 N    3.650 --    15 C    1.311     8 C    1.110     6 C    0.998
     8   6 C    3.951 --     9 C    1.348    13 C    1.280     7 N    1.110
     9   6 C    3.985 --    10 C    1.486     8 C    1.348    26 H    0.962
                            12 C    0.118
    10   6 C    3.983 --     9 C    1.486    11 C    1.385    27 H    0.966
    11   6 C    3.984 --    12 C    1.488    10 C    1.385    28 H    0.966
    12   6 C    3.984 --    11 C    1.488    13 C    1.345    29 H    0.962
                             9 C    0.118
    13   6 C    3.954 --    12 C    1.345     8 C    1.280    14 N    1.117
    14   7 N    3.662 --    15 C    1.342    13 C    1.117    17 C    0.968
    15   6 C    3.954 --    14 N    1.342     7 N    1.311    16 C    1.051
    16   6 C    3.976 --    15 C    1.051    32 H    0.964    31 H    0.960
                            30 H    0.934
    17   6 C    3.944 --    18 C    1.003    14 N    0.968    34 H    0.965
                            33 H    0.961
    18   6 C    3.983 --    17 C    1.003    37 H    0.984    35 H    0.984
                            36 H    0.978
    19   1 H    0.996 --     1 C    0.984
    20   1 H    0.994 --     1 C    0.978
    21   1 H    0.997 --     1 C    0.985
    22   1 H    0.993 --     2 C    0.969
    23   1 H    0.995 --     2 C    0.969
    24   1 H    0.989 --     6 C    0.942
    25   1 H    0.988 --     6 C    0.953
    26   1 H    0.995 --     9 C    0.962
    27   1 H    0.994 --    10 C    0.966
    28   1 H    0.993 --    11 C    0.966
    29   1 H    0.994 --    12 C    0.962
    30   1 H    0.981 --    16 C    0.934
    31   1 H    0.991 --    16 C    0.960
    32   1 H    0.990 --    16 C    0.964
    33   1 H    0.994 --    17 C    0.961
    34   1 H    0.993 --    17 C    0.965
    35   1 H    0.996 --    18 C    0.984
    36   1 H    0.993 --    18 C    0.978
    37   1 H    0.996 --    18 C    0.984
 ---------------------------------------------------------------------------

molecular dipole:
                 x           y           z       tot (Debye)
 q only:        2.732      -8.525      -1.504
   full:        2.594      -8.490      -1.661      22.956

           -------------------------------------------------
          | TOTAL ENERGY              -53.329647425959 Eh   |
          | GRADIENT NORM               0.000527199753 Eh/α |
          | HOMO-LUMO GAP               3.634070815970 eV   |
           -------------------------------------------------

 * finished run on 2024/12/20 at 06:54:13.236
