   * xtb version 6.7.1 (edcfbbe) compiled by 'conda@3ef47c1a292c' on 2024-11-25

   ID    Z sym.   atoms
    1    7 N      1, 6
    2    6 C      2-5, 7-11
    3    1 H      12-22

          program call               : xtb C0716.xyz --opt --namespace C0716 --charge +1
          :  Hamiltonian                  GFN2-xTB          :
 * total energy  :   -30.2356916 Eh     change       -0.6059366E-09 Eh
 * total energy  :   -30.2672357 Eh     change       -0.3154407E-01 Eh
 * total energy  :   -30.2689596 Eh     change       -0.1723958E-02 Eh
 * total energy  :   -30.2694681 Eh     change       -0.5084167E-03 Eh
 * total energy  :   -30.2697801 Eh     change       -0.3120429E-03 Eh
 * total energy  :   -30.2700442 Eh     change       -0.2640499E-03 Eh
 * total energy  :   -30.2702781 Eh     change       -0.2339004E-03 Eh
 * total energy  :   -30.2704929 Eh     change       -0.2148442E-03 Eh
 * total energy  :   -30.2705830 Eh     change       -0.9011528E-04 Eh
 * total energy  :   -30.2707419 Eh     change       -0.1589198E-03 Eh
 * total energy  :   -30.2707962 Eh     change       -0.5424493E-04 Eh
 * total energy  :   -30.2708321 Eh     change       -0.3590223E-04 Eh
 * total energy  :   -30.2708403 Eh     change       -0.8256900E-05 Eh
 * total energy  :   -30.2708454 Eh     change       -0.5020236E-05 Eh
 * total energy  :   -30.2708480 Eh     change       -0.2637662E-05 Eh
   *** GEOMETRY OPTIMIZATION CONVERGED AFTER 15 ITERATIONS ***

 final structure:
================
22
 xtb: 6.7.1 (edcfbbe)
N            1.18147117408303       -0.66195686525278        0.23252433527626
C            2.27280943832366       -0.36533312201558        0.07276261217336
C            3.68024221246337       -0.07543889500297       -0.05351784583200
C            4.34781246794241        0.07166776626835        1.32287178239485
C            3.91842248474323       -1.00522838031381        2.33071507243076
N            4.18519046651697       -2.35348803471014        1.85036128255383
C            5.44910777942353       -2.79651443196050        1.81728133470496
C            5.75319398695206       -4.05592712920651        1.34666101706126
C            4.72579591438115       -4.88062299448445        0.90217629932968
C            3.42256799609493       -4.40429886066376        0.94818838906042
C            3.18212316037339       -3.13217669396649        1.42937040846497
H            4.13986256797768       -0.88209008158599       -0.63401017161724
H            3.79888533725559        0.85057252051374       -0.62039249307815
H            5.43079466307355        0.06281738994835        1.18982148815845
H            4.07394711202693        1.03429876170289        1.75698288168763
H            4.46027147715124       -0.85255399965507        3.26743955440846
H            2.84899681866979       -0.91151128635320        2.52822759672721
H            6.21637316311731       -2.12898336953641        2.18186018446873
H            6.77929015977392       -4.38746005575700        1.33356356649798
H            4.93766398344263       -5.87186051413936        0.53266945262939
H            2.59374469574363       -5.00998124061454        0.61772164951413
H            2.18063294046986       -2.72731048321572        1.47110160298499

          :  Hamiltonian                  GFN2-xTB          :
         :: total energy             -30.270847993211 Eh    ::
         :: gradient norm              0.000770796325 Eh/a0 ::
         :: HOMO-LUMO gap              2.235331975594 eV    ::
         :: SCC energy               -30.816004748646 Eh    ::
         :: -> dispersion             -0.017839022780 Eh    ::
         :: repulsion energy           0.545156755435 Eh    ::

    * Orbital Energies and Occupations

         #    Occupation            Energy/Eh            Energy/eV
      -------------------------------------------------------------
         1        2.0000           -0.8907311             -24.2380
       ...           ...                  ...                  ...
        16        2.0000           -0.6828268             -18.5807
        17        2.0000           -0.6767051             -18.4141
        18        2.0000           -0.6702866             -18.2394
        19        2.0000           -0.6486341             -17.6502
        20        2.0000           -0.6372921             -17.3416
        21        2.0000           -0.6327564             -17.2182
        22        2.0000           -0.6285830             -17.1046
        23        2.0000           -0.6250343             -17.0080
        24        2.0000           -0.6239991             -16.9799
        25        2.0000           -0.6163816             -16.7726
        26        2.0000           -0.5969990             -16.2452
        27        2.0000           -0.5884223             -16.0118
        28        2.0000           -0.5511442             -14.9974 (HOMO)
        29                         -0.4689972             -12.7621 (LUMO)
        30                         -0.4373659             -11.9013
        31                         -0.3378015              -9.1920
        32                         -0.3319073              -9.0317
        33                         -0.3168127              -8.6209
        34                         -0.1877242              -5.1082
        35                         -0.0956093              -2.6017
        36                         -0.0804985              -2.1905
        37                         -0.0604225              -1.6442
        38                         -0.0452491              -1.2313
        39                         -0.0360902              -0.9821
       ...                                ...                  ...
        55                          1.0164112              27.6580
      -------------------------------------------------------------
                  HL-Gap            0.0821469 Eh            2.2353 eV

     #   Z          covCN         q      C6AA      α(0)
     1   7 N        0.911    -0.216    25.719     7.335
     2   6 C        1.897     0.110    28.384     8.604
     3   6 C        3.803    -0.063    21.699     6.632
     4   6 C        3.805    -0.063    21.711     6.633
     5   6 C        3.757    -0.038    21.304     6.581
     6   7 N        2.749     0.112    19.323     6.529
     7   6 C        2.892     0.032    27.279     8.563
     8   6 C        2.915    -0.010    28.256     8.717
     9   6 C        2.924     0.016    27.661     8.625
    10   6 C        2.915    -0.008    28.211     8.710
    11   6 C        2.889     0.033    27.260     8.560
    12   1 H        0.924     0.069     2.102     2.267
    13   1 H        0.924     0.102     1.767     2.079
    14   1 H        0.924     0.067     2.123     2.279
    15   1 H        0.924     0.089     1.892     2.151
    16   1 H        0.924     0.099     1.798     2.097
    17   1 H        0.924     0.101     1.776     2.084
    18   1 H        0.926     0.110     1.698     2.038
    19   1 H        0.926     0.111     1.689     2.032
    20   1 H        0.926     0.111     1.686     2.030
    21   1 H        0.926     0.115     1.657     2.013
    22   1 H        0.926     0.122     1.595     1.975

Wiberg/Mayer (AO) data.
largest (>0.10) Wiberg bond orders for each atom

     #   Z sym  total        # sym  WBO       # sym  WBO       # sym  WBO
 ---------------------------------------------------------------------------
     1   7 N    3.016 --     2 C    2.856
     2   6 C    3.948 --     1 N    2.856     3 C    1.051
     3   6 C    3.994 --     2 C    1.051     4 C    0.983    12 H    0.946
                            13 H    0.939
     4   6 C    3.984 --     5 C    0.985     3 C    0.983    14 H    0.972
                            15 H    0.967
     5   6 C    3.936 --     4 C    0.985     6 N    0.963    17 H    0.962
                            16 H    0.957
     6   7 N    3.767 --    11 C    1.333     7 C    1.321     5 C    0.963
     7   6 C    3.958 --     8 C    1.471     6 N    1.321    18 H    0.954
     8   6 C    3.980 --     7 C    1.471     9 C    1.414    19 H    0.958
     9   6 C    3.968 --    10 C    1.428     8 C    1.414    20 H    0.960
    10   6 C    3.979 --    11 C    1.454     9 C    1.428    21 H    0.957
    11   6 C    3.953 --    10 C    1.454     6 N    1.333    22 H    0.948
    12   1 H    0.995 --     3 C    0.946
    13   1 H    0.989 --     3 C    0.939
    14   1 H    0.996 --     4 C    0.972
    15   1 H    0.991 --     4 C    0.967
    16   1 H    0.990 --     5 C    0.957
    17   1 H    0.989 --     5 C    0.962
    18   1 H    0.988 --     7 C    0.954
    19   1 H    0.987 --     8 C    0.958
    20   1 H    0.988 --     9 C    0.960
    21   1 H    0.987 --    10 C    0.957
    22   1 H    0.985 --    11 C    0.948
 ---------------------------------------------------------------------------

molecular dipole:
                 x           y           z       tot (Debye)
 q only:        8.980      -5.017       2.832
   full:        9.422      -4.894       2.777      27.894

           -------------------------------------------------
          | TOTAL ENERGY              -30.270847993211 Eh   |
          | GRADIENT NORM               0.000770796325 Eh/α |
          | HOMO-LUMO GAP               2.235331975594 eV   |
           -------------------------------------------------

 * finished run on 2024/12/20 at 06:54:15.120
