   * xtb version 6.7.1 (edcfbbe) compiled by 'conda@3ef47c1a292c' on 2024-11-25

   ID    Z sym.   atoms
    1    6 C      1-3, 5, 7-16, 18
    2    7 N      4, 6, 17
    3    1 H      19-36

          program call               : xtb C0718.xyz --opt --namespace C0718 --charge +1
          :  Hamiltonian                  GFN2-xTB          :
 * total energy  :   -49.6469912 Eh     change       -0.1181228E-08 Eh
 * total energy  :   -49.6538581 Eh     change       -0.6866848E-02 Eh
 * total energy  :   -49.6550307 Eh     change       -0.1172580E-02 Eh
 * total energy  :   -49.6551976 Eh     change       -0.1669558E-03 Eh
 * total energy  :   -49.6555147 Eh     change       -0.3171114E-03 Eh
 * total energy  :   -49.6556983 Eh     change       -0.1835339E-03 Eh
 * total energy  :   -49.6559082 Eh     change       -0.2099731E-03 Eh
 * total energy  :   -49.6561343 Eh     change       -0.2260335E-03 Eh
 * total energy  :   -49.6563108 Eh     change       -0.1765432E-03 Eh
 * total energy  :   -49.6564490 Eh     change       -0.1382273E-03 Eh
 * total energy  :   -49.6580954 Eh     change       -0.3578679E-04 Eh
 * total energy  :   -49.6581237 Eh     change       -0.2828679E-04 Eh
 * total energy  :   -49.6581447 Eh     change       -0.2097291E-04 Eh
 * total energy  :   -49.6581760 Eh     change       -0.3129153E-04 Eh
 * total energy  :   -49.6581918 Eh     change       -0.1580557E-04 Eh
 * total energy  :   -49.6582156 Eh     change       -0.2383082E-04 Eh
 * total energy  :   -49.6582230 Eh     change       -0.7365305E-05 Eh
 * total energy  :   -49.6582281 Eh     change       -0.5101652E-05 Eh
 * total energy  :   -49.6582315 Eh     change       -0.3407126E-05 Eh
   *** GEOMETRY OPTIMIZATION CONVERGED AFTER 37 ITERATIONS ***

 final structure:
================
36
 xtb: 6.7.1 (edcfbbe)
C            0.74547332701753        0.74447160146834        1.08473447520718
C           -0.31140268028426        0.09736824875074        1.53579646035566
C           -1.38274648560650       -0.47959855864692        0.64534568809438
N           -1.80037259762806       -1.77974723552689        1.12821643419938
C           -2.81622513046911       -1.94436675439883        1.96182241764054
N           -2.92704264616793       -3.20998026754578        2.35525706689444
C           -1.90411894379116       -3.91975898708136        1.75661305518954
C           -1.17531365234871       -3.00608139902452        0.96557541561547
C           -0.06398282799827       -3.42265526515548        0.22029628900708
C            0.74932634980433       -2.51560361127837       -0.64277498895621
C            0.25407948967368       -4.76759867391787        0.32412966103369
C           -0.46901512035623       -5.66722755601612        1.10591726543406
C           -1.56337758049973       -5.26319417249855        1.83976561441747
C           -3.80778491421606       -3.71587295554908        3.39716539351818
C           -3.06047167643709       -3.61390921121215        4.74996118713544
C           -2.47159371853813       -2.30276607640389        4.86243035940186
N           -2.00704814193416       -1.25968504302880        4.82470033112153
C           -5.12791667948452       -2.95632007532411        3.43216469947333
H            0.92167916562628        0.89646261135629        0.03202577516184
H            1.46981253190786        1.17078747390796        1.75537259748415
H           -0.48395411944456       -0.03058245906452        2.59591386244589
H           -2.25866980134384        0.17667502202447        0.66647372741024
H           -1.03610171982954       -0.56006101457435       -0.38435298309940
H           -3.46674153552781       -1.14852232504342        2.26899098881217
H            0.16222988101473       -2.15554029463878       -1.48681094432341
H            1.11216726666210       -1.65986555104649       -0.07671852196854
H            1.60546085139323       -3.05262735278963       -1.03999705728726
H            1.10359288791797       -5.13738666689894       -0.22841557718573
H           -0.16155966700850       -6.70016473492490        1.13543896216739
H           -2.12261894162787       -5.96035473891697        2.44122115175630
H           -3.99907795608748       -4.76955483530564        3.17078971105212
H           -3.75541611947927       -3.78235200819824        5.57468514721358
H           -2.25949713387846       -4.35648547684039        4.81093597646503
H           -5.56734679359515       -2.90204813356558        2.43866588915363
H           -5.82748670872108       -3.48048594945106        4.07817306049914
H           -4.99976845870778       -1.95003757363447        3.82477140946645

          :  Hamiltonian                  GFN2-xTB          :
         :: total energy             -49.658231501912 Eh    ::
         :: gradient norm              0.000886481260 Eh/a0 ::
         :: HOMO-LUMO gap              3.234167739645 eV    ::
         :: SCC energy               -50.526088817413 Eh    ::
         :: -> dispersion             -0.037164611181 Eh    ::
         :: repulsion energy           0.867857315501 Eh    ::

    * Orbital Energies and Occupations

         #    Occupation            Energy/Eh            Energy/eV
      -------------------------------------------------------------
         1        2.0000           -0.8763493             -23.8467
       ...           ...                  ...                  ...
        34        2.0000           -0.6049381             -16.4612
        35        2.0000           -0.5986788             -16.2909
        36        2.0000           -0.5926167             -16.1259
        37        2.0000           -0.5881958             -16.0056
        38        2.0000           -0.5873199             -15.9818
        39        2.0000           -0.5853435             -15.9280
        40        2.0000           -0.5743794             -15.6297
        41        2.0000           -0.5686328             -15.4733
        42        2.0000           -0.5572437             -15.1634
        43        2.0000           -0.5526666             -15.0388
        44        2.0000           -0.5505214             -14.9804
        45        2.0000           -0.5378243             -14.6349
        46        2.0000           -0.5295160             -14.4089 (HOMO)
        47                         -0.4106626             -11.1747 (LUMO)
        48                         -0.3614877              -9.8366
        49                         -0.3538522              -9.6288
        50                         -0.3385069              -9.2112
        51                         -0.3332442              -9.0680
        52                         -0.3313205              -9.0157
        53                         -0.2369955              -6.4490
        54                         -0.1821691              -4.9571
        55                         -0.1382705              -3.7625
        56                         -0.0793619              -2.1595
        57                         -0.0597769              -1.6266
       ...                                ...                  ...
        90                          1.0132988              27.5733
      -------------------------------------------------------------
                  HL-Gap            0.1188535 Eh            3.2342 eV

     #   Z          covCN         q      C6AA      α(0)
     1   6 C        2.837    -0.082    30.032     8.981
     2   6 C        2.886    -0.039    28.978     8.825
     3   6 C        3.749    -0.022    21.023     6.539
     4   7 N        2.830     0.039    20.566     6.735
     5   6 C        3.070     0.071    26.343     8.416
     6   7 N        2.825     0.012    21.052     6.815
     7   6 C        3.125     0.038    26.973     8.504
     8   6 C        3.106     0.030    27.192     8.544
     9   6 C        2.955     0.026    27.418     8.588
    10   6 C        3.757    -0.126    22.965     6.832
    11   6 C        2.932    -0.033    28.830     8.806
    12   6 C        2.925    -0.019    28.491     8.753
    13   6 C        2.909    -0.043    29.064     8.840
    14   6 C        3.797     0.041    19.887     6.350
    15   6 C        3.806    -0.069    21.812     6.648
    16   6 C        1.900     0.118    28.211     8.578
    17   7 N        0.911    -0.222    25.859     7.355
    18   6 C        3.754    -0.128    23.009     6.840
    19   1 H        0.926     0.063     2.163     2.300
    20   1 H        0.926     0.077     2.006     2.215
    21   1 H        0.925     0.064     2.148     2.292
    22   1 H        0.924     0.084     1.942     2.179
    23   1 H        0.925     0.095     1.832     2.117
    24   1 H        0.926     0.108     1.712     2.046
    25   1 H        0.925     0.067     2.114     2.274
    26   1 H        0.925     0.073     2.051     2.240
    27   1 H        0.925     0.074     2.042     2.235
    28   1 H        0.926     0.077     2.011     2.218
    29   1 H        0.926     0.077     2.006     2.215
    30   1 H        0.926     0.062     2.181     2.309
    31   1 H        0.924     0.080     1.979     2.200
    32   1 H        0.924     0.106     1.729     2.056
    33   1 H        0.924     0.089     1.887     2.148
    34   1 H        0.925     0.066     2.130     2.282
    35   1 H        0.925     0.081     1.972     2.196
    36   1 H        0.925     0.065     2.146     2.291

Wiberg/Mayer (AO) data.
largest (>0.10) Wiberg bond orders for each atom

     #   Z sym  total        # sym  WBO       # sym  WBO       # sym  WBO
 ---------------------------------------------------------------------------
     1   6 C    3.984 --     2 C    1.985    19 H    0.971    20 H    0.970
     2   6 C    3.980 --     1 C    1.985     3 C    0.993    21 H    0.962
     3   6 C    3.939 --     2 C    0.993     4 N    0.964    23 H    0.956
                            22 H    0.952
     4   7 N    3.687 --     5 C    1.387     8 C    1.121     3 C    0.964
                             6 N    0.102
     5   6 C    3.953 --     4 N    1.387     6 N    1.352    24 H    0.951
     6   7 N    3.660 --     5 C    1.352     7 C    1.120    14 C    0.957
                             4 N    0.102
     7   6 C    3.951 --    13 C    1.341     8 C    1.277     6 N    1.120
     8   6 C    3.948 --     9 C    1.306     7 C    1.277     4 N    1.121
     9   6 C    3.984 --    11 C    1.455     8 C    1.306    10 C    1.034
                            13 C    0.113
    10   6 C    3.988 --     9 C    1.034    27 H    0.979    26 H    0.961
                            25 H    0.959
    11   6 C    3.986 --     9 C    1.455    12 C    1.389    28 H    0.964
    12   6 C    3.986 --    13 C    1.484    11 C    1.389    29 H    0.966
    13   6 C    3.986 --    12 C    1.484     7 C    1.341    30 H    0.963
                             9 C    0.113
    14   6 C    3.950 --    18 C    1.008     6 N    0.957    31 H    0.956
                            15 C    0.949
    15   6 C    3.989 --    16 C    1.055    14 C    0.949    33 H    0.942
                            32 H    0.938
    16   6 C    3.948 --    17 N    2.852    15 C    1.055
    17   7 N    3.012 --    16 C    2.852
    18   6 C    3.983 --    14 C    1.008    36 H    0.981    34 H    0.981
                            35 H    0.978
    19   1 H    0.996 --     1 C    0.971
    20   1 H    0.992 --     1 C    0.970
    21   1 H    0.996 --     2 C    0.962
    22   1 H    0.992 --     3 C    0.952
    23   1 H    0.990 --     3 C    0.956
    24   1 H    0.987 --     5 C    0.951
    25   1 H    0.995 --    10 C    0.959
    26   1 H    0.994 --    10 C    0.961
    27   1 H    0.994 --    10 C    0.979
    28   1 H    0.994 --    11 C    0.964
    29   1 H    0.994 --    12 C    0.966
    30   1 H    0.995 --    13 C    0.963
    31   1 H    0.993 --    14 C    0.956
    32   1 H    0.988 --    15 C    0.938
    33   1 H    0.992 --    15 C    0.942
    34   1 H    0.996 --    18 C    0.981
    35   1 H    0.993 --    18 C    0.978
    36   1 H    0.996 --    18 C    0.981
 ---------------------------------------------------------------------------

molecular dipole:
                 x           y           z       tot (Debye)
 q only:       -3.862      -5.469       3.045
   full:       -4.242      -5.823       3.154      19.990

           -------------------------------------------------
          | TOTAL ENERGY              -49.658231501912 Eh   |
          | GRADIENT NORM               0.000886481260 Eh/α |
          | HOMO-LUMO GAP               3.234167739645 eV   |
           -------------------------------------------------

 * finished run on 2024/12/20 at 06:54:17.463
