   * xtb version 6.7.1 (edcfbbe) compiled by 'conda@3ef47c1a292c' on 2024-11-25

   ID    Z sym.   atoms
    1    6 C      1-6, 10-16
    2    7 N      7-9
    3    1 H      17-34

          program call               : xtb C0712.xyz --opt --namespace C0712 --charge +1
          :  Hamiltonian                  GFN2-xTB          :
 * total energy  :   -45.3752775 Eh     change       -0.9195702E-09 Eh
 * total energy  :   -45.3856301 Eh     change       -0.1035261E-01 Eh
 * total energy  :   -45.3876063 Eh     change       -0.1976250E-02 Eh
 * total energy  :   -45.3878855 Eh     change       -0.2791579E-03 Eh
 * total energy  :   -45.3880558 Eh     change       -0.1702590E-03 Eh
 * total energy  :   -45.3881396 Eh     change       -0.8379752E-04 Eh
 * total energy  :   -45.3882239 Eh     change       -0.8434915E-04 Eh
 * total energy  :   -45.3883107 Eh     change       -0.8676697E-04 Eh
 * total energy  :   -45.3883905 Eh     change       -0.7981938E-04 Eh
 * total energy  :   -45.3884972 Eh     change       -0.1067027E-03 Eh
 * total energy  :   -45.3898642 Eh     change       -0.1703290E-04 Eh
 * total energy  :   -45.3898820 Eh     change       -0.1777429E-04 Eh
 * total energy  :   -45.3899002 Eh     change       -0.1825800E-04 Eh
 * total energy  :   -45.3899166 Eh     change       -0.1632106E-04 Eh
 * total energy  :   -45.3899307 Eh     change       -0.1412968E-04 Eh
 * total energy  :   -45.3899426 Eh     change       -0.1192600E-04 Eh
 * total energy  :   -45.3899527 Eh     change       -0.1010820E-04 Eh
 * total energy  :   -45.3899616 Eh     change       -0.8924125E-05 Eh
 * total energy  :   -45.3899647 Eh     change       -0.3106730E-05 Eh
   *** GEOMETRY OPTIMIZATION CONVERGED AFTER 44 ITERATIONS ***

 final structure:
================
34
 xtb: 6.7.1 (edcfbbe)
C            1.01688582964613        1.19164906124112       -0.62363442716772
C            0.11689210761992        0.19457819714958        0.09612727523362
C            0.51996315323001       -0.04479109402467        1.55112878518760
C            0.35884240364577        1.19277669335677        2.45626140546985
C           -1.04894148426702        1.64318647392632        2.51804465009767
C           -1.72765755358453        2.58155836366286        1.76934377825470
N           -3.00965155451294        2.55838450049580        2.20383112138430
N           -3.15324688263341        1.67949457672841        3.15463449551313
N           -1.98836019478400        1.12673151725086        3.34720214880755
C           -1.82925543426976        0.12407854728472        4.35828977002039
C           -4.10109085190443        3.33304838314409        1.76361909216331
C           -3.99195691787120        4.14354682048350        0.63732233762891
C           -5.08319403736078        4.89377061775466        0.23863382018705
C           -6.27209224044694        4.83621641364217        0.94936727110444
C           -6.37610740359090        4.02083896670703        2.06645109352294
C           -5.29436895361983        3.26736245059642        2.47970694226903
H            0.94436039556532        2.18776823399872       -0.19323814108559
H            0.73477712858582        1.25730827838547       -1.67076302680877
H            2.05387596610919        0.87048969360623       -0.57299014792747
H           -0.92267037604820        0.52993714633441        0.04472715039520
H            0.17240486302783       -0.76214177057910       -0.42516399527215
H           -0.07069781844487       -0.87068153638789        1.95254208320182
H            1.56788818201387       -0.34255423291013        1.58505543493728
H            0.71215327178576        0.94652369274685        3.45868968077982
H            0.97296011666726        2.00330831885177        2.06597283016547
H           -1.36549387529433        3.23276401559683        1.00331892291325
H           -1.46527777780584       -0.80554719183574        3.92155214911673
H           -1.12126309948332        0.46042614647481        5.11695310070887
H           -2.80032730710145       -0.04529381282886        4.81872623655554
H           -3.08017499685869        4.18989129782107        0.06438557902493
H           -5.00314780047745        5.52361524665640       -0.63301643572262
H           -7.11739057134184        5.42532317545172        0.63092827513023
H           -7.30085140612953        3.97304373881974        2.61890825698838
H           -5.35841488006433        2.63254907038874        3.34841248721323

          :  Hamiltonian                  GFN2-xTB          :
         :: total energy             -45.389964746816 Eh    ::
         :: gradient norm              0.000202609755 Eh/a0 ::
         :: HOMO-LUMO gap              2.886038194437 eV    ::
         :: SCC energy               -46.112516385973 Eh    ::
         :: -> dispersion             -0.029980767532 Eh    ::
         :: repulsion energy           0.722551639158 Eh    ::

    * Orbital Energies and Occupations

         #    Occupation            Energy/Eh            Energy/eV
      -------------------------------------------------------------
         1        2.0000           -0.9116445             -24.8071
       ...           ...                  ...                  ...
        30        2.0000           -0.6077031             -16.5364
        31        2.0000           -0.6039244             -16.4336
        32        2.0000           -0.5996684             -16.3178
        33        2.0000           -0.5897936             -16.0491
        34        2.0000           -0.5839712             -15.8907
        35        2.0000           -0.5765118             -15.6877
        36        2.0000           -0.5638813             -15.3440
        37        2.0000           -0.5550822             -15.1046
        38        2.0000           -0.5530706             -15.0498
        39        2.0000           -0.5460693             -14.8593
        40        2.0000           -0.5432779             -14.7833
        41        2.0000           -0.5424120             -14.7598
        42        2.0000           -0.5397432             -14.6872 (HOMO)
        43                         -0.4336832             -11.8011 (LUMO)
        44                         -0.3773892             -10.2693
        45                         -0.3598209              -9.7912
        46                         -0.3405082              -9.2657
        47                         -0.2254861              -6.1358
        48                         -0.1746693              -4.7530
        49                         -0.1393499              -3.7919
        50                         -0.0654025              -1.7797
        51                         -0.0499754              -1.3599
        52                         -0.0380956              -1.0366
        53                         -0.0265211              -0.7217
       ...                                ...                  ...
        82                          0.5384279              14.6514
      -------------------------------------------------------------
                  HL-Gap            0.1060600 Eh            2.8860 eV

     #   Z          covCN         q      C6AA      α(0)
     1   6 C        3.752    -0.112    22.695     6.794
     2   6 C        3.800    -0.058    21.626     6.621
     3   6 C        3.803    -0.061    21.678     6.629
     4   6 C        3.803    -0.073    21.895     6.662
     5   6 C        3.040     0.051    26.814     8.493
     6   6 C        3.022    -0.021    28.509     8.758
     7   7 N        3.019     0.150    18.702     6.423
     8   7 N        2.149    -0.126    24.256     7.308
     9   7 N        3.033     0.139    18.883     6.454
    10   6 C        3.695    -0.087    22.346     6.763
    11   6 C        2.921     0.041    27.071     8.532
    12   6 C        2.918    -0.032    28.805     8.801
    13   6 C        2.921    -0.016    28.404     8.740
    14   6 C        2.919    -0.010    28.274     8.720
    15   6 C        2.920    -0.014    28.364     8.734
    16   6 C        2.921    -0.028    28.709     8.787
    17   1 H        0.925     0.031     2.575     2.509
    18   1 H        0.925     0.050     2.317     2.380
    19   1 H        0.925     0.051     2.307     2.375
    20   1 H        0.924     0.022     2.700     2.570
    21   1 H        0.924     0.054     2.272     2.357
    22   1 H        0.924     0.039     2.467     2.456
    23   1 H        0.925     0.068     2.111     2.272
    24   1 H        0.924     0.072     2.062     2.246
    25   1 H        0.925     0.084     1.939     2.178
    26   1 H        0.927     0.101     1.778     2.085
    27   1 H        0.925     0.106     1.732     2.058
    28   1 H        0.924     0.104     1.745     2.066
    29   1 H        0.925     0.116     1.644     2.005
    30   1 H        0.926     0.059     2.213     2.326
    31   1 H        0.926     0.073     2.051     2.240
    32   1 H        0.926     0.076     2.019     2.222
    33   1 H        0.926     0.075     2.033     2.230
    34   1 H        0.926     0.076     2.017     2.221

Wiberg/Mayer (AO) data.
largest (>0.10) Wiberg bond orders for each atom

     #   Z sym  total        # sym  WBO       # sym  WBO       # sym  WBO
 ---------------------------------------------------------------------------
     1   6 C    3.994 --     2 C    1.021    19 H    0.986    18 H    0.985
                            17 H    0.985
     2   6 C    3.995 --     1 C    1.021     3 C    1.009    20 H    0.976
                            21 H    0.974
     3   6 C    3.988 --     2 C    1.009    22 H    0.976    23 H    0.971
                             4 C    0.967
     4   6 C    3.982 --     5 C    1.032     3 C    0.967    25 H    0.961
                            24 H    0.960
     5   6 C    3.956 --     6 C    1.470     9 N    1.256     4 C    1.032
                             8 N    0.107
     6   6 C    3.953 --     5 C    1.470     7 N    1.264    26 H    0.959
                             8 N    0.117
     7   7 N    3.758 --     8 N    1.303     6 C    1.264    11 C    1.014
     8   7 N    2.987 --     7 N    1.303     9 N    1.296     6 C    0.117
                             5 C    0.107
     9   7 N    3.730 --     8 N    1.296     5 C    1.256    10 C    0.992
    10   6 C    3.932 --     9 N    0.992    29 H    0.971    27 H    0.958
                            28 H    0.957
    11   6 C    3.933 --    12 C    1.370    16 C    1.365     7 N    1.014
    12   6 C    3.987 --    13 C    1.454    11 C    1.370    30 H    0.963
                            15 C    0.104
    13   6 C    3.987 --    12 C    1.454    14 C    1.429    31 H    0.967
                            16 C    0.104
    14   6 C    3.975 --    13 C    1.429    15 C    1.427    32 H    0.967
    15   6 C    3.987 --    16 C    1.458    14 C    1.427    33 H    0.966
                            12 C    0.104
    16   6 C    3.985 --    15 C    1.458    11 C    1.365    34 H    0.963
                            13 C    0.104
    17   1 H    0.999 --     1 C    0.985
    18   1 H    0.997 --     1 C    0.985
    19   1 H    0.997 --     1 C    0.986
    20   1 H    0.999 --     2 C    0.976
    21   1 H    0.997 --     2 C    0.974
    22   1 H    0.999 --     3 C    0.976
    23   1 H    0.995 --     3 C    0.971
    24   1 H    0.994 --     4 C    0.960
    25   1 H    0.993 --     4 C    0.961
    26   1 H    0.990 --     6 C    0.959
    27   1 H    0.987 --    10 C    0.958
    28   1 H    0.987 --    10 C    0.957
    29   1 H    0.986 --    10 C    0.971
    30   1 H    0.997 --    12 C    0.963
    31   1 H    0.994 --    13 C    0.967
    32   1 H    0.994 --    14 C    0.967
    33   1 H    0.994 --    15 C    0.966
    34   1 H    0.994 --    16 C    0.963
 ---------------------------------------------------------------------------

molecular dipole:
                 x           y           z       tot (Debye)
 q only:       -4.552       3.814       4.485
   full:       -4.270       3.882       4.384      18.421

           -------------------------------------------------
          | TOTAL ENERGY              -45.389964746816 Eh   |
          | GRADIENT NORM               0.000202609755 Eh/α |
          | HOMO-LUMO GAP               2.886038194437 eV   |
           -------------------------------------------------

 * finished run on 2024/12/20 at 06:54:11.183
