   * xtb version 6.7.1 (edcfbbe) compiled by 'conda@3ef47c1a292c' on 2024-11-25

   ID    Z sym.   atoms
    1    6 C      1-18, 20-25
    2    7 N      19
    3    1 H      26-69

          program call               : xtb C0724.xyz --opt --namespace C0724 --charge +1
          :  Hamiltonian                  GFN2-xTB          :
 * total energy  :   -76.3925666 Eh     change       -0.2007951E-08 Eh
 * total energy  :   -76.3960444 Eh     change       -0.3477806E-02 Eh
 * total energy  :   -76.3965561 Eh     change       -0.5117260E-03 Eh
 * total energy  :   -76.3966338 Eh     change       -0.7770181E-04 Eh
 * total energy  :   -76.3967228 Eh     change       -0.8897221E-04 Eh
 * total energy  :   -76.3967953 Eh     change       -0.7251920E-04 Eh
 * total energy  :   -76.3969066 Eh     change       -0.1112511E-03 Eh
 * total energy  :   -76.3970432 Eh     change       -0.1365750E-03 Eh
 * total energy  :   -76.3971453 Eh     change       -0.1020957E-03 Eh
 * total energy  :   -76.3972050 Eh     change       -0.5969069E-04 Eh
 * total energy  :   -76.3974444 Eh     change       -0.3091052E-04 Eh
 * total energy  :   -76.3974629 Eh     change       -0.1857350E-04 Eh
 * total energy  :   -76.3974815 Eh     change       -0.1854917E-04 Eh
 * total energy  :   -76.3975003 Eh     change       -0.1880648E-04 Eh
 * total energy  :   -76.3975143 Eh     change       -0.1397836E-04 Eh
 * total energy  :   -76.3975255 Eh     change       -0.1121577E-04 Eh
 * total energy  :   -76.3975313 Eh     change       -0.5772821E-05 Eh
 * total energy  :   -76.3975401 Eh     change       -0.8795962E-05 Eh
 * total energy  :   -76.3975448 Eh     change       -0.4767871E-05 Eh
   *** GEOMETRY OPTIMIZATION CONVERGED AFTER 24 ITERATIONS ***

 final structure:
================
69
 xtb: 6.7.1 (edcfbbe)
C            1.14934786043746       -0.50321448015373       -0.52396002836951
C            1.09904198994494       -1.30669375587913        0.76975166026689
C            1.34019636716017       -0.45608357516124        2.01722235525232
C            0.29416942472141        0.63171466419111        2.26953808545011
C           -1.13583703187628        0.12263273883533        2.45740243378348
C           -1.32734403097506       -0.85930374936540        3.61493230940769
C           -0.92886075251451       -0.32160549976908        4.99040879774584
C           -1.67690634526831        0.93685335998402        5.43460815963981
C           -3.19682403447852        0.78836572018046        5.52522314489019
C           -3.68547312309463       -0.29284207833682        6.49123650610829
C           -3.22366973856209       -0.12262266272131        7.93989683137034
C           -3.62907709340817        1.19850454581823        8.59644872563854
C           -5.13654839656932        1.45110854134999        8.66223118150723
C           -5.93276633382333        0.40280709166269        9.44204924994429
C           -5.49230862520103        0.20601883842594       10.89512611714783
C           -5.51226146652967        1.47510162603560       11.75118480022622
C           -6.88410821488933        2.13441407633385       11.88891567021724
C           -7.90049006944585        1.30048660236402       12.68272905370593
N           -7.49599731976008        1.19773828018338       14.07270760040305
C           -7.79456360062483        2.19030079005241       14.91907703720307
C           -7.35100521273576        2.16135757250988       16.22441979778979
C           -6.58001520395588        1.09448642288963       16.66000443395108
C           -6.26846415950377        0.06101261947498       15.77285991762774
C           -6.75514493661274        0.15963293850914       14.47819046173413
C           -5.43491092611598       -1.09787249760873       16.19155841039095
H            0.33171204840137        0.21156819452279       -0.57374354658270
H            1.07092556305108       -1.16582861836903       -1.38293811508033
H            2.08819541171005        0.04177822713368       -0.59739913759405
H            0.13574600939342       -1.81412737603859        0.84700000784346
H            1.86993253498812       -2.08067759237842        0.73273803059021
H            1.38993774862042       -1.11578110753567        2.88613630992277
H            2.31532161793297        0.02895775127070        1.92252187834787
H            0.59452112752505        1.19630320015677        3.15496075152659
H            0.29990269821386        1.33099026276741        1.43100617022804
H           -1.78799120829965        0.98613353992273        2.60707621394861
H           -1.46454458904929       -0.36773979365763        1.53895792918901
H           -2.37646418362799       -1.16297812412631        3.63613363771156
H           -0.74086203293632       -1.75937588718921        3.41926253184912
H           -1.08711331822865       -1.11391282942888        5.72575867384700
H            0.13977582530655       -0.09780980087327        4.99041006379405
H           -1.28468774134020        1.24218755237020        6.40748383569301
H           -1.45728722495911        1.74707740036581        4.73675073381780
H           -3.61757026831489        1.75299843828220        5.81876036835606
H           -3.59297419952050        0.55921426461857        4.53428181993442
H           -4.77738428670419       -0.31304859689088        6.45807924659691
H           -3.34054877081237       -1.26716285154195        6.14027448679792
H           -3.61799138740276       -0.95699035027183        8.52523371746034
H           -2.13542561650021       -0.19669433478390        7.97735767293829
H           -3.20935481370518        1.22360477380773        9.60521739985326
H           -3.17418741995089        2.02281595111868        8.04531577426476
H           -5.30264524201791        2.43878053831093        9.09966694935932
H           -5.53502322123303        1.48577952439633        7.64753150144479
H           -6.99014961550374        0.67777737756662        9.41121680888239
H           -5.84418637478365       -0.55885774758210        8.93496338100077
H           -6.12910634782669       -0.56417921638521       11.33991189335701
H           -4.47436542730067       -0.18469246185834       10.90435850440470
H           -5.11059621725111        1.24444845645164       12.74346117801414
H           -4.83758918633176        2.20464346007915       11.30387879796363
H           -6.76866407213678        3.10595732329604       12.37467801833268
H           -7.30256524532848        2.30899365609483       10.89881849862628
H           -8.88143107949524        1.77708321501804       12.63648966755500
H           -7.97698933682539        0.30033047671464       12.25579724208387
H           -8.39503906758524        3.00251990432970       14.53895974981788
H           -7.60795401077003        2.96760972907539       16.89204755955265
H           -6.22335858579965        1.05775378879161       17.67743180878811
H           -6.55475139115398       -0.61501099081313       13.75307445027130
H           -4.39886561968542       -0.78226609356817       16.31273539976283
H           -5.76976849419568       -1.48137722557372       17.15253322266942
H           -5.46585401488453       -1.89783413740116       15.45815619982926

          :  Hamiltonian                  GFN2-xTB          :
         :: total energy             -76.397544830567 Eh    ::
         :: gradient norm              0.000751486774 Eh/a0 ::
         :: HOMO-LUMO gap              0.218079816828 eV    ::
         :: SCC energy               -77.584126739320 Eh    ::
         :: -> dispersion             -0.059655602032 Eh    ::
         :: repulsion energy           1.186581908753 Eh    ::

    * Orbital Energies and Occupations

         #    Occupation            Energy/Eh            Energy/eV
      -------------------------------------------------------------
         1        2.0000           -0.8640294             -23.5114
       ...           ...                  ...                  ...
        60        2.0000           -0.5027356             -13.6801
        61        2.0000           -0.4985098             -13.5651
        62        2.0000           -0.4953592             -13.4794
        63        2.0000           -0.4889636             -13.3054
        64        2.0000           -0.4841624             -13.1747
        65        2.0000           -0.4814966             -13.1022
        66        2.0000           -0.4772318             -12.9861
        67        2.0000           -0.4689802             -12.7616
        68        2.0000           -0.4678151             -12.7299
        69        2.0000           -0.4653471             -12.6627
        70        2.0000           -0.4585776             -12.4785
        71        1.9932           -0.4519761             -12.2989
        72        1.9742           -0.4506959             -12.2641 (HOMO)
        73        0.0326           -0.4426816             -12.0460 (LUMO)
        74                         -0.4092127             -11.1352
        75                         -0.2928188              -7.9680
        76                         -0.1579172              -4.2971
        77                         -0.0732128              -1.9922
        78                         -0.0562776              -1.5314
        79                         -0.0424062              -1.1539
        80                         -0.0318154              -0.8657
        81                         -0.0279005              -0.7592
        82                         -0.0090926              -0.2474
        83                         -0.0034344              -0.0935
       ...                                ...                  ...
       144                          0.4513758              12.2826
      -------------------------------------------------------------
                  HL-Gap            0.0080143 Eh            0.2181 eV

     #   Z          covCN         q      C6AA      α(0)
     1   6 C        3.751    -0.102    22.510     6.766
     2   6 C        3.799    -0.052    21.509     6.603
     3   6 C        3.801    -0.057    21.598     6.617
     4   6 C        3.800    -0.057    21.594     6.616
     5   6 C        3.800    -0.056    21.587     6.615
     6   6 C        3.800    -0.056    21.589     6.615
     7   6 C        3.800    -0.056    21.589     6.616
     8   6 C        3.800    -0.057    21.593     6.616
     9   6 C        3.800    -0.057    21.602     6.617
    10   6 C        3.800    -0.057    21.604     6.618
    11   6 C        3.800    -0.057    21.605     6.618
    12   6 C        3.800    -0.058    21.625     6.621
    13   6 C        3.800    -0.060    21.661     6.626
    14   6 C        3.800    -0.061    21.677     6.629
    15   6 C        3.800    -0.061    21.667     6.627
    16   6 C        3.800    -0.065    21.752     6.640
    17   6 C        3.801    -0.068    21.810     6.649
    18   6 C        3.760    -0.033    21.216     6.567
    19   7 N        2.749     0.104    19.453     6.551
    20   6 C        2.892     0.024    27.464     8.592
    21   6 C        2.913    -0.016    28.400     8.739
    22   6 C        2.930    -0.006    28.172     8.704
    23   6 C        2.961     0.046    26.959     8.516
    24   6 C        2.897     0.017    27.622     8.617
    25   6 C        3.759    -0.132    23.089     6.850
    26   1 H        0.925     0.035     2.510     2.478
    27   1 H        0.925     0.033     2.543     2.494
    28   1 H        0.925     0.035     2.516     2.480
    29   1 H        0.924     0.032     2.552     2.498
    30   1 H        0.924     0.029     2.598     2.521
    31   1 H        0.924     0.030     2.584     2.514
    32   1 H        0.924     0.030     2.580     2.512
    33   1 H        0.924     0.030     2.593     2.518
    34   1 H        0.924     0.034     2.526     2.486
    35   1 H        0.924     0.029     2.598     2.521
    36   1 H        0.924     0.033     2.541     2.493
    37   1 H        0.924     0.028     2.613     2.528
    38   1 H        0.924     0.033     2.545     2.495
    39   1 H        0.924     0.027     2.630     2.536
    40   1 H        0.924     0.032     2.553     2.499
    41   1 H        0.924     0.026     2.644     2.543
    42   1 H        0.924     0.033     2.538     2.491
    43   1 H        0.924     0.026     2.644     2.543
    44   1 H        0.924     0.034     2.528     2.486
    45   1 H        0.924     0.026     2.650     2.546
    46   1 H        0.924     0.035     2.521     2.483
    47   1 H        0.924     0.023     2.681     2.561
    48   1 H        0.924     0.036     2.507     2.476
    49   1 H        0.924     0.023     2.696     2.568
    50   1 H        0.924     0.039     2.462     2.454
    51   1 H        0.924     0.024     2.671     2.556
    52   1 H        0.924     0.043     2.408     2.427
    53   1 H        0.924     0.025     2.665     2.553
    54   1 H        0.924     0.046     2.372     2.409
    55   1 H        0.924     0.017     2.786     2.610
    56   1 H        0.924     0.049     2.329     2.387
    57   1 H        0.924     0.022     2.702     2.570
    58   1 H        0.925     0.065     2.143     2.289
    59   1 H        0.924     0.049     2.331     2.388
    60   1 H        0.925     0.082     1.958     2.188
    61   1 H        0.924     0.085     1.933     2.174
    62   1 H        0.925     0.092     1.856     2.130
    63   1 H        0.926     0.101     1.779     2.086
    64   1 H        0.926     0.100     1.786     2.090
    65   1 H        0.926     0.097     1.812     2.105
    66   1 H        0.926     0.102     1.766     2.078
    67   1 H        0.925     0.095     1.829     2.115
    68   1 H        0.925     0.091     1.868     2.137
    69   1 H        0.925     0.076     2.017     2.221

Wiberg/Mayer (AO) data.
largest (>0.10) Wiberg bond orders for each atom

     #   Z sym  total        # sym  WBO       # sym  WBO       # sym  WBO
 ---------------------------------------------------------------------------
     1   6 C    3.994 --     2 C    1.020    27 H    0.987    28 H    0.987
                            26 H    0.985
     2   6 C    3.993 --     1 C    1.020     3 C    1.007    30 H    0.976
                            29 H    0.974
     3   6 C    3.991 --     2 C    1.007     4 C    1.005    32 H    0.976
                            31 H    0.973
     4   6 C    3.990 --     5 C    1.007     3 C    1.005    33 H    0.974
                            34 H    0.973
     5   6 C    3.992 --     4 C    1.007     6 C    1.006    36 H    0.973
                            35 H    0.973
     6   6 C    3.992 --     7 C    1.007     5 C    1.006    37 H    0.974
                            38 H    0.973
     7   6 C    3.995 --     6 C    1.007     8 C    1.007    40 H    0.974
                            39 H    0.974
     8   6 C    3.995 --     9 C    1.008     7 C    1.007    41 H    0.975
                            42 H    0.974
     9   6 C    3.997 --     8 C    1.008    10 C    1.007    43 H    0.975
                            44 H    0.974
    10   6 C    3.997 --    11 C    1.008     9 C    1.007    45 H    0.975
                            46 H    0.974
    11   6 C    3.997 --    10 C    1.008    12 C    1.008    47 H    0.975
                            48 H    0.974
    12   6 C    3.997 --    13 C    1.008    11 C    1.008    49 H    0.975
                            50 H    0.974
    13   6 C    3.996 --    12 C    1.008    14 C    1.008    51 H    0.975
                            52 H    0.973
    14   6 C    3.995 --    13 C    1.008    15 C    1.007    53 H    0.975
                            54 H    0.973
    15   6 C    3.995 --    16 C    1.007    14 C    1.007    56 H    0.973
                            55 H    0.973
    16   6 C    3.993 --    17 C    1.009    15 C    1.007    57 H    0.972
                            58 H    0.966
    17   6 C    3.981 --    16 C    1.009    59 H    0.974    18 C    0.974
                            60 H    0.961
    18   6 C    3.936 --    17 C    0.974    19 N    0.966    61 H    0.963
                            62 H    0.960
    19   7 N    3.746 --    20 C    1.318    24 C    1.317    18 C    0.966
    20   6 C    3.950 --    21 C    1.455    19 N    1.318    63 H    0.956
    21   6 C    3.981 --    20 C    1.455    22 C    1.434    64 H    0.960
    22   6 C    3.957 --    21 C    1.434    23 C    1.373    65 H    0.962
    23   6 C    3.980 --    24 C    1.416    22 C    1.373    25 C    1.044
    24   6 C    3.946 --    23 C    1.416    19 N    1.317    66 H    0.952
    25   6 C    3.983 --    23 C    1.044    69 H    0.979    68 H    0.961
                            67 H    0.947
    26   1 H    0.997 --     1 C    0.985
    27   1 H    0.999 --     1 C    0.987
    28   1 H    0.998 --     1 C    0.987
    29   1 H    0.997 --     2 C    0.974
    30   1 H    0.996 --     2 C    0.976
    31   1 H    0.997 --     3 C    0.973
    32   1 H    0.998 --     3 C    0.976
    33   1 H    0.998 --     4 C    0.974
    34   1 H    0.996 --     4 C    0.973
    35   1 H    0.997 --     5 C    0.973
    36   1 H    0.998 --     5 C    0.973
    37   1 H    0.998 --     6 C    0.974
    38   1 H    0.997 --     6 C    0.973
    39   1 H    0.998 --     7 C    0.974
    40   1 H    0.998 --     7 C    0.974
    41   1 H    0.999 --     8 C    0.975
    42   1 H    0.998 --     8 C    0.974
    43   1 H    0.999 --     9 C    0.975
    44   1 H    0.999 --     9 C    0.974
    45   1 H    0.999 --    10 C    0.975
    46   1 H    0.999 --    10 C    0.974
    47   1 H    0.999 --    11 C    0.975
    48   1 H    0.999 --    11 C    0.974
    49   1 H    0.999 --    12 C    0.975
    50   1 H    0.998 --    12 C    0.974
    51   1 H    0.999 --    13 C    0.975
    52   1 H    0.998 --    13 C    0.973
    53   1 H    0.999 --    14 C    0.975
    54   1 H    0.998 --    14 C    0.973
    55   1 H    1.000 --    15 C    0.973
    56   1 H    0.998 --    15 C    0.973
    57   1 H    0.999 --    16 C    0.972
    58   1 H    0.995 --    16 C    0.966
    59   1 H    0.998 --    17 C    0.974
    60   1 H    0.991 --    17 C    0.961
    61   1 H    0.992 --    18 C    0.963
    62   1 H    0.991 --    18 C    0.960
    63   1 H    0.989 --    20 C    0.956
    64   1 H    0.989 --    21 C    0.960
    65   1 H    0.991 --    22 C    0.962
    66   1 H    0.990 --    24 C    0.952
    67   1 H    0.991 --    25 C    0.947
    68   1 H    0.991 --    25 C    0.961
    69   1 H    0.994 --    25 C    0.979
 ---------------------------------------------------------------------------

molecular dipole:
                 x           y           z       tot (Debye)
 q only:      -12.477       1.786      26.229
   full:      -12.592       1.839      26.311      74.288

           -------------------------------------------------
          | TOTAL ENERGY              -76.397544830567 Eh   |
          | GRADIENT NORM               0.000751486774 Eh/α |
          | HOMO-LUMO GAP               0.218079816828 eV   |
           -------------------------------------------------

 * finished run on 2024/12/20 at 06:54:29.741
