   * xtb version 6.7.1 (edcfbbe) compiled by 'conda@3ef47c1a292c' on 2024-11-25

   ID    Z sym.   atoms
    1    6 C      1, 2, 4, 5, 7, 8
    2    7 N      3, 6
    3    1 H      9-19

          program call               : xtb C0720.xyz --opt --namespace C0720 --charge +1
          :  Hamiltonian                  GFN2-xTB          :
 * total energy  :   -23.9253311 Eh     change       -0.3359446E-10 Eh
 * total energy  :   -23.9284328 Eh     change       -0.3101675E-02 Eh
 * total energy  :   -23.9290344 Eh     change       -0.6015778E-03 Eh
 * total energy  :   -23.9291269 Eh     change       -0.9251768E-04 Eh
 * total energy  :   -23.9291628 Eh     change       -0.3593305E-04 Eh
 * total energy  :   -23.9291679 Eh     change       -0.5084773E-05 Eh
 * total energy  :   -23.9291746 Eh     change       -0.6700174E-05 Eh
 * total energy  :   -23.9291916 Eh     change       -0.1700968E-04 Eh
 * total energy  :   -23.9292136 Eh     change       -0.2204151E-04 Eh
 * total energy  :   -23.9292321 Eh     change       -0.1845778E-04 Eh
 * total energy  :   -23.9301412 Eh     change       -0.2151957E-04 Eh
 * total energy  :   -23.9301944 Eh     change       -0.5320208E-04 Eh
 * total energy  :   -23.9302558 Eh     change       -0.6135610E-04 Eh
 * total energy  :   -23.9302784 Eh     change       -0.2258691E-04 Eh
 * total energy  :   -23.9303033 Eh     change       -0.2493214E-04 Eh
 * total energy  :   -23.9303095 Eh     change       -0.6200043E-05 Eh
 * total energy  :   -23.9303196 Eh     change       -0.1014254E-04 Eh
 * total energy  :   -23.9303257 Eh     change       -0.6097490E-05 Eh
 * total energy  :   -23.9303278 Eh     change       -0.2083177E-05 Eh
   *** GEOMETRY OPTIMIZATION CONVERGED AFTER 32 ITERATIONS ***

 final structure:
================
19
 xtb: 6.7.1 (edcfbbe)
C            0.89314652672140       -0.07741330016833       -0.12062654429469
C            0.47317449880678        1.27613605600636        0.42433268540899
N            0.89528851140578        2.38479875658273       -0.41510174877582
C            1.60723361185247        2.31775024075499       -1.58081366945261
C            1.77982100453983        3.58845640186756       -2.02776294271381
N            1.16847829563229        4.40811370604422       -1.12378259959883
C            0.63381552244291        3.66751203594298       -0.14729677535301
C           -0.11193835475831        4.17432221978943        1.01799243166500
H            0.45371279844617       -0.26499466118399       -1.09682713684636
H            0.53985481556543       -0.84884404357860        0.55768490542240
H            1.97481202979919       -0.16050495789116       -0.18538886786074
H           -0.61678322386040        1.31752006277575        0.51599488200818
H            0.90124148584829        1.42423525842602        1.42089632785713
H            1.93815016139194        1.39583505221453       -2.00942941874801
H            2.28010572130190        3.95523248855438       -2.89966487098785
H            1.12717986275102        5.41601302902083       -1.18367845121081
H           -0.17294764195800        5.25888263985069        0.99238216304006
H           -1.12439158690148        3.76884425513256        1.03396151517102
H            0.37403596097277        3.87441475985902        1.94708811526971

          :  Hamiltonian                  GFN2-xTB          :
         :: total energy             -23.930327821069 Eh    ::
         :: gradient norm              0.000469076371 Eh/a0 ::
         :: HOMO-LUMO gap              4.682310005538 eV    ::
         :: SCC energy               -24.304748620493 Eh    ::
         :: -> dispersion             -0.012028778434 Eh    ::
         :: repulsion energy           0.374420799424 Eh    ::

    * Orbital Energies and Occupations

         #    Occupation            Energy/Eh            Energy/eV
      -------------------------------------------------------------
         1        2.0000           -0.8999163             -24.4880
       ...           ...                  ...                  ...
        10        2.0000           -0.7264835             -19.7686
        11        2.0000           -0.7033555             -19.1393
        12        2.0000           -0.6884299             -18.7331
        13        2.0000           -0.6770544             -18.4236
        14        2.0000           -0.6724967             -18.2996
        15        2.0000           -0.6576746             -17.8962
        16        2.0000           -0.6564913             -17.8640
        17        2.0000           -0.6432703             -17.5043
        18        2.0000           -0.6327590             -17.2182
        19        2.0000           -0.6271362             -17.0652
        20        2.0000           -0.6042607             -16.4428
        21        2.0000           -0.5938742             -16.1601
        22        2.0000           -0.5781412             -15.7320 (HOMO)
        23                         -0.4060695             -11.0497 (LUMO)
        24                         -0.3711852             -10.1005
        25                         -0.1923051              -5.2329
        26                         -0.1337003              -3.6382
        27                         -0.0697178              -1.8971
        28                         -0.0589720              -1.6047
        29                         -0.0399959              -1.0883
        30                         -0.0325123              -0.8847
        31                         -0.0031826              -0.0866
        32                          0.0003036               0.0083
        33                          0.0223845               0.6091
       ...                                ...                  ...
        43                          0.4690529              12.7636
      -------------------------------------------------------------
                  HL-Gap            0.1720717 Eh            4.6823 eV

     #   Z          covCN         q      C6AA      α(0)
     1   6 C        3.752    -0.127    23.008     6.840
     2   6 C        3.740    -0.019    20.999     6.538
     3   7 N        2.873     0.050    20.373     6.704
     4   6 C        3.054    -0.005    28.089     8.692
     5   6 C        3.032     0.003    27.933     8.669
     6   7 N        2.836    -0.039    21.988     6.964
     7   6 C        3.089     0.119    25.298     8.244
     8   6 C        3.754    -0.142    23.301     6.883
     9   1 H        0.925     0.069     2.092     2.262
    10   1 H        0.925     0.085     1.929     2.172
    11   1 H        0.925     0.069     2.092     2.262
    12   1 H        0.924     0.087     1.906     2.159
    13   1 H        0.924     0.087     1.906     2.159
    14   1 H        0.927     0.115     1.652     2.010
    15   1 H        0.927     0.111     1.688     2.031
    16   1 H        0.860     0.223     0.995     1.562
    17   1 H        0.925     0.099     1.796     2.096
    18   1 H        0.924     0.108     1.716     2.049
    19   1 H        0.924     0.108     1.717     2.049

Wiberg/Mayer (AO) data.
largest (>0.10) Wiberg bond orders for each atom

     #   Z sym  total        # sym  WBO       # sym  WBO       # sym  WBO
 ---------------------------------------------------------------------------
     1   6 C    3.980 --     2 C    1.021     9 H    0.982    11 H    0.982
                            10 H    0.975
     2   6 C    3.942 --     1 C    1.021     3 N    0.963    12 H    0.955
                            13 H    0.955
     3   7 N    3.701 --     7 C    1.346     4 C    1.210     2 C    0.963
     4   6 C    3.948 --     5 C    1.615     3 N    1.210    14 H    0.957
     5   6 C    3.945 --     4 C    1.615     6 N    1.216    15 H    0.961
     6   7 N    3.643 --     7 C    1.327     5 C    1.216    16 H    0.923
     7   6 C    3.952 --     3 N    1.346     6 N    1.327     8 C    1.051
     8   6 C    3.975 --     7 C    1.051    17 H    0.973    19 H    0.947
                            18 H    0.946
     9   1 H    0.995 --     1 C    0.982
    10   1 H    0.992 --     1 C    0.975
    11   1 H    0.995 --     1 C    0.982
    12   1 H    0.992 --     2 C    0.955
    13   1 H    0.992 --     2 C    0.955
    14   1 H    0.986 --     4 C    0.957
    15   1 H    0.988 --     5 C    0.961
    16   1 H    0.950 --     6 N    0.923
    17   1 H    0.990 --     8 C    0.973
    18   1 H    0.988 --     8 C    0.946
    19   1 H    0.988 --     8 C    0.947
 ---------------------------------------------------------------------------

molecular dipole:
                 x           y           z       tot (Debye)
 q only:        1.575       5.784      -0.759
   full:        1.569       6.023      -0.777      15.942

           -------------------------------------------------
          | TOTAL ENERGY              -23.930327821069 Eh   |
          | GRADIENT NORM               0.000469076371 Eh/α |
          | HOMO-LUMO GAP               4.682310005538 eV   |
           -------------------------------------------------

 * finished run on 2024/12/20 at 06:54:19.914
