   * xtb version 6.7.1 (edcfbbe) compiled by 'conda@3ef47c1a292c' on 2024-11-25

   ID    Z sym.   atoms
    1    6 C      1-3, 5, 6, 8-11
    2    7 N      4, 7
    3    1 H      12-26

          program call               : xtb C0726.xyz --opt --namespace C0726 --charge +1
          :  Hamiltonian                  GFN2-xTB          :
 * total energy  :   -32.3607573 Eh     change       -0.6934400E-09 Eh
 * total energy  :   -32.3645822 Eh     change       -0.3824904E-02 Eh
 * total energy  :   -32.3652791 Eh     change       -0.6969272E-03 Eh
 * total energy  :   -32.3654175 Eh     change       -0.1383441E-03 Eh
 * total energy  :   -32.3655030 Eh     change       -0.8553535E-04 Eh
 * total energy  :   -32.3655359 Eh     change       -0.3286231E-04 Eh
 * total energy  :   -32.3656025 Eh     change       -0.6668781E-04 Eh
 * total energy  :   -32.3656702 Eh     change       -0.6765464E-04 Eh
 * total energy  :   -32.3658256 Eh     change       -0.1554087E-03 Eh
 * total energy  :   -32.3659812 Eh     change       -0.1555665E-03 Eh
 * total energy  :   -32.3688990 Eh     change       -0.3025672E-04 Eh
 * total energy  :   -32.3689245 Eh     change       -0.2544123E-04 Eh
 * total energy  :   -32.3689391 Eh     change       -0.1459903E-04 Eh
 * total energy  :   -32.3689466 Eh     change       -0.7559276E-05 Eh
 * total energy  :   -32.3689565 Eh     change       -0.9877516E-05 Eh
 * total energy  :   -32.3689641 Eh     change       -0.7583258E-05 Eh
 * total energy  :   -32.3689717 Eh     change       -0.7596943E-05 Eh
 * total energy  :   -32.3689766 Eh     change       -0.4927944E-05 Eh
 * total energy  :   -32.3689786 Eh     change       -0.2044566E-05 Eh
   *** GEOMETRY OPTIMIZATION CONVERGED AFTER 61 ITERATIONS ***

 final structure:
================
26
 xtb: 6.7.1 (edcfbbe)
C            2.01183735743853       -0.93179973033625       -0.62888122942442
C            0.49776087485480       -0.92184014309856       -0.79112222837763
C           -0.16254893734572       -2.20063001484864       -0.25976812130496
N            0.01440375747333       -2.32777868599225        1.16910259179643
C            0.99990728261238       -3.02629929620530        1.79484921878755
C            0.84557752047711       -2.83492068430755        3.13517946305080
N           -0.23281197425564       -2.02233318831036        3.30565210203603
C           -0.71458161213239       -1.72207431765512        2.10295926414626
C           -0.71013131742461       -1.50766133021578        4.57258417558860
C            0.07426767643922       -0.28461022390944        4.97434303122515
C           -0.48314528644217        0.86965891787068        5.28286094703506
H            2.30253652933646       -0.96350619271743        0.41931796962944
H            2.43301899633943       -0.03028223434446       -1.06403721232683
H            2.44882391798170       -1.78618184673977       -1.13966352932304
H            0.07393161730829       -0.05526759519885       -0.28011033177097
H            0.24770320219498       -0.83956442518784       -1.84852619258999
H           -1.23245386478481       -2.18635628969740       -0.47814220122837
H            0.28490791016245       -3.07444414463985       -0.73655555394961
H            1.72501522495998       -3.60683158552324        1.26185647929481
H            1.41453943284343       -3.21993692352908        3.95686569993156
H           -1.56692782705742       -1.09802988787095        1.91619680811679
H           -1.77062402802971       -1.26576000563162        4.48233428230650
H           -0.58621045626926       -2.29099468314384        5.32633462432722
H            1.14594633267220       -0.41845792095904        5.01239892503079
H            0.10757932590342        1.71405935488197        5.59021886856219
H           -1.54976165525549        1.01579307730777        5.26120214943365

          :  Hamiltonian                  GFN2-xTB          :
         :: total energy             -32.368978644420 Eh    ::
         :: gradient norm              0.000920168302 Eh/a0 ::
         :: HOMO-LUMO gap              3.891157644149 eV    ::
         :: SCC energy               -32.891605855193 Eh    ::
         :: -> dispersion             -0.018733267114 Eh    ::
         :: repulsion energy           0.522627210773 Eh    ::

    * Orbital Energies and Occupations

         #    Occupation            Energy/Eh            Energy/eV
      -------------------------------------------------------------
         1        2.0000           -0.8949371             -24.3525
       ...           ...                  ...                  ...
        18        2.0000           -0.6596678             -17.9505
        19        2.0000           -0.6494909             -17.6735
        20        2.0000           -0.6429358             -17.4952
        21        2.0000           -0.6317823             -17.1917
        22        2.0000           -0.6204464             -16.8832
        23        2.0000           -0.6135241             -16.6948
        24        2.0000           -0.5981843             -16.2774
        25        2.0000           -0.5898520             -16.0507
        26        2.0000           -0.5862134             -15.9517
        27        2.0000           -0.5723310             -15.5739
        28        2.0000           -0.5683546             -15.4657
        29        2.0000           -0.5671213             -15.4322
        30        2.0000           -0.5496522             -14.9568 (HOMO)
        31                         -0.4066548             -11.0656 (LUMO)
        32                         -0.3701238             -10.0716
        33                         -0.3465080              -9.4290
        34                         -0.1804499              -4.9103
        35                         -0.1279246              -3.4810
        36                         -0.0623312              -1.6961
        37                         -0.0480850              -1.3085
        38                         -0.0478196              -1.3012
        39                         -0.0344120              -0.9364
        40                         -0.0243146              -0.6616
        41                         -0.0175755              -0.4783
       ...                                ...                  ...
        59                          0.4862724              13.2321
      -------------------------------------------------------------
                  HL-Gap            0.1429974 Eh            3.8912 eV

     #   Z          covCN         q      C6AA      α(0)
     1   6 C        3.752    -0.117    22.799     6.809
     2   6 C        3.801    -0.065    21.753     6.640
     3   6 C        3.742    -0.029    21.166     6.564
     4   7 N        2.869     0.071    20.002     6.642
     5   6 C        3.074    -0.005    28.076     8.688
     6   6 C        3.073    -0.007    28.112     8.693
     7   7 N        2.871     0.068    20.060     6.652
     8   6 C        3.101     0.046    26.839     8.490
     9   6 C        3.746    -0.026    21.112     6.554
    10   6 C        2.887    -0.041    29.018     8.832
    11   6 C        2.837    -0.078    29.949     8.968
    12   1 H        0.925     0.037     2.495     2.470
    13   1 H        0.925     0.067     2.118     2.276
    14   1 H        0.925     0.054     2.270     2.356
    15   1 H        0.924     0.053     2.286     2.364
    16   1 H        0.925     0.076     2.018     2.221
    17   1 H        0.924     0.083     1.948     2.183
    18   1 H        0.924     0.093     1.849     2.127
    19   1 H        0.926     0.109     1.702     2.040
    20   1 H        0.926     0.107     1.718     2.050
    21   1 H        0.926     0.111     1.690     2.033
    22   1 H        0.924     0.089     1.888     2.149
    23   1 H        0.924     0.097     1.817     2.108
    24   1 H        0.926     0.059     2.206     2.323
    25   1 H        0.926     0.081     1.967     2.193
    26   1 H        0.926     0.068     2.113     2.273

Wiberg/Mayer (AO) data.
largest (>0.10) Wiberg bond orders for each atom

     #   Z sym  total        # sym  WBO       # sym  WBO       # sym  WBO
 ---------------------------------------------------------------------------
     1   6 C    3.991 --     2 C    1.022    12 H    0.986    14 H    0.985
                            13 H    0.982
     2   6 C    3.985 --     1 C    1.022     3 C    0.982    15 H    0.975
                            16 H    0.968
     3   6 C    3.936 --     2 C    0.982     4 N    0.968    18 H    0.964
                            17 H    0.964
     4   7 N    3.720 --     8 C    1.361     5 C    1.232     3 C    0.968
     5   6 C    3.949 --     6 C    1.585     4 N    1.232    19 H    0.960
     6   6 C    3.949 --     5 C    1.585     7 N    1.231    20 H    0.961
     7   7 N    3.718 --     8 C    1.362     6 C    1.231     9 C    0.961
     8   6 C    3.948 --     7 N    1.362     4 N    1.361    21 H    0.955
     9   6 C    3.937 --    10 C    0.992    22 H    0.963     7 N    0.961
                            23 H    0.951
    10   6 C    3.980 --    11 C    1.989     9 C    0.992    24 H    0.963
    11   6 C    3.983 --    10 C    1.989    26 H    0.971    25 H    0.969
    12   1 H    0.999 --     1 C    0.986
    13   1 H    0.995 --     1 C    0.982
    14   1 H    0.997 --     1 C    0.985
    15   1 H    0.997 --     2 C    0.975
    16   1 H    0.993 --     2 C    0.968
    17   1 H    0.993 --     3 C    0.964
    18   1 H    0.991 --     3 C    0.964
    19   1 H    0.988 --     5 C    0.960
    20   1 H    0.988 --     6 C    0.961
    21   1 H    0.988 --     8 C    0.955
    22   1 H    0.992 --     9 C    0.963
    23   1 H    0.990 --     9 C    0.951
    24   1 H    0.996 --    10 C    0.963
    25   1 H    0.993 --    11 C    0.969
    26   1 H    0.995 --    11 C    0.971
 ---------------------------------------------------------------------------

molecular dipole:
                 x           y           z       tot (Debye)
 q only:       -0.031      -3.425       4.121
   full:       -0.153      -3.509       4.145      13.810

           -------------------------------------------------
          | TOTAL ENERGY              -32.368978644420 Eh   |
          | GRADIENT NORM               0.000920168302 Eh/α |
          | HOMO-LUMO GAP               3.891157644149 eV   |
           -------------------------------------------------

 * finished run on 2024/12/20 at 06:54:31.723
