   * xtb version 6.7.1 (edcfbbe) compiled by 'conda@3ef47c1a292c' on 2024-11-25

   ID    Z sym.   atoms
    1    8 O      1
    2    6 C      2-6, 8, 10, 12-24
    3   16 S      7
    4    7 N      9, 11
    5    1 H      25-41

          program call               : xtb C0729.xyz --opt --namespace C0729 --charge +1
          :  Hamiltonian                  GFN2-xTB          :
 * total energy  :   -64.2577930 Eh     change       -0.1306319E-08 Eh
 * total energy  :   -64.2661515 Eh     change       -0.8358545E-02 Eh
 * total energy  :   -64.2680293 Eh     change       -0.1877790E-02 Eh
 * total energy  :   -64.2685520 Eh     change       -0.5227218E-03 Eh
 * total energy  :   -64.2690319 Eh     change       -0.4799168E-03 Eh
 * total energy  :   -64.2692594 Eh     change       -0.2274609E-03 Eh
 * total energy  :   -64.2694640 Eh     change       -0.2046118E-03 Eh
 * total energy  :   -64.2696171 Eh     change       -0.1530940E-03 Eh
 * total energy  :   -64.2697209 Eh     change       -0.1038012E-03 Eh
 * total energy  :   -64.2698001 Eh     change       -0.7915276E-04 Eh
 * total energy  :   -64.2732671 Eh     change       -0.5060235E-05 Eh
 * total energy  :   -64.2732787 Eh     change       -0.1153005E-04 Eh
 * total energy  :   -64.2732915 Eh     change       -0.1284893E-04 Eh
 * total energy  :   -64.2733072 Eh     change       -0.1572677E-04 Eh
 * total energy  :   -64.2733266 Eh     change       -0.1934959E-04 Eh
 * total energy  :   -64.2733429 Eh     change       -0.1631014E-04 Eh
 * total energy  :   -64.2733523 Eh     change       -0.9375151E-05 Eh
 * total energy  :   -64.2733583 Eh     change       -0.6028052E-05 Eh
 * total energy  :   -64.2733632 Eh     change       -0.4864868E-05 Eh
   *** GEOMETRY OPTIMIZATION CONVERGED AFTER 80 ITERATIONS ***

 final structure:
================
41
 xtb: 6.7.1 (edcfbbe)
O            1.54334408438789       -0.27241520359482       -1.15143012666954
C            2.48938692224171       -0.44847339796934       -0.41366365490698
C            2.48144800105473       -0.22114472965116        1.00151984576251
C            1.40722163694020        0.23777166418326        1.74159400696760
C            1.70400340296620        0.37347505994924        3.10063142083142
C            2.99237375097961        0.02240106892746        3.39423654319704
S            3.86859267780167       -0.48245586361189        2.02366967693753
C            3.83705640154295       -0.93087260489447       -1.01862314606283
N            3.57910000820968       -1.39634110062612       -2.34747360041353
C            2.98667482703778       -0.65136366123190       -3.28038244923898
N            2.63270918781780       -1.38390536467296       -4.32922755160264
C            2.97227943519760       -2.69386803690644       -4.06349673188425
C            3.57215093974739       -2.70520969013415       -2.78882268921715
C            4.03186622362906       -3.88506346034486       -2.21802175310140
C            3.87300892463628       -5.04095290881168       -2.95432435151060
C            3.28039102498668       -5.03079817870121       -4.21987887296158
C            2.82152101490178       -3.86522618761626       -4.79686473120545
C            1.89076563031420       -0.89043212640165       -5.47086504529103
C            0.46544301598288       -0.57697054843477       -5.07055891164662
C           -0.06066184766329        0.69041879006565       -5.27176620212754
C           -1.36184605996994        0.97086389957224       -4.89134136547450
C           -2.13750377609305       -0.00883389501076       -4.29628066479134
C           -1.61376029213713       -1.27404051181358       -4.08911676081414
C           -0.31761068955052       -1.55942072303019       -4.47718925567432
H            0.45528826020773        0.45974946616989        1.29414231234129
H            1.00271446607901        0.71563166555811        3.83920178836841
H            3.47575545885935        0.03462044842723        4.35193837898072
H            4.52589291015736       -0.08073661286945       -1.02997787308792
H            4.27199957353155       -1.73045265813490       -0.42024544067226
H            2.83766752440887        0.40909168542454       -3.21098644266798
H            4.49344825379457       -3.90540948250485       -1.24428280346972
H            4.21416441077321       -5.97811765231455       -2.54485575796740
H            3.17976343300987       -5.96027729555774       -4.75699873965159
H            2.36461761546372       -3.87002899561356       -5.77305423975084
H            2.38122431364092        0.00821046844955       -5.85308283907045
H            1.91540306360912       -1.65795060486051       -6.24726020538707
H            0.54185704080370        1.45792305229582       -5.73563599735965
H           -1.76654345478099        1.95714435441627       -5.05733381315255
H           -3.14952338789035        0.21210165305054       -3.99514617690140
H           -2.21553083812934       -2.04136712238730       -3.62721417150252
H            0.08476691147837       -2.55023465875127       -4.31797160810552

          :  Hamiltonian                  GFN2-xTB          :
         :: total energy             -64.273363169242 Eh    ::
         :: gradient norm              0.000357252214 Eh/a0 ::
         :: HOMO-LUMO gap              2.410120749768 eV    ::
         :: SCC energy               -65.328212256055 Eh    ::
         :: -> dispersion             -0.046873697145 Eh    ::
         :: repulsion energy           1.054849086813 Eh    ::

    * Orbital Energies and Occupations

         #    Occupation            Energy/Eh            Energy/eV
      -------------------------------------------------------------
         1        2.0000           -0.8650859             -23.5402
       ...           ...                  ...                  ...
        47        2.0000           -0.5728730             -15.5887
        48        2.0000           -0.5715594             -15.5529
        49        2.0000           -0.5695815             -15.4991
        50        2.0000           -0.5644139             -15.3585
        51        2.0000           -0.5451750             -14.8350
        52        2.0000           -0.5400241             -14.6948
        53        2.0000           -0.5305043             -14.4358
        54        2.0000           -0.5222617             -14.2115
        55        2.0000           -0.5209175             -14.1749
        56        2.0000           -0.5189544             -14.1215
        57        2.0000           -0.5188188             -14.1178
        58        2.0000           -0.5022879             -13.6679
        59        2.0000           -0.5012519             -13.6398 (HOMO)
        60                         -0.4126816             -11.2296 (LUMO)
        61                         -0.4005237             -10.8988
        62                         -0.3539759              -9.6322
        63                         -0.3457280              -9.4077
        64                         -0.3312204              -9.0130
        65                         -0.3253858              -8.8542
        66                         -0.3229177              -8.7870
        67                         -0.3202646              -8.7148
        68                         -0.2776961              -7.5565
        69                         -0.2379662              -6.4754
        70                         -0.2286399              -6.2216
       ...                                ...                  ...
       118                          0.5710443              15.5389
      -------------------------------------------------------------
                  HL-Gap            0.0885703 Eh            2.4101 eV

     #   Z          covCN         q      C6AA      α(0)
     1   8 O        0.858    -0.365    20.988     6.142
     2   6 C        2.839     0.224    23.294     7.909
     3   6 C        2.991    -0.020    28.495     8.756
     4   6 C        3.102    -0.014    28.226     8.706
     5   6 C        3.107    -0.032    28.661     8.772
     6   6 C        2.944    -0.001    28.044     8.685
     7  16 S        2.305     0.041   139.379    19.870
     8   6 C        3.746    -0.046    21.467     6.609
     9   7 N        2.830     0.038    20.570     6.736
    10   6 C        3.073     0.080    26.146     8.384
    11   7 N        2.828     0.037    20.603     6.741
    12   6 C        3.119     0.043    26.864     8.489
    13   6 C        3.114     0.039    26.966     8.506
    14   6 C        2.909    -0.033    28.826     8.804
    15   6 C        2.925    -0.019    28.485     8.752
    16   6 C        2.925    -0.019    28.493     8.754
    17   6 C        2.909    -0.031    28.779     8.797
    18   6 C        3.748    -0.022    21.026     6.540
    19   6 C        2.973    -0.000    28.030     8.684
    20   6 C        2.923    -0.034    28.856     8.809
    21   6 C        2.920    -0.021    28.539     8.760
    22   6 C        2.920    -0.021    28.526     8.759
    23   6 C        2.920    -0.021    28.542     8.761
    24   6 C        2.923    -0.034    28.835     8.806
    25   1 H        0.926     0.083     1.946     2.181
    26   1 H        0.926     0.076     2.022     2.224
    27   1 H        0.926     0.080     1.975     2.197
    28   1 H        0.924     0.098     1.807     2.102
    29   1 H        0.925     0.100     1.781     2.087
    30   1 H        0.926     0.113     1.669     2.020
    31   1 H        0.926     0.064     2.151     2.294
    32   1 H        0.926     0.077     2.010     2.217
    33   1 H        0.926     0.078     2.003     2.213
    34   1 H        0.926     0.070     2.089     2.260
    35   1 H        0.924     0.078     2.001     2.212
    36   1 H        0.924     0.085     1.924     2.169
    37   1 H        0.926     0.040     2.445     2.445
    38   1 H        0.926     0.054     2.271     2.357
    39   1 H        0.926     0.054     2.265     2.354
    40   1 H        0.926     0.050     2.320     2.382
    41   1 H        0.926     0.030     2.586     2.515

Wiberg/Mayer (AO) data.
largest (>0.10) Wiberg bond orders for each atom

     #   Z sym  total        # sym  WBO       # sym  WBO       # sym  WBO
 ---------------------------------------------------------------------------
     1   8 O    2.101 --     2 C    1.761
     2   6 C    3.945 --     1 O    1.761     3 C    1.145     8 C    0.923
     3   6 C    3.941 --     4 C    1.451     2 C    1.145     7 S    1.129
     4   6 C    3.984 --     3 C    1.451     5 C    1.351    25 H    0.958
                             7 S    0.118
     5   6 C    3.986 --     6 C    1.554     4 C    1.351    26 H    0.960
     6   6 C    3.958 --     5 C    1.554     7 S    1.259    27 H    0.966
     7  16 S    2.685 --     6 C    1.259     3 C    1.129     4 C    0.118
     8   6 C    3.952 --     9 N    0.998    29 H    0.955    28 H    0.943
                             2 C    0.923
     9   7 N    3.670 --    10 C    1.345    13 C    1.118     8 C    0.998
    10   6 C    3.951 --    11 N    1.373     9 N    1.345    30 H    0.953
    11   7 N    3.681 --    10 C    1.373    12 C    1.128    18 C    0.961
    12   6 C    3.954 --    17 C    1.339    13 C    1.273    11 N    1.128
    13   6 C    3.951 --    14 C    1.344    12 C    1.273     9 N    1.118
    14   6 C    3.987 --    15 C    1.491    13 C    1.344    31 H    0.963
                            17 C    0.118
    15   6 C    3.984 --    14 C    1.491    16 C    1.379    32 H    0.967
    16   6 C    3.985 --    17 C    1.494    15 C    1.379    33 H    0.966
    17   6 C    3.986 --    16 C    1.494    12 C    1.339    34 H    0.962
                            14 C    0.118
    18   6 C    3.939 --    19 C    0.980    35 H    0.962    11 N    0.961
                            36 H    0.958
    19   6 C    3.977 --    20 C    1.419    24 C    1.412    18 C    0.980
                            22 C    0.109
    20   6 C    3.990 --    21 C    1.438    19 C    1.419    37 H    0.968
                            23 C    0.110
    21   6 C    3.990 --    22 C    1.443    20 C    1.438    38 H    0.969
                            24 C    0.112
    22   6 C    3.990 --    21 C    1.443    23 C    1.436    39 H    0.969
                            19 C    0.109
    23   6 C    3.991 --    24 C    1.447    22 C    1.436    40 H    0.970
                            20 C    0.110
    24   6 C    3.992 --    23 C    1.447    19 C    1.412    41 H    0.969
                            21 C    0.112
    25   1 H    0.993 --     4 C    0.958
    26   1 H    0.994 --     5 C    0.960
    27   1 H    0.993 --     6 C    0.966
    28   1 H    0.989 --     8 C    0.943
    29   1 H    0.989 --     8 C    0.955
    30   1 H    0.986 --    10 C    0.953
    31   1 H    0.995 --    14 C    0.963
    32   1 H    0.994 --    15 C    0.967
    33   1 H    0.994 --    16 C    0.966
    34   1 H    0.995 --    17 C    0.962
    35   1 H    0.993 --    18 C    0.962
    36   1 H    0.992 --    18 C    0.958
    37   1 H    0.998 --    20 C    0.968
    38   1 H    0.996 --    21 C    0.969
    39   1 H    0.996 --    22 C    0.969
    40   1 H    0.997 --    23 C    0.970
    41   1 H    0.999 --    24 C    0.969
 ---------------------------------------------------------------------------

molecular dipole:
                 x           y           z       tot (Debye)
 q only:        5.517      -2.829      -4.189
   full:        5.526      -2.583      -3.940      18.457

           -------------------------------------------------
          | TOTAL ENERGY              -64.273363169242 Eh   |
          | GRADIENT NORM               0.000357252214 Eh/α |
          | HOMO-LUMO GAP               2.410120749768 eV   |
           -------------------------------------------------

 * finished run on 2024/12/20 at 06:54:43.184
