   * xtb version 6.7.1 (edcfbbe) compiled by 'conda@3ef47c1a292c' on 2024-11-25

   ID    Z sym.   atoms
    1    6 C      1, 3, 4, 6-17
    2    7 N      2, 5
    3    1 H      18-32

          program call               : xtb C0723.xyz --opt --namespace C0723 --charge +1
          :  Hamiltonian                  GFN2-xTB          :
 * total energy  :   -45.2343688 Eh     change       -0.4881571E-09 Eh
 * total energy  :   -45.2401250 Eh     change       -0.5756198E-02 Eh
 * total energy  :   -45.2412429 Eh     change       -0.1117908E-02 Eh
 * total energy  :   -45.2413882 Eh     change       -0.1452559E-03 Eh
 * total energy  :   -45.2414567 Eh     change       -0.6853119E-04 Eh
 * total energy  :   -45.2414715 Eh     change       -0.1484277E-04 Eh
 * total energy  :   -45.2414944 Eh     change       -0.2289728E-04 Eh
 * total energy  :   -45.2415207 Eh     change       -0.2625412E-04 Eh
 * total energy  :   -45.2415484 Eh     change       -0.2771510E-04 Eh
 * total energy  :   -45.2415743 Eh     change       -0.2592876E-04 Eh
 * total energy  :   -45.2419877 Eh     change       -0.2532695E-04 Eh
 * total energy  :   -45.2420215 Eh     change       -0.3387053E-04 Eh
 * total energy  :   -45.2420478 Eh     change       -0.2624757E-04 Eh
 * total energy  :   -45.2420888 Eh     change       -0.4097009E-04 Eh
 * total energy  :   -45.2421061 Eh     change       -0.1736949E-04 Eh
 * total energy  :   -45.2420679 Eh     change        0.3826477E-04 Eh
 * total energy  :   -45.2421216 Eh     change       -0.5369661E-04 Eh
 * total energy  :   -45.2421278 Eh     change       -0.6229655E-05 Eh
 * total energy  :   -45.2421307 Eh     change       -0.2919306E-05 Eh
   *** GEOMETRY OPTIMIZATION CONVERGED AFTER 45 ITERATIONS ***

 final structure:
================
32
 xtb: 6.7.1 (edcfbbe)
C            1.32166863156580       -0.27056735619690       -0.22792398546700
N            0.56754878892201       -0.13663493039351       -1.44493437993213
C           -0.35723129518875       -1.02572702800922       -1.90148010411470
C           -0.83503326917614       -0.54269411824333       -3.08142200087718
N           -0.19046647113342        0.62936649496786       -3.33093788991981
C            0.64855427504708        0.85763667731361       -2.32640036755382
C           -0.47583361808533        1.51689171090699       -4.44171776510536
C           -1.78607801721818        2.22959615690005       -4.18983909137719
C           -1.83625895125135        3.23672238205777       -3.20603723623045
C           -3.00902539301804        3.88233146755936       -2.93808226266834
C           -4.19154969861446        3.55459383155211       -3.63399463702655
C           -4.14463944685419        2.53819256092078       -4.62543463303947
C           -2.92012483910948        1.88641546990121       -4.87687740289989
C           -5.32322492481193        2.20947356785673       -5.32670261394464
C           -6.49504508166466        2.85967154108590       -5.05669303751914
C           -6.54164337330326        3.86479820104462       -4.07741359221710
C           -5.41583929011966        4.20591877425856       -3.38046181458221
H            0.64612321603598       -0.42101352256192        0.61430430005646
H            1.91164636920852        0.62666788531689       -0.05637109138186
H            1.99112489518488       -1.12948986391159       -0.29209595583057
H           -0.60673672902266       -1.92100257652541       -1.36968149199848
H           -1.57541463887467       -0.94252805034467       -3.74326863117891
H            1.29871160288073        1.70669607629643       -2.24214230431397
H            0.34422387380982        2.23239016919675       -4.53092852005346
H           -0.53529339260553        0.92282252770872       -5.35585418420342
H           -0.93416607489218        3.50403928353958       -2.67366605849425
H           -3.04470672719829        4.65937615331395       -2.18952873831683
H           -2.89158320019552        1.11962208998273       -5.63847504604365
H           -5.28308541109032        1.43810685091528       -6.08163580813133
H           -7.39414386994302        2.60569103336086       -5.59667132243294
H           -7.47597945416945        4.36756411828247       -3.88067254997575
H           -5.44663848511341        4.97984242194431       -2.62817978322593

          :  Hamiltonian                  GFN2-xTB          :
         :: total energy             -45.242130703790 Eh    ::
         :: gradient norm              0.000332737576 Eh/a0 ::
         :: HOMO-LUMO gap              2.069737395437 eV    ::
         :: SCC energy               -46.050544377856 Eh    ::
         :: -> dispersion             -0.030969616894 Eh    ::
         :: repulsion energy           0.808413674066 Eh    ::

    * Orbital Energies and Occupations

         #    Occupation            Energy/Eh            Energy/eV
      -------------------------------------------------------------
         1        2.0000           -0.8928414             -24.2955
       ...           ...                  ...                  ...
        30        2.0000           -0.5932978             -16.1445
        31        2.0000           -0.5877241             -15.9928
        32        2.0000           -0.5844220             -15.9029
        33        2.0000           -0.5743099             -15.6278
        34        2.0000           -0.5683539             -15.4657
        35        2.0000           -0.5640207             -15.3478
        36        2.0000           -0.5532981             -15.0560
        37        2.0000           -0.5434817             -14.7889
        38        2.0000           -0.5281764             -14.3724
        39        2.0000           -0.5154487             -14.0261
        40        2.0000           -0.5107222             -13.8975
        41        2.0000           -0.5003554             -13.6154
        42        2.0000           -0.4788584             -13.0304 (HOMO)
        43                         -0.4027969             -10.9607 (LUMO)
        44                         -0.3678905             -10.0108
        45                         -0.3613094              -9.8317
        46                         -0.3333761              -9.0716
        47                         -0.2884694              -7.8497
        48                         -0.2510800              -6.8322
        49                         -0.1764836              -4.8024
        50                         -0.1552831              -4.2255
        51                         -0.1181799              -3.2158
        52                         -0.0532373              -1.4487
        53                         -0.0427224              -1.1625
       ...                                ...                  ...
        83                          0.5995159              16.3137
      -------------------------------------------------------------
                  HL-Gap            0.0760614 Eh            2.0697 eV

     #   Z          covCN         q      C6AA      α(0)
     1   6 C        3.692    -0.085    22.322     6.760
     2   7 N        2.868     0.075    19.939     6.632
     3   6 C        3.074    -0.009    28.164     8.701
     4   6 C        3.076    -0.004    28.049     8.683
     5   7 N        2.872     0.070    20.021     6.646
     6   6 C        3.101     0.046    26.843     8.490
     7   6 C        3.748    -0.028    21.134     6.557
     8   6 C        2.969    -0.008    28.214     8.713
     9   6 C        2.918    -0.045    29.129     8.850
    10   6 C        2.918    -0.030    28.740     8.791
    11   6 C        2.987     0.018    27.608     8.619
    12   6 C        2.987     0.017    27.621     8.621
    13   6 C        2.921    -0.042    29.032     8.836
    14   6 C        2.918    -0.032    28.798     8.800
    15   6 C        2.916    -0.020    28.509     8.756
    16   6 C        2.916    -0.020    28.496     8.754
    17   6 C        2.918    -0.030    28.752     8.793
    18   1 H        0.925     0.107     1.727     2.055
    19   1 H        0.925     0.099     1.795     2.095
    20   1 H        0.924     0.106     1.729     2.056
    21   1 H        0.926     0.108     1.710     2.045
    22   1 H        0.926     0.109     1.704     2.041
    23   1 H        0.926     0.111     1.689     2.032
    24   1 H        0.924     0.083     1.945     2.181
    25   1 H        0.924     0.089     1.885     2.147
    26   1 H        0.926     0.026     2.649     2.545
    27   1 H        0.926     0.051     2.307     2.375
    28   1 H        0.926     0.040     2.444     2.445
    29   1 H        0.926     0.044     2.395     2.420
    30   1 H        0.926     0.052     2.292     2.368
    31   1 H        0.926     0.053     2.284     2.363
    32   1 H        0.926     0.048     2.343     2.394

Wiberg/Mayer (AO) data.
largest (>0.10) Wiberg bond orders for each atom

     #   Z sym  total        # sym  WBO       # sym  WBO       # sym  WBO
 ---------------------------------------------------------------------------
     1   6 C    3.934 --     2 N    0.991    19 H    0.976    18 H    0.964
                            20 H    0.961
     2   7 N    3.717 --     6 C    1.354     3 C    1.228     1 C    0.991
     3   6 C    3.948 --     4 C    1.592     2 N    1.228    21 H    0.961
     4   6 C    3.950 --     3 C    1.592     5 N    1.231    22 H    0.961
     5   7 N    3.718 --     6 C    1.366     4 C    1.231     7 C    0.956
     6   6 C    3.944 --     5 N    1.366     2 N    1.354    23 H    0.954
     7   6 C    3.931 --     8 C    0.975    24 H    0.963    25 H    0.960
                             5 N    0.956
     8   6 C    3.973 --    13 C    1.525     9 C    1.294     7 C    0.975
     9   6 C    3.991 --    10 C    1.561     8 C    1.294    26 H    0.969
    10   6 C    3.990 --     9 C    1.561    11 C    1.279    27 H    0.967
                            13 C    0.111
    11   6 C    3.990 --    17 C    1.282    10 C    1.279    12 C    1.246
    12   6 C    3.989 --    13 C    1.282    14 C    1.279    11 C    1.246
    13   6 C    3.989 --     8 C    1.525    12 C    1.282    28 H    0.965
                            10 C    0.111
    14   6 C    3.989 --    15 C    1.556    12 C    1.279    29 H    0.967
                            17 C    0.117
    15   6 C    3.990 --    14 C    1.556    16 C    1.321    30 H    0.969
    16   6 C    3.988 --    17 C    1.555    15 C    1.321    31 H    0.969
    17   6 C    3.991 --    16 C    1.555    11 C    1.282    32 H    0.967
                            14 C    0.117
    18   1 H    0.988 --     1 C    0.964
    19   1 H    0.990 --     1 C    0.976
    20   1 H    0.988 --     1 C    0.961
    21   1 H    0.988 --     3 C    0.961
    22   1 H    0.988 --     4 C    0.961
    23   1 H    0.988 --     6 C    0.954
    24   1 H    0.991 --     7 C    0.963
    25   1 H    0.991 --     7 C    0.960
    26   1 H    0.999 --     9 C    0.969
    27   1 H    0.996 --    10 C    0.967
    28   1 H    0.998 --    13 C    0.965
    29   1 H    0.998 --    14 C    0.967
    30   1 H    0.997 --    15 C    0.969
    31   1 H    0.997 --    16 C    0.969
    32   1 H    0.997 --    17 C    0.967
 ---------------------------------------------------------------------------

molecular dipole:
                 x           y           z       tot (Debye)
 q only:       -0.934       1.077      -4.590
   full:       -0.771       1.088      -4.594      12.159

           -------------------------------------------------
          | TOTAL ENERGY              -45.242130703790 Eh   |
          | GRADIENT NORM               0.000332737576 Eh/α |
          | HOMO-LUMO GAP               2.069737395437 eV   |
           -------------------------------------------------

 * finished run on 2024/12/20 at 06:54:26.869
