   * xtb version 6.7.1 (edcfbbe) compiled by 'conda@3ef47c1a292c' on 2024-11-25

   ID    Z sym.   atoms
    1    6 C      1-3, 6, 7, 9-16
    2    8 O      4
    3    7 N      5, 8
    4   17 Cl     17, 18
    5    1 H      19-31

          program call               : xtb C0725.xyz --opt --namespace C0725 --charge +1
          :  Hamiltonian                  GFN2-xTB          :
 * total energy  :   -53.0148622 Eh     change       -0.3285137E-08 Eh
 * total energy  :   -53.0219116 Eh     change       -0.7049401E-02 Eh
 * total energy  :   -53.0237939 Eh     change       -0.1882280E-02 Eh
 * total energy  :   -53.0241348 Eh     change       -0.3408602E-03 Eh
 * total energy  :   -53.0244416 Eh     change       -0.3068723E-03 Eh
 * total energy  :   -53.0246602 Eh     change       -0.2185244E-03 Eh
 * total energy  :   -53.0249219 Eh     change       -0.2617634E-03 Eh
 * total energy  :   -53.0251219 Eh     change       -0.1999273E-03 Eh
 * total energy  :   -53.0252174 Eh     change       -0.9558044E-04 Eh
 * total energy  :   -53.0252543 Eh     change       -0.3690398E-04 Eh
 * total energy  :   -53.0252678 Eh     change       -0.1340830E-04 Eh
 * total energy  :   -53.0252753 Eh     change       -0.7575518E-05 Eh
 * total energy  :   -53.0252835 Eh     change       -0.8210133E-05 Eh
 * total energy  :   -53.0252933 Eh     change       -0.9743026E-05 Eh
 * total energy  :   -53.0253034 Eh     change       -0.1016811E-04 Eh
 * total energy  :   -53.0253097 Eh     change       -0.6201716E-05 Eh
 * total energy  :   -53.0253140 Eh     change       -0.4387684E-05 Eh
   *** GEOMETRY OPTIMIZATION CONVERGED AFTER 17 ITERATIONS ***

 final structure:
================
31
 xtb: 6.7.1 (edcfbbe)
C            1.19961062695863       -0.12913846273077       -0.04017232378329
C            0.46408539803842        0.73900024505215       -0.70984354544958
C           -1.03092629601035        0.78337036898892       -0.64325443492128
O           -1.55730296403756        2.09446761097520       -0.34774215570143
N           -1.34851248769473        2.52711473602668        0.91811975931312
C           -0.15877047280884        2.84299359354065        1.49900754400270
C           -0.45489752069925        3.30613805317470        2.74585194338860
N           -1.80609114545757        3.26445710434888        2.89711055071592
C           -2.33489439932972        2.78461127254595        1.77618561009325
C           -2.54872263631629        3.74500945551055        4.04831725086200
C           -3.01077623331894        5.16496052779111        3.82402279021906
C           -2.23119519186287        6.23745437887242        4.24312119619156
C           -2.63500115547574        7.54305011356141        4.04324367680380
C           -3.84524673982082        7.79588759811904        3.40831947753813
C           -4.64179351664070        6.74190851106499        2.97761607986506
C           -4.21827072082431        5.44091652857418        3.18353998822203
Cl          -5.24309644191481        4.15386761252701        2.64371965440862
Cl          -4.36687577567825        9.40909341493983        3.15422143692098
H            0.76004185305142       -0.86695613951570        0.61159724527299
H            2.27055487835226       -0.15615535253032       -0.13711290407828
H            0.91147646665983        1.46151250039268       -1.37806619621600
H           -1.46105577451486        0.58763502460878       -1.62879581291203
H           -1.42340855615071        0.05528388864656        0.07497992586756
H            0.78191232427217        2.71207726445752        1.00434555381342
H            0.20429019367850        3.65171478994580        3.51601585437203
H           -3.38263614819421        2.65844374783867        1.57670907004428
H           -3.41268372874822        3.09489118947411        4.20054843696234
H           -1.89472609228144        3.69644072546946        4.92004024001241
H           -1.29625766642313        6.04816561415362        4.74816161177250
H           -2.02274596359970        8.36300564680233        4.38066854084066
H           -5.58259411320735        6.93980843737395        2.48943393555811

          :  Hamiltonian                  GFN2-xTB          :
         :: total energy             -53.025314040887 Eh    ::
         :: gradient norm              0.000640296301 Eh/a0 ::
         :: HOMO-LUMO gap              2.685281722833 eV    ::
         :: SCC energy               -53.719555969628 Eh    ::
         :: -> dispersion             -0.032134592122 Eh    ::
         :: repulsion energy           0.694241928741 Eh    ::

    * Orbital Energies and Occupations

         #    Occupation            Energy/Eh            Energy/eV
      -------------------------------------------------------------
         1        2.0000           -1.1781893             -32.0602
       ...           ...                  ...                  ...
        35        2.0000           -0.5954916             -16.2042
        36        2.0000           -0.5896893             -16.0463
        37        2.0000           -0.5884333             -16.0121
        38        2.0000           -0.5844111             -15.9026
        39        2.0000           -0.5761433             -15.6777
        40        2.0000           -0.5672866             -15.4367
        41        2.0000           -0.5617862             -15.2870
        42        2.0000           -0.5582463             -15.1907
        43        2.0000           -0.5437284             -14.7956
        44        2.0000           -0.5420758             -14.7506
        45        2.0000           -0.5268477             -14.3363
        46        2.0000           -0.5186418             -14.1130
        47        2.0000           -0.5088067             -13.8453 (HOMO)
        48                         -0.4101244             -11.1601 (LUMO)
        49                         -0.3772151             -10.2645
        50                         -0.3675330             -10.0011
        51                         -0.3636217              -9.8946
        52                         -0.3422906              -9.3142
        53                         -0.2684962              -7.3062
        54                         -0.2504133              -6.8141
        55                         -0.2366922              -6.4407
        56                         -0.2276443              -6.1945
        57                         -0.1419606              -3.8629
        58                         -0.1110855              -3.0228
       ...                                ...                  ...
        95                          0.4980230              13.5519
      -------------------------------------------------------------
                  HL-Gap            0.0986823 Eh            2.6853 eV

     #   Z          covCN         q      C6AA      α(0)
     1   6 C        2.838    -0.084    30.081     8.988
     2   6 C        2.883    -0.050    29.242     8.865
     3   6 C        3.687     0.056    19.821     6.373
     4   8 O        1.766    -0.215    17.566     5.659
     5   7 N        2.909     0.209    17.807     6.267
     6   6 C        3.041    -0.022    28.513     8.758
     7   6 C        3.083    -0.010    28.163     8.700
     8   7 N        2.872     0.078    19.886     6.623
     9   6 C        3.070     0.030    27.269     8.562
    10   6 C        3.747    -0.036    21.292     6.582
    11   6 C        2.996    -0.012    28.310     8.728
    12   6 C        2.926    -0.031    28.782     8.798
    13   6 C        2.952    -0.038    28.949     8.825
    14   6 C        2.888     0.110    25.572     8.291
    15   6 C        3.001    -0.046    29.125     8.853
    16   6 C        2.891     0.091    25.966     8.354
    17  17 Cl       0.967    -0.150   103.833    15.589
    18  17 Cl       0.971    -0.102   102.332    15.476
    19   1 H        0.926     0.060     2.202     2.321
    20   1 H        0.926     0.074     2.039     2.233
    21   1 H        0.926     0.067     2.123     2.278
    22   1 H        0.924     0.111     1.690     2.033
    23   1 H        0.924     0.061     2.193     2.316
    24   1 H        0.926     0.122     1.600     1.978
    25   1 H        0.926     0.115     1.656     2.012
    26   1 H        0.926     0.144     1.432     1.871
    27   1 H        0.924     0.110     1.696     2.036
    28   1 H        0.924     0.103     1.761     2.075
    29   1 H        0.926     0.070     2.080     2.255
    30   1 H        0.926     0.091     1.869     2.138
    31   1 H        0.926     0.096     1.822     2.111

Wiberg/Mayer (AO) data.
largest (>0.10) Wiberg bond orders for each atom

     #   Z sym  total        # sym  WBO       # sym  WBO       # sym  WBO
 ---------------------------------------------------------------------------
     1   6 C    3.986 --     2 C    1.979    20 H    0.973    19 H    0.972
     2   6 C    3.985 --     1 C    1.979     3 C    1.018    21 H    0.961
     3   6 C    3.899 --     2 C    1.018    23 H    0.968    22 H    0.940
                             4 O    0.908
     4   8 O    2.088 --     5 N    1.012     3 C    0.908
     5   7 N    3.731 --     9 C    1.339     6 C    1.213     4 O    1.012
     6   6 C    3.943 --     7 C    1.582     5 N    1.213    24 H    0.955
     7   6 C    3.947 --     6 C    1.582     8 N    1.232    25 H    0.959
     8   7 N    3.719 --     9 C    1.364     7 C    1.232    10 C    0.956
     9   6 C    3.935 --     8 N    1.364     5 N    1.339    26 H    0.942
    10   6 C    3.933 --    11 C    0.987    28 H    0.961     8 N    0.956
                            27 H    0.953
    11   6 C    3.978 --    12 C    1.403    16 C    1.365    10 C    0.987
    12   6 C    3.988 --    13 C    1.452    11 C    1.403    29 H    0.964
                            15 C    0.101
    13   6 C    3.985 --    12 C    1.452    14 C    1.382    30 H    0.962
    14   6 C    3.933 --    15 C    1.386    13 C    1.382    18 Cl   1.030
    15   6 C    3.983 --    16 C    1.420    14 C    1.386    31 H    0.960
                            12 C    0.101
    16   6 C    3.924 --    15 C    1.420    11 C    1.365    17 Cl   0.982
    17  17 Cl   1.138 --    16 C    0.982
    18  17 Cl   1.190 --    14 C    1.030
    19   1 H    0.996 --     1 C    0.972
    20   1 H    0.994 --     1 C    0.973
    21   1 H    0.996 --     2 C    0.961
    22   1 H    0.988 --     3 C    0.940
    23   1 H    0.996 --     3 C    0.968
    24   1 H    0.985 --     6 C    0.955
    25   1 H    0.987 --     7 C    0.959
    26   1 H    0.979 --     9 C    0.942
    27   1 H    0.987 --    10 C    0.953
    28   1 H    0.989 --    10 C    0.961
    29   1 H    0.995 --    12 C    0.964
    30   1 H    0.991 --    13 C    0.962
    31   1 H    0.990 --    15 C    0.960
 ---------------------------------------------------------------------------

molecular dipole:
                 x           y           z       tot (Debye)
 q only:       -2.114       5.529       4.290
   full:       -2.655       5.789       4.241      19.449

           -------------------------------------------------
          | TOTAL ENERGY              -53.025314040887 Eh   |
          | GRADIENT NORM               0.000640296301 Eh/α |
          | HOMO-LUMO GAP               2.685281722833 eV   |
           -------------------------------------------------

 * finished run on 2024/12/20 at 06:54:30.634
