   * xtb version 6.7.1 (edcfbbe) compiled by 'conda@3ef47c1a292c' on 2024-11-25

   ID    Z sym.   atoms
    1    6 C      1-14, 16-30
    2    7 N      15
    3    1 H      31-92

          program call               : xtb C0727.xyz --opt --namespace C0727 --charge +1
          :  Hamiltonian                  GFN2-xTB          :
 * total energy  :   -96.2607310 Eh     change       -0.2328733E-09 Eh
 * total energy  :   -96.2710017 Eh     change       -0.1027065E-01 Eh
 * total energy  :   -96.2738420 Eh     change       -0.2840344E-02 Eh
 * total energy  :   -96.2743118 Eh     change       -0.4698114E-03 Eh
 * total energy  :   -96.2747529 Eh     change       -0.4411177E-03 Eh
 * total energy  :   -96.2750300 Eh     change       -0.2770418E-03 Eh
 * total energy  :   -96.2753229 Eh     change       -0.2928870E-03 Eh
 * total energy  :   -96.2756370 Eh     change       -0.3141274E-03 Eh
 * total energy  :   -96.2759886 Eh     change       -0.3516207E-03 Eh
 * total energy  :   -96.2763968 Eh     change       -0.4081927E-03 Eh
 * total energy  :   -96.2890139 Eh     change       -0.4257795E-04 Eh
 * total energy  :   -96.2890298 Eh     change       -0.1596181E-04 Eh
 * total energy  :   -96.2890587 Eh     change       -0.2887976E-04 Eh
 * total energy  :   -96.2890672 Eh     change       -0.8472367E-05 Eh
 * total energy  :   -96.2890777 Eh     change       -0.1045678E-04 Eh
 * total energy  :   -96.2890882 Eh     change       -0.1053242E-04 Eh
 * total energy  :   -96.2890950 Eh     change       -0.6853937E-05 Eh
 * total energy  :   -96.2891004 Eh     change       -0.5337990E-05 Eh
 * total energy  :   -96.2891048 Eh     change       -0.4378376E-05 Eh
   *** GEOMETRY OPTIMIZATION CONVERGED AFTER 77 ITERATIONS ***

 final structure:
================
92
 xtb: 6.7.1 (edcfbbe)
C            1.32794251499631       -0.28804420724076        0.94592598866016
C            0.78398211173217        1.02054184004842        1.50661508876218
C            0.95268045077543        2.20280836106173        0.55107132497939
C            0.20225052360735        2.07139245828036       -0.77566766824265
C           -1.31944209829764        1.96960155817581       -0.65296928436047
C           -2.00301200002737        3.17085973370889        0.00483265134011
C           -1.70489136447296        4.52419170064451       -0.64578991281074
C           -2.01936913440064        4.60183468602344       -2.14062686109751
C           -3.50348261769819        4.49358868087590       -2.49464734177584
C           -4.35130743129306        5.70582853855673       -2.09943924453857
C           -3.84680309860762        7.00034011923175       -2.74675651434314
C           -4.95862836620406        7.98799714510205       -3.10304994930508
C           -5.75446499677075        8.54470509283108       -1.91918064798889
C           -5.06235284136351        9.43958158581092       -0.88305865450059
N           -4.51415072722788       10.76956520875369       -1.31115170575308
C           -5.33548076225269       11.37538210575151       -2.41381377725148
C           -6.83231845049283       11.57734248677578       -2.12791612637907
C           -7.26350938311083       13.04540142125210       -2.23396404259454
C           -7.17046272418912       13.62236214835546       -3.64857459135419
C           -8.10999779400574       12.94617973035718       -4.64007953849633
C           -4.54400467618995       11.75193977242821       -0.17763108419969
C           -4.25966463959455       11.23355419133684        1.23423392857770
C           -3.86890581179975       12.39313179000294        2.15952516617455
C           -4.91952550566299       13.49877805841787        2.28689466952211
C           -6.26348146560151       13.00420178492359        2.80882704554084
C           -3.11561910111641       10.62324952087052       -1.86577262343531
C           -1.91125726374042       10.64684076239380       -0.91390729900084
C           -1.50545501748645        9.31299723507763       -0.27226756605952
C           -0.63437692651482        8.44948741284960       -1.19090997356493
C            0.81627082165630        8.91460075564700       -1.22455878177936
H            0.75274134180354       -0.61648940737388        0.08415875725157
H            1.27889438637997       -1.06951860512532        1.70049198119111
H            2.36622518178826       -0.17006884086043        0.64312363419552
H           -0.26952908570093        0.89674812407633        1.76347181736127
H            1.31750580235098        1.25514277394575        2.43113071779069
H            0.63103810858088        3.11368081985590        1.06119852827070
H            2.01655660646409        2.31627716445060        0.32646090392197
H            0.45879741628999        2.93032249010844       -1.39992424349510
H            0.56004018399423        1.18306298591554       -1.29880394173248
H           -1.73411218996498        1.82246989841482       -1.65277588331745
H           -1.57333081129576        1.08000532975042       -0.07415628126422
H           -3.08116427245192        2.99412902385722       -0.00347654039208
H           -1.69876436857149        3.22668042133438        1.05204204349371
H           -2.27139597083569        5.29255803745596       -0.11169953865498
H           -0.64572990922628        4.75270547573471       -0.50956613192781
H           -1.62168831355524        5.54052319201947       -2.53311117767955
H           -1.48960022786114        3.79801299681667       -2.65164498844284
H           -3.58790726861092        4.35877181733003       -3.57587161715708
H           -3.92333205515739        3.60399479088953       -2.02455887665441
H           -5.37577220791144        5.51310170884577       -2.42618733302435
H           -4.36714722468960        5.80606202243293       -1.01278960459195
H           -3.11121735568797        7.46746029907242       -2.09229200554042
H           -3.33876466986227        6.74530344741821       -3.67915140691090
H           -4.54222297948625        8.79282908285467       -3.71425038038823
H           -5.67612895114139        7.46406563525053       -3.73856490869574
H           -6.63874899581944        9.04708665115535       -2.30753522917261
H           -6.11437682363752        7.68950119263117       -1.34230299176440
H           -5.80662536282260        9.63287589692418       -0.11029947709153
H           -4.24561459785443        8.88725225250443       -0.42369112390352
H           -4.89425296155779       12.35201517241011       -2.62483485499018
H           -5.20424704378093       10.75451620061111       -3.29857557360937
H           -7.42155170021352       11.00697482812108       -2.84514169213204
H           -7.10025588601856       11.20682834492114       -1.13851214095084
H           -8.30062163774099       13.11686859832511       -1.90236548124789
H           -6.66255279413929       13.66182225825758       -1.56033470942695
H           -7.42643876797982       14.68129625681255       -3.59210673820602
H           -6.14575458361299       13.55783583844116       -4.02162765969261
H           -9.12880103385025       12.94487105509020       -4.26107187490829
H           -8.10044969491824       13.48381916738308       -5.58389134903185
H           -7.81234384898980       11.91966856876801       -4.84118490769282
H           -3.83168799267201       12.54073143448022       -0.42855866251206
H           -5.53490008014480       12.20219225749286       -0.16255417883078
H           -5.14275861423624       10.74767329186544        1.64838754229791
H           -3.45113328247285       10.50614378294782        1.24355272690609
H           -3.67930294213286       11.97815604417759        3.15035204966046
H           -2.93443285910212       12.83769602993976        1.80828783583675
H           -4.52987900542519       14.24243565364951        2.98339377644052
H           -5.05925714863309       14.00367401860584        1.32862543276927
H           -6.13242110756660       12.46109000522610        3.74121027023348
H           -6.92074646742872       13.84820427594472        2.99861419283833
H           -6.76119042186937       12.35070606782917        2.09516977583229
H           -3.09105618546991        9.69890429424230       -2.43975490234138
H           -2.97804319611890       11.45411263695782       -2.56053240950522
H           -1.06711401256194       10.97269107690303       -1.52521854453564
H           -2.03354629170480       11.40852153939838       -0.14825009793993
H           -0.93377217324099        9.52594670189964        0.63272142200643
H           -2.38001481177871        8.73870275233331        0.03723758746697
H           -0.65978510271744        7.41944776448761       -0.83231699737157
H           -1.03662673124251        8.45753883112707       -2.20660493068771
H            1.39735968885977        8.27610547313404       -1.88394727036186
H            0.90120466188315        9.93703398060159       -1.58537494063548
H            1.25425641835997        8.86509744168358       -0.23081007240697

          :  Hamiltonian                  GFN2-xTB          :
         :: total energy             -96.289104760438 Eh    ::
         :: gradient norm              0.000419172700 Eh/a0 ::
         :: HOMO-LUMO gap              6.295158337489 eV    ::
         :: SCC energy               -97.696233578486 Eh    ::
         :: -> dispersion             -0.082529236554 Eh    ::
         :: repulsion energy           1.407128818049 Eh    ::

    * Orbital Energies and Occupations

         #    Occupation            Energy/Eh            Energy/eV
      -------------------------------------------------------------
         1        2.0000           -0.8357353             -22.7415
       ...           ...                  ...                  ...
        79        2.0000           -0.5254086             -14.2971
        80        2.0000           -0.5248363             -14.2815
        81        2.0000           -0.5171899             -14.0735
        82        2.0000           -0.5117154             -13.9245
        83        2.0000           -0.5053701             -13.7518
        84        2.0000           -0.5009845             -13.6325
        85        2.0000           -0.4963575             -13.5066
        86        2.0000           -0.4877516             -13.2724
        87        2.0000           -0.4851763             -13.2023
        88        2.0000           -0.4802156             -13.0673
        89        2.0000           -0.4699614             -12.7883
        90        2.0000           -0.4647708             -12.6471
        91        2.0000           -0.4628608             -12.5951 (HOMO)
        92                         -0.2315180              -6.2999 (LUMO)
        93                         -0.1737735              -4.7286
        94                         -0.1579940              -4.2992
        95                         -0.1457887              -3.9671
        96                         -0.0711098              -1.9350
        97                         -0.0666856              -1.8146
        98                         -0.0540477              -1.4707
        99                         -0.0519137              -1.4126
       100                         -0.0472624              -1.2861
       101                         -0.0389675              -1.0604
       102                         -0.0358994              -0.9769
       ...                                ...                  ...
       182                          0.2605630               7.0903
      -------------------------------------------------------------
                  HL-Gap            0.2313428 Eh            6.2952 eV

     #   Z          covCN         q      C6AA      α(0)
     1   6 C        3.751    -0.103    22.520     6.768
     2   6 C        3.799    -0.052    21.513     6.604
     3   6 C        3.800    -0.057    21.594     6.616
     4   6 C        3.800    -0.058    21.614     6.619
     5   6 C        3.800    -0.058    21.618     6.620
     6   6 C        3.800    -0.057    21.601     6.617
     7   6 C        3.800    -0.054    21.541     6.608
     8   6 C        3.800    -0.061    21.677     6.629
     9   6 C        3.801    -0.061    21.676     6.629
    10   6 C        3.800    -0.060    21.663     6.627
    11   6 C        3.801    -0.066    21.764     6.642
    12   6 C        3.799    -0.064    21.738     6.638
    13   6 C        3.799    -0.077    21.970     6.674
    14   6 C        3.744    -0.032    21.211     6.570
    15   7 N        3.614     0.097    19.565     6.569
    16   6 C        3.764    -0.034    21.227     6.567
    17   6 C        3.799    -0.071    21.852     6.656
    18   6 C        3.801    -0.066    21.771     6.643
    19   6 C        3.800    -0.060    21.647     6.624
    20   6 C        3.751    -0.110    22.667     6.790
    21   6 C        3.758    -0.036    21.277     6.576
    22   6 C        3.799    -0.072    21.879     6.660
    23   6 C        3.802    -0.065    21.739     6.638
    24   6 C        3.799    -0.060    21.664     6.627
    25   6 C        3.751    -0.108    22.627     6.784
    26   6 C        3.752    -0.037    21.302     6.582
    27   6 C        3.799    -0.076    21.952     6.671
    28   6 C        3.800    -0.063    21.709     6.634
    29   6 C        3.800    -0.059    21.632     6.622
    30   6 C        3.752    -0.110    22.669     6.790
    31   1 H        0.925     0.035     2.517     2.481
    32   1 H        0.925     0.034     2.534     2.489
    33   1 H        0.925     0.035     2.523     2.484
    34   1 H        0.924     0.030     2.585     2.514
    35   1 H        0.924     0.027     2.625     2.533
    36   1 H        0.924     0.025     2.662     2.551
    37   1 H        0.924     0.029     2.600     2.522
    38   1 H        0.924     0.026     2.642     2.542
    39   1 H        0.924     0.035     2.515     2.480
    40   1 H        0.924     0.028     2.612     2.528
    41   1 H        0.924     0.036     2.505     2.475
    42   1 H        0.924     0.026     2.642     2.542
    43   1 H        0.924     0.032     2.556     2.500
    44   1 H        0.924     0.016     2.796     2.615
    45   1 H        0.924     0.031     2.577     2.510
    46   1 H        0.924     0.024     2.678     2.559
    47   1 H        0.925     0.043     2.413     2.429
    48   1 H        0.924     0.032     2.561     2.503
    49   1 H        0.924     0.043     2.412     2.429
    50   1 H        0.924     0.033     2.544     2.494
    51   1 H        0.924     0.028     2.611     2.527
    52   1 H        0.925     0.030     2.580     2.512
    53   1 H        0.924     0.046     2.372     2.408
    54   1 H        0.924     0.023     2.688     2.564
    55   1 H        0.924     0.054     2.275     2.359
    56   1 H        0.925     0.055     2.264     2.353
    57   1 H        0.924     0.073     2.055     2.242
    58   1 H        0.925     0.074     2.039     2.233
    59   1 H        0.925     0.085     1.925     2.169
    60   1 H        0.924     0.078     1.997     2.210
    61   1 H        0.925     0.081     1.973     2.196
    62   1 H        0.925     0.066     2.125     2.279
    63   1 H        0.925     0.050     2.322     2.383
    64   1 H        0.924     0.055     2.255     2.348
    65   1 H        0.924     0.032     2.560     2.502
    66   1 H        0.924     0.049     2.338     2.391
    67   1 H        0.924     0.027     2.623     2.533
    68   1 H        0.925     0.046     2.376     2.411
    69   1 H        0.925     0.049     2.329     2.387
    70   1 H        0.925     0.032     2.560     2.502
    71   1 H        0.924     0.077     2.008     2.216
    72   1 H        0.925     0.089     1.886     2.148
    73   1 H        0.925     0.054     2.274     2.358
    74   1 H        0.925     0.056     2.246     2.344
    75   1 H        0.924     0.056     2.244     2.343
    76   1 H        0.924     0.036     2.506     2.476
    77   1 H        0.924     0.050     2.318     2.381
    78   1 H        0.924     0.027     2.628     2.535
    79   1 H        0.925     0.046     2.366     2.406
    80   1 H        0.925     0.048     2.343     2.394
    81   1 H        0.925     0.025     2.657     2.549
    82   1 H        0.925     0.093     1.854     2.129
    83   1 H        0.924     0.068     2.112     2.273
    84   1 H        0.924     0.072     2.066     2.248
    85   1 H        0.925     0.059     2.213     2.326
    86   1 H        0.924     0.052     2.296     2.370
    87   1 H        0.924     0.026     2.646     2.544
    88   1 H        0.924     0.047     2.356     2.400
    89   1 H        0.924     0.030     2.582     2.513
    90   1 H        0.925     0.048     2.346     2.395
    91   1 H        0.925     0.035     2.521     2.483
    92   1 H        0.925     0.044     2.394     2.419

Wiberg/Mayer (AO) data.
largest (>0.10) Wiberg bond orders for each atom

     #   Z sym  total        # sym  WBO       # sym  WBO       # sym  WBO
 ---------------------------------------------------------------------------
     1   6 C    3.997 --     2 C    1.020    33 H    0.988    32 H    0.987
                            31 H    0.986
     2   6 C    3.998 --     1 C    1.020     3 C    1.008    35 H    0.978
                            34 H    0.976
     3   6 C    3.998 --     2 C    1.008     4 C    1.008    37 H    0.977
                            36 H    0.976
     4   6 C    3.997 --     5 C    1.008     3 C    1.008    38 H    0.975
                            39 H    0.975
     5   6 C    3.997 --     4 C    1.008     6 C    1.007    40 H    0.975
                            41 H    0.974
     6   6 C    3.997 --     5 C    1.007     7 C    1.007    42 H    0.976
                            43 H    0.975
     7   6 C    3.998 --     8 C    1.008     6 C    1.007    44 H    0.976
                            45 H    0.975
     8   6 C    3.997 --     9 C    1.008     7 C    1.008    46 H    0.975
                            47 H    0.972
     9   6 C    3.995 --     8 C    1.008    10 C    1.006    48 H    0.977
                            49 H    0.973
    10   6 C    3.997 --     9 C    1.006    11 C    1.005    51 H    0.978
                            50 H    0.976
    11   6 C    3.995 --    12 C    1.007    10 C    1.005    53 H    0.973
                            52 H    0.970
    12   6 C    3.993 --    11 C    1.007    13 C    1.006    55 H    0.972
                            54 H    0.967
    13   6 C    3.984 --    12 C    1.006    14 C    1.005    56 H    0.968
                            57 H    0.962
    14   6 C    3.934 --    13 C    1.005    58 H    0.965    59 H    0.955
                            15 N    0.929
    15   7 N    3.794 --    16 C    0.932    21 C    0.930    14 C    0.929
                            26 C    0.925
    16   6 C    3.934 --    17 C    1.001    61 H    0.965    60 H    0.963
                            15 N    0.932
    17   6 C    3.987 --    18 C    1.003    16 C    1.001    62 H    0.966
                            63 H    0.966
    18   6 C    3.993 --    19 C    1.008    17 C    1.003    65 H    0.975
                            64 H    0.974
    19   6 C    3.996 --    20 C    1.021    18 C    1.008    66 H    0.976
                            67 H    0.975
    20   6 C    3.995 --    19 C    1.021    68 H    0.987    69 H    0.985
                            70 H    0.985
    21   6 C    3.932 --    22 C    1.004    71 H    0.964    72 H    0.959
                            15 N    0.930
    22   6 C    3.988 --    21 C    1.004    23 C    0.999    73 H    0.972
                            74 H    0.969
    23   6 C    3.992 --    24 C    1.008    22 C    0.999    76 H    0.976
                            75 H    0.974
    24   6 C    3.996 --    25 C    1.020    23 C    1.008    78 H    0.977
                            77 H    0.976
    25   6 C    3.995 --    24 C    1.020    79 H    0.987    81 H    0.986
                            80 H    0.986
    26   6 C    3.932 --    27 C    1.006    83 H    0.970    82 H    0.958
                            15 N    0.925
    27   6 C    3.984 --    26 C    1.006    28 C    1.005    85 H    0.966
                            84 H    0.961
    28   6 C    3.994 --    29 C    1.006    27 C    1.005    86 H    0.974
                            87 H    0.964
    29   6 C    3.996 --    30 C    1.021    28 C    1.006    88 H    0.975
                            89 H    0.974
    30   6 C    3.994 --    29 C    1.021    92 H    0.987    90 H    0.985
                            91 H    0.984
    31   1 H    0.999 --     1 C    0.986
    32   1 H    0.999 --     1 C    0.987
    33   1 H    0.999 --     1 C    0.988
    34   1 H    0.999 --     2 C    0.976
    35   1 H    0.999 --     2 C    0.978
    36   1 H    0.999 --     3 C    0.976
    37   1 H    0.999 --     3 C    0.977
    38   1 H    0.999 --     4 C    0.975
    39   1 H    0.999 --     4 C    0.975
    40   1 H    0.999 --     5 C    0.975
    41   1 H    0.999 --     5 C    0.974
    42   1 H    0.999 --     6 C    0.976
    43   1 H    0.999 --     6 C    0.975
    44   1 H    1.000 --     7 C    0.976
    45   1 H    0.999 --     7 C    0.975
    46   1 H    0.999 --     8 C    0.975
    47   1 H    0.998 --     8 C    0.972
    48   1 H    0.999 --     9 C    0.977
    49   1 H    0.998 --     9 C    0.973
    50   1 H    0.999 --    10 C    0.976
    51   1 H    0.999 --    10 C    0.978
    52   1 H    0.999 --    11 C    0.970
    53   1 H    0.998 --    11 C    0.973
    54   1 H    0.999 --    12 C    0.967
    55   1 H    0.997 --    12 C    0.972
    56   1 H    0.997 --    13 C    0.968
    57   1 H    0.994 --    13 C    0.962
    58   1 H    0.994 --    14 C    0.965
    59   1 H    0.993 --    14 C    0.955
    60   1 H    0.994 --    16 C    0.963
    61   1 H    0.993 --    16 C    0.965
    62   1 H    0.995 --    17 C    0.966
    63   1 H    0.997 --    17 C    0.966
    64   1 H    0.997 --    18 C    0.974
    65   1 H    0.999 --    18 C    0.975
    66   1 H    0.998 --    19 C    0.976
    67   1 H    0.999 --    19 C    0.975
    68   1 H    0.998 --    20 C    0.987
    69   1 H    0.998 --    20 C    0.985
    70   1 H    0.999 --    20 C    0.985
    71   1 H    0.994 --    21 C    0.964
    72   1 H    0.992 --    21 C    0.959
    73   1 H    0.997 --    22 C    0.972
    74   1 H    0.997 --    22 C    0.969
    75   1 H    0.996 --    23 C    0.974
    76   1 H    0.999 --    23 C    0.976
    77   1 H    0.997 --    24 C    0.976
    78   1 H    0.999 --    24 C    0.977
    79   1 H    0.998 --    25 C    0.987
    80   1 H    0.998 --    25 C    0.986
    81   1 H    0.999 --    25 C    0.986
    82   1 H    0.991 --    26 C    0.958
    83   1 H    0.995 --    26 C    0.970
    84   1 H    0.995 --    27 C    0.961
    85   1 H    0.996 --    27 C    0.966
    86   1 H    0.997 --    28 C    0.974
    87   1 H    0.999 --    28 C    0.964
    88   1 H    0.998 --    29 C    0.975
    89   1 H    0.999 --    29 C    0.974
    90   1 H    0.998 --    30 C    0.985
    91   1 H    0.999 --    30 C    0.984
    92   1 H    0.998 --    30 C    0.987
 ---------------------------------------------------------------------------

molecular dipole:
                 x           y           z       tot (Debye)
 q only:       -8.410      19.900      -2.281
   full:       -8.427      19.971      -2.333      55.412

           -------------------------------------------------
          | TOTAL ENERGY              -96.289104760438 Eh   |
          | GRADIENT NORM               0.000419172700 Eh/α |
          | HOMO-LUMO GAP               6.295158337489 eV   |
           -------------------------------------------------

 * finished run on 2024/12/20 at 06:54:39.983
