   * xtb version 6.7.1 (edcfbbe) compiled by 'conda@3ef47c1a292c' on 2024-11-25

   ID    Z sym.   atoms
    1    8 O      1
    2    6 C      2-7
    3    7 N      8
    4    1 H      9-20

          program call               : xtb C0728.xyz --opt --namespace C0728 --charge +1
          :  Hamiltonian                  GFN2-xTB          :
 * total energy  :   -25.5071977 Eh     change       -0.1543583E-09 Eh
 * total energy  :   -25.5170776 Eh     change       -0.9879862E-02 Eh
 * total energy  :   -25.5210902 Eh     change       -0.4012679E-02 Eh
 * total energy  :   -25.5219881 Eh     change       -0.8978756E-03 Eh
 * total energy  :   -25.5223307 Eh     change       -0.3425566E-03 Eh
 * total energy  :   -25.5224387 Eh     change       -0.1080204E-03 Eh
 * total energy  :   -25.5224765 Eh     change       -0.3783371E-04 Eh
 * total energy  :   -25.5224918 Eh     change       -0.1528555E-04 Eh
 * total energy  :   -25.5224996 Eh     change       -0.7775830E-05 Eh
 * total energy  :   -25.5225024 Eh     change       -0.2806247E-05 Eh
   *** GEOMETRY OPTIMIZATION CONVERGED AFTER 10 ITERATIONS ***

 final structure:
================
20
 xtb: 6.7.1 (edcfbbe)
O            1.61901424164694       -0.30825796329987        1.05511642074531
C            2.55825145337475        0.03169282225849        0.43659353002610
C            3.26984770442400        1.31596555669360        0.38506025448989
C            3.16467547080880        1.99862164014387       -0.99698109445814
C            4.26708659512445        1.59096162206460       -1.96733962423994
C            4.19485704160945        0.13751823105730       -2.42717125405374
C            4.37291238861409       -0.87574731835345       -1.30316511520702
N            3.11648714950428       -1.07998831812769       -0.53595216466224
H            4.32260562560263        1.18712113115227        0.64346994422833
H            2.80957070720020        1.95130133618344        1.14475360711435
H            3.24185003707940        3.07212953808765       -0.82900548959044
H            2.18140784120996        1.81275394399767       -1.43157235554269
H            5.24069659453867        1.77944272152117       -1.51217973551860
H            4.19531581475291        2.22876174605176       -2.84840592905841
H            4.99018870219644       -0.02872442410380       -3.15382327411564
H            3.24899076288002       -0.04630963670530       -2.94179771091074
H            5.16141158805124       -0.56399071231108       -0.61669920207514
H            4.65582105986410       -1.84265630053302       -1.72522310328721
H            3.18603166280887       -1.92369991256252        0.04959827004713
H            2.35019755870884       -1.26454570321513       -1.19995597393115

          :  Hamiltonian                  GFN2-xTB          :
         :: total energy             -25.522502384454 Eh    ::
         :: gradient norm              0.000846356797 Eh/a0 ::
         :: HOMO-LUMO gap              3.790211098518 eV    ::
         :: SCC energy               -25.856177829910 Eh    ::
         :: -> dispersion             -0.012871950170 Eh    ::
         :: repulsion energy           0.333675445456 Eh    ::

    * Orbital Energies and Occupations

         #    Occupation            Energy/Eh            Energy/eV
      -------------------------------------------------------------
         1        2.0000           -0.9350083             -25.4429
       ...           ...                  ...                  ...
        11        2.0000           -0.7327141             -19.9382
        12        2.0000           -0.7195856             -19.5809
        13        2.0000           -0.7020259             -19.1031
        14        2.0000           -0.6883716             -18.7315
        15        2.0000           -0.6762861             -18.4027
        16        2.0000           -0.6650800             -18.0977
        17        2.0000           -0.6586798             -17.9236
        18        2.0000           -0.6481558             -17.6372
        19        2.0000           -0.6302891             -17.1510
        20        2.0000           -0.6170531             -16.7909
        21        2.0000           -0.5983594             -16.2822
        22        2.0000           -0.5964242             -16.2295
        23        2.0000           -0.5926317             -16.1263 (HOMO)
        24                         -0.4533440             -12.3361 (LUMO)
        25                         -0.2940470              -8.0014
        26                         -0.1915676              -5.2128
        27                         -0.1416806              -3.8553
        28                         -0.1061752              -2.8892
        29                         -0.0844933              -2.2992
        30                         -0.0813364              -2.2133
        31                         -0.0713046              -1.9403
        32                         -0.0531999              -1.4476
        33                         -0.0293902              -0.7997
        34                         -0.0189251              -0.5150
       ...                                ...                  ...
        44                          0.5259103              14.3107
      -------------------------------------------------------------
                  HL-Gap            0.1392877 Eh            3.7902 eV

     #   Z          covCN         q      C6AA      α(0)
     1   8 O        0.857    -0.237    18.686     5.796
     2   6 C        2.728     0.291    22.068     7.691
     3   6 C        3.802    -0.100    22.397     6.738
     4   6 C        3.802    -0.065    21.748     6.639
     5   6 C        3.802    -0.078    21.985     6.676
     6   6 C        3.802    -0.080    22.024     6.682
     7   6 C        3.731    -0.027    21.158     6.566
     8   7 N        3.515    -0.096    23.118     7.141
     9   1 H        0.924     0.115     1.656     2.012
    10   1 H        0.924     0.119     1.618     1.989
    11   1 H        0.925     0.090     1.880     2.144
    12   1 H        0.924     0.062     2.176     2.307
    13   1 H        0.924     0.064     2.154     2.295
    14   1 H        0.925     0.080     1.980     2.201
    15   1 H        0.925     0.089     1.888     2.148
    16   1 H        0.924     0.064     2.155     2.296
    17   1 H        0.924     0.102     1.765     2.077
    18   1 H        0.924     0.097     1.816     2.107
    19   1 H        0.859     0.254     0.870     1.461
    20   1 H        0.859     0.257     0.856     1.449

Wiberg/Mayer (AO) data.
largest (>0.10) Wiberg bond orders for each atom

     #   Z sym  total        # sym  WBO       # sym  WBO       # sym  WBO
 ---------------------------------------------------------------------------
     1   8 O    2.247 --     2 C    1.984     8 N    0.108
     2   6 C    3.898 --     1 O    1.984     3 C    1.044     8 N    0.777
     3   6 C    3.973 --     2 C    1.044     4 C    0.950    10 H    0.949
                             9 H    0.925
     4   6 C    3.980 --     5 C    1.012    12 H    0.975    11 H    0.965
                             3 C    0.950
     5   6 C    3.990 --     4 C    1.012     6 C    1.008    13 H    0.972
                            14 H    0.967
     6   6 C    3.983 --     7 C    1.009     5 C    1.008    16 H    0.968
                            15 H    0.964
     7   6 C    3.910 --     6 C    1.009    18 H    0.964    17 H    0.962
                             8 N    0.935
     8   7 N    3.686 --     7 C    0.935    19 H    0.907    20 H    0.899
                             2 C    0.777     1 O    0.108
     9   1 H    0.987 --     3 C    0.925
    10   1 H    0.986 --     3 C    0.949
    11   1 H    0.992 --     4 C    0.965
    12   1 H    0.996 --     4 C    0.975
    13   1 H    0.996 --     5 C    0.972
    14   1 H    0.992 --     5 C    0.967
    15   1 H    0.992 --     6 C    0.964
    16   1 H    0.996 --     6 C    0.968
    17   1 H    0.990 --     7 C    0.962
    18   1 H    0.991 --     7 C    0.964
    19   1 H    0.936 --     8 N    0.907
    20   1 H    0.934 --     8 N    0.899
 ---------------------------------------------------------------------------

molecular dipole:
                 x           y           z       tot (Debye)
 q only:        7.015      -0.359      -1.765
   full:        6.960      -0.672      -1.750      18.321

           -------------------------------------------------
          | TOTAL ENERGY              -25.522502384454 Eh   |
          | GRADIENT NORM               0.000846356797 Eh/α |
          | HOMO-LUMO GAP               3.790211098518 eV   |
           -------------------------------------------------

 * finished run on 2024/12/20 at 06:54:40.351
