   * xtb version 6.7.1 (edcfbbe) compiled by 'conda@3ef47c1a292c' on 2024-11-25

   ID    Z sym.   atoms
    1    6 C      1-5, 7, 8, 10-15
    2    8 O      6
    3    7 N      9
    4    1 H      16-45

          program call               : xtb C0722.xyz --opt --namespace C0722 --charge +1
          :  Hamiltonian                  GFN2-xTB          :
 * total energy  :   -49.7212300 Eh     change       -0.5475442E-10 Eh
 * total energy  :   -49.7285534 Eh     change       -0.7323389E-02 Eh
 * total energy  :   -49.7307501 Eh     change       -0.2196709E-02 Eh
 * total energy  :   -49.7311273 Eh     change       -0.3772146E-03 Eh
 * total energy  :   -49.7315915 Eh     change       -0.4641968E-03 Eh
 * total energy  :   -49.7318846 Eh     change       -0.2930948E-03 Eh
 * total energy  :   -49.7322416 Eh     change       -0.3569755E-03 Eh
 * total energy  :   -49.7325615 Eh     change       -0.3198936E-03 Eh
 * total energy  :   -49.7328023 Eh     change       -0.2407904E-03 Eh
 * total energy  :   -49.7329955 Eh     change       -0.1932314E-03 Eh
 * total energy  :   -49.7358689 Eh     change       -0.2634271E-04 Eh
 * total energy  :   -49.7359008 Eh     change       -0.3192839E-04 Eh
 * total energy  :   -49.7359335 Eh     change       -0.3263502E-04 Eh
 * total energy  :   -49.7359560 Eh     change       -0.2255808E-04 Eh
 * total energy  :   -49.7359695 Eh     change       -0.1341334E-04 Eh
 * total energy  :   -49.7359799 Eh     change       -0.1046618E-04 Eh
 * total energy  :   -49.7359914 Eh     change       -0.1145396E-04 Eh
 * total energy  :   -49.7360029 Eh     change       -0.1155448E-04 Eh
 * total energy  :   -49.7360064 Eh     change       -0.3472786E-05 Eh
   *** GEOMETRY OPTIMIZATION CONVERGED AFTER 44 ITERATIONS ***

 final structure:
================
45
 xtb: 6.7.1 (edcfbbe)
C            3.92894009955952       -1.00772702622563       -1.71762384595856
C            3.89498754219186        0.15363761184803       -0.73144452937693
C            3.59165016973203        1.50073198858236       -1.39061518557683
C            2.26120497475200        1.57792421646043       -2.14160235038282
C            1.05545179896578        1.34428256394164       -1.23330145181495
O           -0.18016781066092        1.43530219077449       -1.94966638175940
C           -1.02058321592468        2.54584006008039       -1.74700648773711
C           -1.75704331647721        2.48352014709012       -0.38315459579880
N           -2.71452517083255        1.34992315206318       -0.19225927337670
C           -2.00159367763808        0.05940819050671       -0.14564299890744
C           -3.41660729181157        1.55548670083413        1.09034625858967
C           -3.71499827612003        1.30639049208597       -1.27503563895242
C           -0.33683692743202        3.91501726536145       -1.90272164387002
C           -0.01419946595381        4.21751120523351       -3.37041154930817
C           -1.22528986505764        4.72063165069620       -4.14658543357209
H            2.94468125783493       -1.20334653504329       -2.13624316655907
H            4.26826278339314       -1.91186575668387       -1.21867281203717
H            4.61427107811899       -0.79168042323726       -2.53329502818026
H            3.16642581904063       -0.05308736838489        0.05579382402248
H            4.87167715646915        0.23366133606442       -0.25042602340898
H            3.61246736079160        2.27865409236656       -0.62269881461168
H            4.38750562752866        1.72396348156182       -2.10308880462342
H            2.18145569839450        2.56511661471671       -2.59795623377951
H            2.23738768031934        0.84173460781242       -2.94447200825962
H            1.09220837861299        0.32428323881152       -0.83760207992517
H            1.07773375781630        2.04123570435275       -0.38919116527650
H           -1.75459915280368        2.45881034823801       -2.55453155771730
H           -1.01439467974519        2.42439950598730        0.41563094955779
H           -2.32009444957809        3.40999518943147       -0.26159447512809
H           -2.71522780502389       -0.75613158437771       -0.04635062625609
H           -1.42497610053902       -0.07149960485272       -1.06043612389785
H           -1.32263620303419        0.03787360941999        0.70481376538222
H           -4.01996577391605        2.46087012029968        1.05237875415050
H           -4.07029542956832        0.70991852261188        1.29800130334509
H           -2.70030284958846        1.64692504830647        1.90501363506998
H           -4.16169784511687        2.28896179234166       -1.41696448039987
H           -3.25276609621944        0.98390535669109       -2.20507243504896
H           -4.50137641199937        0.59775733688316       -1.02066405947693
H           -0.99678114485154        4.69469336559141       -1.51946712252022
H            0.57677992434805        3.93795185459816       -1.30932897272217
H            0.76441732063166        4.98011983815981       -3.40650327207791
H            0.37528520683490        3.31647361120307       -3.84646193783816
H           -1.61493730344099        5.63250133582140       -3.69975531310460
H           -0.94162584913298        4.94118191731537       -5.17143444590999
H           -2.02226152287454        3.98043303464732       -4.17379616497307

          :  Hamiltonian                  GFN2-xTB          :
         :: total energy             -49.736006400967 Eh    ::
         :: gradient norm              0.000195106297 Eh/a0 ::
         :: HOMO-LUMO gap              7.393879363071 eV    ::
         :: SCC energy               -50.398273781184 Eh    ::
         :: -> dispersion             -0.034299624846 Eh    ::
         :: repulsion energy           0.662267380217 Eh    ::

    * Orbital Energies and Occupations

         #    Occupation            Energy/Eh            Energy/eV
      -------------------------------------------------------------
         1        2.0000           -0.8662992             -23.5732
       ...           ...                  ...                  ...
        34        2.0000           -0.5823819             -15.8474
        35        2.0000           -0.5778745             -15.7248
        36        2.0000           -0.5682803             -15.4637
        37        2.0000           -0.5521522             -15.0248
        38        2.0000           -0.5495843             -14.9550
        39        2.0000           -0.5452200             -14.8362
        40        2.0000           -0.5396299             -14.6841
        41        2.0000           -0.5387729             -14.6608
        42        2.0000           -0.5297165             -14.4143
        43        2.0000           -0.5212035             -14.1827
        44        2.0000           -0.5117758             -13.9261
        45        2.0000           -0.5083415             -13.8327
        46        2.0000           -0.5014398             -13.6449 (HOMO)
        47                         -0.2297198              -6.2510 (LUMO)
        48                         -0.1630130              -4.4358
        49                         -0.1489460              -4.0530
        50                         -0.1433685              -3.9013
        51                         -0.1244444              -3.3863
        52                         -0.0721247              -1.9626
        53                         -0.0620014              -1.6871
        54                         -0.0526936              -1.4339
        55                         -0.0242385              -0.6596
        56                         -0.0135641              -0.3691
        57                         -0.0095443              -0.2597
       ...                                ...                  ...
        90                          0.2210441               6.0149
      -------------------------------------------------------------
                  HL-Gap            0.2717201 Eh            7.3939 eV

     #   Z          covCN         q      C6AA      α(0)
     1   6 C        3.751    -0.107    22.613     6.781
     2   6 C        3.799    -0.056    21.591     6.616
     3   6 C        3.801    -0.065    21.743     6.639
     4   6 C        3.800    -0.072    21.873     6.659
     5   6 C        3.680     0.074    19.549     6.332
     6   8 O        1.698    -0.332    19.554     5.970
     7   6 C        3.731     0.104    18.965     6.216
     8   6 C        3.760    -0.053    21.579     6.622
     9   7 N        3.622     0.146    18.766     6.434
    10   6 C        3.721    -0.101    22.546     6.781
    11   6 C        3.729    -0.098    22.468     6.767
    12   6 C        3.722    -0.099    22.503     6.775
    13   6 C        3.802    -0.076    21.952     6.671
    14   6 C        3.801    -0.060    21.646     6.624
    15   6 C        3.752    -0.111    22.692     6.793
    16   1 H        0.925     0.032     2.551     2.498
    17   1 H        0.925     0.041     2.433     2.439
    18   1 H        0.925     0.044     2.395     2.420
    19   1 H        0.924     0.021     2.712     2.575
    20   1 H        0.924     0.042     2.417     2.431
    21   1 H        0.924     0.030     2.588     2.516
    22   1 H        0.924     0.050     2.324     2.384
    23   1 H        0.924     0.046     2.364     2.405
    24   1 H        0.925     0.057     2.230     2.335
    25   1 H        0.924     0.045     2.379     2.412
    26   1 H        0.924     0.021     2.712     2.575
    27   1 H        0.924     0.066     2.130     2.282
    28   1 H        0.924     0.084     1.941     2.179
    29   1 H        0.924     0.082     1.958     2.188
    30   1 H        0.925     0.094     1.840     2.121
    31   1 H        0.925     0.126     1.566     1.957
    32   1 H        0.925     0.094     1.844     2.124
    33   1 H        0.925     0.098     1.805     2.101
    34   1 H        0.925     0.101     1.776     2.084
    35   1 H        0.925     0.098     1.803     2.100
    36   1 H        0.925     0.097     1.809     2.103
    37   1 H        0.925     0.108     1.717     2.049
    38   1 H        0.925     0.101     1.780     2.086
    39   1 H        0.924     0.044     2.400     2.423
    40   1 H        0.925     0.053     2.285     2.364
    41   1 H        0.924     0.051     2.306     2.375
    42   1 H        0.924     0.052     2.290     2.367
    43   1 H        0.925     0.042     2.420     2.433
    44   1 H        0.925     0.055     2.264     2.353
    45   1 H        0.925     0.029     2.595     2.519

Wiberg/Mayer (AO) data.
largest (>0.10) Wiberg bond orders for each atom

     #   Z sym  total        # sym  WBO       # sym  WBO       # sym  WBO
 ---------------------------------------------------------------------------
     1   6 C    3.996 --     2 C    1.020    18 H    0.987    17 H    0.987
                            16 H    0.986
     2   6 C    3.997 --     1 C    1.020     3 C    1.007    19 H    0.977
                            20 H    0.977
     3   6 C    3.995 --     2 C    1.007     4 C    1.004    21 H    0.977
                            22 H    0.975
     4   6 C    3.992 --     3 C    1.004     5 C    1.000    24 H    0.973
                            23 H    0.972
     5   6 C    3.940 --     4 C    1.000    25 H    0.968    26 H    0.967
                             6 O    0.954
     6   8 O    2.089 --     7 C    0.996     5 C    0.954
     7   6 C    3.951 --     6 O    0.996    13 C    0.978     8 C    0.971
                            27 H    0.947
     8   6 C    3.928 --     7 C    0.971    29 H    0.967    28 H    0.965
                             9 N    0.927
     9   7 N    3.817 --    12 C    0.958    11 C    0.958    10 C    0.954
                             8 C    0.927
    10   6 C    3.918 --    32 H    0.976    30 H    0.976    31 H    0.961
                             9 N    0.954
    11   6 C    3.929 --    33 H    0.975    35 H    0.975    34 H    0.974
                             9 N    0.958
    12   6 C    3.926 --    36 H    0.976    38 H    0.974    37 H    0.970
                             9 N    0.958
    13   6 C    3.990 --    14 C    1.003     7 C    0.978    39 H    0.972
                            40 H    0.970
    14   6 C    3.992 --    15 C    1.021    13 C    1.003    41 H    0.976
                            42 H    0.974
    15   6 C    3.995 --    14 C    1.021    43 H    0.987    45 H    0.985
                            44 H    0.985
    16   1 H    0.999 --     1 C    0.986
    17   1 H    0.998 --     1 C    0.987
    18   1 H    0.998 --     1 C    0.987
    19   1 H    1.000 --     2 C    0.977
    20   1 H    0.998 --     2 C    0.977
    21   1 H    0.999 --     3 C    0.977
    22   1 H    0.997 --     3 C    0.975
    23   1 H    0.998 --     4 C    0.972
    24   1 H    0.997 --     4 C    0.973
    25   1 H    0.998 --     5 C    0.968
    26   1 H    1.000 --     5 C    0.967
    27   1 H    0.995 --     7 C    0.947
    28   1 H    0.993 --     8 C    0.965
    29   1 H    0.993 --     8 C    0.967
    30   1 H    0.991 --    10 C    0.976
    31   1 H    0.984 --    10 C    0.961
    32   1 H    0.991 --    10 C    0.976
    33   1 H    0.990 --    11 C    0.975
    34   1 H    0.989 --    11 C    0.974
    35   1 H    0.990 --    11 C    0.975
    36   1 H    0.991 --    12 C    0.976
    37   1 H    0.988 --    12 C    0.970
    38   1 H    0.990 --    12 C    0.974
    39   1 H    0.998 --    13 C    0.972
    40   1 H    0.997 --    13 C    0.970
    41   1 H    0.997 --    14 C    0.976
    42   1 H    0.997 --    14 C    0.974
    43   1 H    0.998 --    15 C    0.987
    44   1 H    0.997 --    15 C    0.985
    45   1 H    0.999 --    15 C    0.985
 ---------------------------------------------------------------------------

molecular dipole:
                 x           y           z       tot (Debye)
 q only:       -4.204       3.047      -0.716
   full:       -4.281       3.161      -0.454      13.575

           -------------------------------------------------
          | TOTAL ENERGY              -49.736006400967 Eh   |
          | GRADIENT NORM               0.000195106297 Eh/α |
          | HOMO-LUMO GAP               7.393879363071 eV   |
           -------------------------------------------------

 * finished run on 2024/12/20 at 06:54:25.643
