   * xtb version 6.7.1 (edcfbbe) compiled by 'conda@3ef47c1a292c' on 2024-11-25

   ID    Z sym.   atoms
    1    6 C      1-6, 8-21
    2   15 P      7
    3    1 H      22-65

          program call               : xtb C0721.xyz --opt --namespace C0721 --charge +1
          :  Hamiltonian                  GFN2-xTB          :
 * total energy  :   -67.4158552 Eh     change       -0.1709282E-09 Eh
 * total energy  :   -67.4218564 Eh     change       -0.6001122E-02 Eh
 * total energy  :   -67.4234787 Eh     change       -0.1622354E-02 Eh
 * total energy  :   -67.4237416 Eh     change       -0.2628784E-03 Eh
 * total energy  :   -67.4239264 Eh     change       -0.1847791E-03 Eh
 * total energy  :   -67.4240897 Eh     change       -0.1633289E-03 Eh
 * total energy  :   -67.4242859 Eh     change       -0.1962475E-03 Eh
 * total energy  :   -67.4244935 Eh     change       -0.2075899E-03 Eh
 * total energy  :   -67.4246705 Eh     change       -0.1770127E-03 Eh
 * total energy  :   -67.4248188 Eh     change       -0.1482596E-03 Eh
 * total energy  :   -67.4285520 Eh     change       -0.1942166E-04 Eh
 * total energy  :   -67.4285589 Eh     change       -0.6917323E-05 Eh
 * total energy  :   -67.4285704 Eh     change       -0.1142861E-04 Eh
 * total energy  :   -67.4285802 Eh     change       -0.9815961E-05 Eh
 * total energy  :   -67.4285859 Eh     change       -0.5679617E-05 Eh
 * total energy  :   -67.4285922 Eh     change       -0.6326208E-05 Eh
 * total energy  :   -67.4285995 Eh     change       -0.7300235E-05 Eh
 * total energy  :   -67.4286052 Eh     change       -0.5705510E-05 Eh
 * total energy  :   -67.4286095 Eh     change       -0.4263040E-05 Eh
   *** GEOMETRY OPTIMIZATION CONVERGED AFTER 55 ITERATIONS ***

 final structure:
================
65
 xtb: 6.7.1 (edcfbbe)
C           -0.28452517479217        0.16549656599037        0.55313518996681
C           -0.15227600133422        1.24477403938360       -0.51463988308663
C            0.93263967698358        0.94087028627793       -1.54951617680116
C            0.72762215469329       -0.35227072301010       -2.34370938963538
C           -0.58604079440696       -0.43245131707389       -3.12507671899391
C           -0.74512979891223        0.64197851695478       -4.21113184394277
P           -0.20485461186937        0.10769086137611       -5.87252525944933
C           -1.16202276061370       -1.36853155672121       -6.38556702345229
C           -2.64596836847257       -1.36030780324591       -6.01366166577569
C           -3.45603065419526       -0.25051372920280       -6.68240169976239
C           -3.59903301714357       -0.38185320619341       -8.20101097549131
C           -4.34280778769305       -1.63470341595568       -8.66973388422314
C           -5.77926597451042       -1.70853615360410       -8.16699602338848
C           -0.37399387857650        1.43152273604923       -7.13892527643686
C           -0.76483770942618        2.81858353745004       -6.62188588360793
C            0.39925159279575        3.58991732840248       -5.99892222981101
C            1.41034600565181        4.13121654222354       -7.01349228630524
C            0.87027485242295        5.22295255286377       -7.94001361296201
C            0.43681918895659        6.48436671386929       -7.20316082968706
C            1.52898910887325       -0.48050355094415       -5.88775391036478
C            2.57002977545899        0.58491562001836       -5.56689826652308
H           -0.66094949867411       -0.76581284738286        0.13697005113544
H           -0.97559992202216        0.48966316523856        1.32654932890647
H            0.67886990631186       -0.02829102299538        1.01834526585198
H           -1.11507241565258        1.39424426984549       -1.00817169156373
H            0.10754154805179        2.18736375134798       -0.02917829943812
H            1.01532991982100        1.79422119055479       -2.22871663269455
H            1.88972408294968        0.85762571678029       -1.03083681740120
H            1.57349593669424       -0.47721234009035       -3.02180335998243
H            0.74961168984706       -1.19229892616196       -1.64889306290865
H           -0.66808745186797       -1.42954351304053       -3.56565593746111
H           -1.41033768134037       -0.32868187431167       -2.41912215267681
H           -1.79776178125583        0.91847590556847       -4.31914718833942
H           -0.19950617368311        1.54603898280779       -3.93874818545638
H           -1.03661482314519       -1.46773386896041       -7.46736208587380
H           -0.67518391085774       -2.23285934741719       -5.92285985227233
H           -3.06639818240976       -2.32761394393414       -6.29105608736158
H           -2.74759898501571       -1.26900918407146       -4.93040977403549
H           -4.45353561206496       -0.24578925810379       -6.24263276705756
H           -2.99891353134752        0.71730675116715       -6.45070575460758
H           -4.14171671420632        0.49461561006347       -8.56154772514774
H           -2.61442216497589       -0.36959372466402       -8.67718717704732
H           -4.35378149418146       -1.62379770616579       -9.76135640727340
H           -3.80140015874737       -2.53238440419132       -8.36434539391209
H           -6.31833880606227       -0.79850912410154       -8.41945148429711
H           -6.29192388376654       -2.54662713416014       -8.63105252847130
H           -5.81906752370514       -1.84836999819535       -7.08957837740635
H            0.57828059458521        1.48664018257585       -7.67216932393304
H           -1.12436667585157        1.07933299040311       -7.85040786558282
H           -1.15623887912155        3.39232929058967       -7.46239179050021
H           -1.57506528420745        2.73029203867766       -5.89521094951648
H           -0.00294156014904        4.42777973840586       -5.42990775221214
H            0.92747171590774        2.94087549040808       -5.29517602314692
H            2.25648386288812        4.54077096611559       -6.45798581563316
H            1.79474457735198        3.31499065381674       -7.63133923236946
H            1.66482267306645        5.48331383546827       -8.64176347044347
H            0.03510333004235        4.84080363411830       -8.53050731884475
H            1.24199013457659        6.85334200513237       -6.57242887457140
H            0.18184034317168        7.26184003881109       -7.91807114204223
H           -0.43679437651017        6.30420923251656       -6.58163586627888
H            1.59773002157756       -1.30985526761043       -5.17851474487595
H            1.70128346891225       -0.88763592968182       -6.89003325034463
H            2.41736393906467        1.00598039111349       -4.57601486849691
H            3.56169739381990        0.13937763050779       -5.59028747763583
H            2.55251652821628        1.39308210839531       -6.29340248694508

          :  Hamiltonian                  GFN2-xTB          :
         :: total energy             -67.428609465561 Eh    ::
         :: gradient norm              0.000232608471 Eh/a0 ::
         :: HOMO-LUMO gap              6.104789133542 eV    ::
         :: SCC energy               -68.426051065840 Eh    ::
         :: -> dispersion             -0.058271936477 Eh    ::
         :: repulsion energy           0.997441600280 Eh    ::

    * Orbital Energies and Occupations

         #    Occupation            Energy/Eh            Energy/eV
      -------------------------------------------------------------
         1        2.0000           -0.8411200             -22.8880
       ...           ...                  ...                  ...
        52        2.0000           -0.5502893             -14.9741
        53        2.0000           -0.5486040             -14.9283
        54        2.0000           -0.5464156             -14.8687
        55        2.0000           -0.5460456             -14.8587
        56        2.0000           -0.5278832             -14.3644
        57        2.0000           -0.5250523             -14.2874
        58        2.0000           -0.5247043             -14.2779
        59        2.0000           -0.5207659             -14.1708
        60        2.0000           -0.5186413             -14.1129
        61        2.0000           -0.5178707             -14.0920
        62        2.0000           -0.5153574             -14.0236
        63        2.0000           -0.5138760             -13.9833
        64        2.0000           -0.5125473             -13.9471 (HOMO)
        65                         -0.2882004              -7.8423 (LUMO)
        66                         -0.2855232              -7.7695
        67                         -0.2647282              -7.2036
        68                         -0.1900774              -5.1723
        69                         -0.1118540              -3.0437
        70                         -0.0693541              -1.8872
        71                         -0.0541208              -1.4727
        72                         -0.0435359              -1.1847
        73                         -0.0429830              -1.1696
        74                         -0.0341325              -0.9288
        75                         -0.0326512              -0.8885
       ...                                ...                  ...
       133                          0.8019577              21.8224
      -------------------------------------------------------------
                  HL-Gap            0.2243469 Eh            6.1048 eV

     #   Z          covCN         q      C6AA      α(0)
     1   6 C        3.752    -0.108    22.623     6.783
     2   6 C        3.799    -0.056    21.589     6.616
     3   6 C        3.800    -0.061    21.674     6.628
     4   6 C        3.800    -0.066    21.775     6.644
     5   6 C        3.855    -0.062    21.651     6.618
     6   6 C        3.750    -0.069    21.884     6.672
     7  15 P        3.920     0.178   152.575    22.189
     8   6 C        3.750    -0.076    22.016     6.692
     9   6 C        3.845    -0.065    21.707     6.627
    10   6 C        3.800    -0.065    21.747     6.640
    11   6 C        3.800    -0.060    21.658     6.626
    12   6 C        3.799    -0.056    21.584     6.615
    13   6 C        3.751    -0.108    22.633     6.784
    14   6 C        3.750    -0.075    22.005     6.690
    15   6 C        3.839    -0.063    21.684     6.625
    16   6 C        3.800    -0.065    21.754     6.641
    17   6 C        3.800    -0.061    21.668     6.627
    18   6 C        3.799    -0.056    21.589     6.616
    19   6 C        3.751    -0.108    22.626     6.783
    20   6 C        3.749    -0.070    21.905     6.675
    21   6 C        3.804    -0.114    22.671     6.779
    22   1 H        0.925     0.034     2.537     2.491
    23   1 H        0.925     0.044     2.396     2.421
    24   1 H        0.925     0.043     2.414     2.430
    25   1 H        0.924     0.028     2.621     2.532
    26   1 H        0.924     0.041     2.438     2.442
    27   1 H        0.924     0.020     2.731     2.584
    28   1 H        0.924     0.047     2.362     2.403
    29   1 H        0.924     0.034     2.530     2.488
    30   1 H        0.924     0.057     2.233     2.337
    31   1 H        0.924     0.046     2.375     2.410
    32   1 H        0.924     0.068     2.113     2.273
    33   1 H        0.928     0.089     1.891     2.151
    34   1 H        0.926     0.100     1.785     2.089
    35   1 H        0.927     0.088     1.902     2.157
    36   1 H        0.927     0.080     1.976     2.198
    37   1 H        0.924     0.070     2.090     2.261
    38   1 H        0.924     0.050     2.322     2.383
    39   1 H        0.925     0.059     2.207     2.323
    40   1 H        0.924     0.030     2.589     2.516
    41   1 H        0.924     0.044     2.395     2.420
    42   1 H        0.924     0.019     2.756     2.596
    43   1 H        0.924     0.041     2.436     2.441
    44   1 H        0.924     0.030     2.585     2.514
    45   1 H        0.925     0.042     2.422     2.434
    46   1 H        0.925     0.046     2.376     2.410
    47   1 H        0.925     0.035     2.513     2.479
    48   1 H        0.926     0.091     1.869     2.138
    49   1 H        0.927     0.091     1.873     2.140
    50   1 H        0.924     0.070     2.087     2.259
    51   1 H        0.924     0.044     2.395     2.420
    52   1 H        0.925     0.057     2.239     2.340
    53   1 H        0.924     0.030     2.586     2.515
    54   1 H        0.924     0.044     2.392     2.419
    55   1 H        0.924     0.022     2.711     2.575
    56   1 H        0.924     0.041     2.433     2.439
    57   1 H        0.924     0.030     2.588     2.516
    58   1 H        0.925     0.042     2.429     2.437
    59   1 H        0.925     0.045     2.384     2.414
    60   1 H        0.925     0.034     2.525     2.485
    61   1 H        0.926     0.087     1.904     2.158
    62   1 H        0.927     0.084     1.940     2.178
    63   1 H        0.925     0.061     2.185     2.312
    64   1 H        0.925     0.071     2.073     2.252
    65   1 H        0.925     0.063     2.166     2.301

Wiberg/Mayer (AO) data.
largest (>0.10) Wiberg bond orders for each atom

     #   Z sym  total        # sym  WBO       # sym  WBO       # sym  WBO
 ---------------------------------------------------------------------------
     1   6 C    3.995 --     2 C    1.020    24 H    0.987    23 H    0.986
                            22 H    0.986
     2   6 C    3.997 --     1 C    1.020     3 C    1.007    26 H    0.977
                            25 H    0.976
     3   6 C    3.996 --     2 C    1.007     4 C    1.007    28 H    0.975
                            27 H    0.972
     4   6 C    3.993 --     3 C    1.007     5 C    1.007    30 H    0.971
                            29 H    0.969
     5   6 C    3.988 --     4 C    1.007     6 C    0.981    32 H    0.968
                            31 H    0.964
     6   6 C    3.985 --     7 P    1.007     5 C    0.981    33 H    0.928
                            34 H    0.925
     7  15 P    4.561 --    20 C    1.008     6 C    1.007     8 C    1.006
                            14 C    0.994
     8   6 C    3.988 --     7 P    1.006     9 C    0.990    36 H    0.936
                            35 H    0.932
     9   6 C    3.986 --    10 C    1.008     8 C    0.990    38 H    0.969
                            37 H    0.965
    10   6 C    3.994 --     9 C    1.008    11 C    1.007    39 H    0.971
                            40 H    0.959
    11   6 C    3.996 --    10 C    1.007    12 C    1.007    41 H    0.976
                            42 H    0.970
    12   6 C    3.996 --    13 C    1.021    11 C    1.007    43 H    0.977
                            44 H    0.975
    13   6 C    3.995 --    12 C    1.021    45 H    0.987    46 H    0.986
                            47 H    0.986
    14   6 C    3.984 --     7 P    0.994    15 C    0.989    49 H    0.932
                            48 H    0.931
    15   6 C    3.988 --    16 C    1.007    14 C    0.989    51 H    0.968
                            50 H    0.964
    16   6 C    3.994 --    15 C    1.007    17 C    1.007    52 H    0.971
                            53 H    0.963
    17   6 C    3.996 --    18 C    1.007    16 C    1.007    54 H    0.975
                            55 H    0.972
    18   6 C    3.996 --    19 C    1.021    17 C    1.007    56 H    0.977
                            57 H    0.974
    19   6 C    3.995 --    18 C    1.021    58 H    0.987    59 H    0.986
                            60 H    0.985
    20   6 C    3.991 --     7 P    1.008    21 C    1.005    61 H    0.935
                            62 H    0.934
    21   6 C    3.984 --    20 C    1.005    64 H    0.978    63 H    0.977
                            65 H    0.976
    22   1 H    0.999 --     1 C    0.986
    23   1 H    0.998 --     1 C    0.986
    24   1 H    0.998 --     1 C    0.987
    25   1 H    0.999 --     2 C    0.976
    26   1 H    0.998 --     2 C    0.977
    27   1 H    1.000 --     3 C    0.972
    28   1 H    0.998 --     3 C    0.975
    29   1 H    0.999 --     4 C    0.969
    30   1 H    0.996 --     4 C    0.971
    31   1 H    0.998 --     5 C    0.964
    32   1 H    0.995 --     5 C    0.968
    33   1 H    0.992 --     6 C    0.928
    34   1 H    0.990 --     6 C    0.925
    35   1 H    0.992 --     8 C    0.932
    36   1 H    0.993 --     8 C    0.936
    37   1 H    0.995 --     9 C    0.965
    38   1 H    0.997 --     9 C    0.969
    39   1 H    0.996 --    10 C    0.971
    40   1 H    0.999 --    10 C    0.959
    41   1 H    0.998 --    11 C    0.976
    42   1 H    1.000 --    11 C    0.970
    43   1 H    0.998 --    12 C    0.977
    44   1 H    0.999 --    12 C    0.975
    45   1 H    0.998 --    13 C    0.987
    46   1 H    0.998 --    13 C    0.986
    47   1 H    0.999 --    13 C    0.986
    48   1 H    0.991 --    14 C    0.931
    49   1 H    0.992 --    14 C    0.932
    50   1 H    0.995 --    15 C    0.964
    51   1 H    0.998 --    15 C    0.968
    52   1 H    0.997 --    16 C    0.971
    53   1 H    0.999 --    16 C    0.963
    54   1 H    0.998 --    17 C    0.975
    55   1 H    1.000 --    17 C    0.972
    56   1 H    0.998 --    18 C    0.977
    57   1 H    0.999 --    18 C    0.974
    58   1 H    0.998 --    19 C    0.987
    59   1 H    0.998 --    19 C    0.986
    60   1 H    0.999 --    19 C    0.985
    61   1 H    0.992 --    20 C    0.935
    62   1 H    0.993 --    20 C    0.934
    63   1 H    0.996 --    21 C    0.977
    64   1 H    0.994 --    21 C    0.978
    65   1 H    0.996 --    21 C    0.976
 ---------------------------------------------------------------------------

molecular dipole:
                 x           y           z       tot (Debye)
 q only:       -0.649       0.668     -10.730
   full:       -0.608       0.538     -10.844      27.640

           -------------------------------------------------
          | TOTAL ENERGY              -67.428609465561 Eh   |
          | GRADIENT NORM               0.000232608471 Eh/α |
          | HOMO-LUMO GAP               6.104789133542 eV   |
           -------------------------------------------------

 * finished run on 2024/12/20 at 06:54:23.892
