   * xtb version 6.7.1 (edcfbbe) compiled by 'conda@3ef47c1a292c' on 2024-11-25

   ID    Z sym.   atoms
    1    8 O      1
    2    6 C      2, 3, 5-15
    3    7 N      4
    4    1 H      16-37

          program call               : xtb C0731.xyz --opt --namespace C0731 --charge +1
          :  Hamiltonian                  GFN2-xTB          :
 * total energy  :   -45.6184535 Eh     change       -0.2017202E-08 Eh
 * total energy  :   -45.6275699 Eh     change       -0.9116417E-02 Eh
 * total energy  :   -45.6303805 Eh     change       -0.2810591E-02 Eh
 * total energy  :   -45.6307516 Eh     change       -0.3711054E-03 Eh
 * total energy  :   -45.6309536 Eh     change       -0.2020059E-03 Eh
 * total energy  :   -45.6310408 Eh     change       -0.8716015E-04 Eh
 * total energy  :   -45.6311913 Eh     change       -0.1504708E-03 Eh
 * total energy  :   -45.6313332 Eh     change       -0.1419035E-03 Eh
 * total energy  :   -45.6314838 Eh     change       -0.1505748E-03 Eh
 * total energy  :   -45.6316089 Eh     change       -0.1251838E-03 Eh
 * total energy  :   -45.6444315 Eh     change       -0.7637075E-04 Eh
 * total energy  :   -45.6444955 Eh     change       -0.6398056E-04 Eh
 * total energy  :   -45.6445320 Eh     change       -0.3656567E-04 Eh
 * total energy  :   -45.6445616 Eh     change       -0.2953967E-04 Eh
 * total energy  :   -45.6445809 Eh     change       -0.1932049E-04 Eh
 * total energy  :   -45.6445925 Eh     change       -0.1162467E-04 Eh
 * total energy  :   -45.6445999 Eh     change       -0.7381004E-05 Eh
 * total energy  :   -45.6446052 Eh     change       -0.5260997E-05 Eh
 * total energy  :   -45.6446080 Eh     change       -0.2890229E-05 Eh
   *** GEOMETRY OPTIMIZATION CONVERGED AFTER 108 ITERATIONS ***

 final structure:
================
37
 xtb: 6.7.1 (edcfbbe)
O            0.97921088295131       -0.82848330184170        0.17731729118529
C            0.46480397811243        0.26941339922009        0.89283490863856
C            1.00550257949383        0.27562342957548        2.32850747930983
N            2.48810691573687        0.20658226659018        2.48394881364770
C            3.16199664151242        1.12146976441367        1.49534498882839
C            4.65066524107838        1.26366908241405        1.69636286750027
C            5.46697572578649        0.33331425964788        1.05196919357577
C            6.83816440105120        0.37259041633246        1.19609040197035
C            7.40868793703992        1.35466111425678        1.98435438171438
C            6.62560551571673        2.31999672678000        2.59985484507630
C            5.22998434108980        2.28994315944140        2.45169737062633
C            4.44320846904110        3.39134822989454        3.10011834524401
C            7.28405657334638        3.39073661476894        3.41054680280220
C            2.82313164181995        0.60206426652189        3.86368724203648
C            2.94795613766807       -1.18137769516813        2.28331149018195
H            0.46015334064958       -0.97447572503613       -0.62040308806596
H            0.70759305739009        1.20977738406765        0.37938325142444
H           -0.62717415419250        0.20906100685136        0.97832798906924
H            0.64751529097666        1.19163427398393        2.80292491430695
H            0.58562940822095       -0.57996424747747        2.86101550864236
H            2.66331845468934        2.08878194383800        1.55541151114107
H            2.98574540591094        0.69444735262055        0.50741853233664
H            5.02328925852461       -0.41512168966132        0.41197548821301
H            7.45722529952736       -0.35328516428598        0.69378925737109
H            8.48022396687102        1.38594958127642        2.10688930336281
H            3.39971648566209        3.41527397214346        2.80499923750100
H            4.49723060054933        3.31520443540096        4.18631508338301
H            4.87836835072068        4.35119579582561        2.82781165585854
H            7.13375358758237        4.36756653595045        2.95200545871714
H            6.87391566825382        3.43107107968399        4.41827480621255
H            8.35290653018722        3.21200190458946        3.48029531194456
H            2.31985275963899       -0.05388048041594        4.57163536711624
H            3.89858159187501        0.52616913180439        4.01241758852556
H            2.51420850918847        1.62702677234759        4.05374079685726
H            2.50624729597285       -1.83021119363336        3.03694791844123
H            2.64343583811614       -1.52943926506014        1.29907473840668
H            4.03117647223723       -1.22262513766104        2.37262294691293

          :  Hamiltonian                  GFN2-xTB          :
         :: total energy             -45.644608041934 Eh    ::
         :: gradient norm              0.000607107482 Eh/a0 ::
         :: HOMO-LUMO gap              4.274255115788 eV    ::
         :: SCC energy               -46.324554873048 Eh    ::
         :: -> dispersion             -0.033575614423 Eh    ::
         :: repulsion energy           0.679946831115 Eh    ::

    * Orbital Energies and Occupations

         #    Occupation            Energy/Eh            Energy/eV
      -------------------------------------------------------------
         1        2.0000           -0.8517659             -23.1777
       ...           ...                  ...                  ...
        30        2.0000           -0.6014590             -16.3665
        31        2.0000           -0.5996696             -16.3178
        32        2.0000           -0.5878588             -15.9965
        33        2.0000           -0.5811315             -15.8134
        34        2.0000           -0.5805070             -15.7964
        35        2.0000           -0.5753529             -15.6561
        36        2.0000           -0.5679582             -15.4549
        37        2.0000           -0.5591603             -15.2155
        38        2.0000           -0.5551201             -15.1056
        39        2.0000           -0.5341821             -14.5358
        40        2.0000           -0.5293044             -14.4031
        41        2.0000           -0.5118456             -13.9280
        42        2.0000           -0.5006865             -13.6244 (HOMO)
        43                         -0.3436106              -9.3501 (LUMO)
        44                         -0.3312048              -9.0125
        45                         -0.2279553              -6.2030
        46                         -0.1997391              -5.4352
        47                         -0.1500742              -4.0837
        48                         -0.1376447              -3.7455
        49                         -0.1308968              -3.5619
        50                         -0.0999707              -2.7203
        51                         -0.0503924              -1.3712
        52                         -0.0433323              -1.1791
        53                         -0.0267230              -0.7272
       ...                                ...                  ...
        82                          0.5363890              14.5959
      -------------------------------------------------------------
                  HL-Gap            0.1570760 Eh            4.2743 eV

     #   Z          covCN         q      C6AA      α(0)
     1   8 O        1.656    -0.438    21.600     6.274
     2   6 C        3.672     0.073    19.594     6.344
     3   6 C        3.762    -0.041    21.350     6.587
     4   7 N        3.620     0.135    18.934     6.463
     5   6 C        3.760    -0.042    21.381     6.592
     6   6 C        2.966    -0.021    28.517     8.759
     7   6 C        2.926    -0.050    29.246     8.869
     8   6 C        2.915    -0.031    28.776     8.797
     9   6 C        2.925    -0.034    28.835     8.806
    10   6 C        2.971     0.017    27.623     8.621
    11   6 C        2.968     0.001    28.003     8.680
    12   6 C        3.758    -0.119    22.839     6.813
    13   6 C        3.759    -0.118    22.816     6.810
    14   6 C        3.725    -0.095    22.423     6.761
    15   6 C        3.721    -0.102    22.567     6.785
    16   1 H        0.805     0.314     0.680     1.296
    17   1 H        0.923     0.048     2.346     2.395
    18   1 H        0.924     0.062     2.181     2.309
    19   1 H        0.924     0.084     1.936     2.176
    20   1 H        0.924     0.097     1.809     2.103
    21   1 H        0.925     0.077     2.013     2.219
    22   1 H        0.924     0.098     1.806     2.102
    23   1 H        0.926     0.039     2.457     2.451
    24   1 H        0.926     0.053     2.287     2.365
    25   1 H        0.926     0.055     2.254     2.348
    26   1 H        0.925     0.033     2.543     2.494
    27   1 H        0.925     0.055     2.260     2.351
    28   1 H        0.925     0.069     2.094     2.263
    29   1 H        0.925     0.061     2.183     2.310
    30   1 H        0.925     0.057     2.240     2.340
    31   1 H        0.925     0.058     2.223     2.331
    32   1 H        0.925     0.091     1.871     2.139
    33   1 H        0.925     0.105     1.744     2.065
    34   1 H        0.925     0.095     1.828     2.114
    35   1 H        0.925     0.088     1.894     2.152
    36   1 H        0.925     0.126     1.568     1.958
    37   1 H        0.925     0.100     1.786     2.090

Wiberg/Mayer (AO) data.
largest (>0.10) Wiberg bond orders for each atom

     #   Z sym  total        # sym  WBO       # sym  WBO       # sym  WBO
 ---------------------------------------------------------------------------
     1   8 O    1.960 --     2 C    1.006    16 H    0.885
     2   6 C    3.959 --     1 O    1.006     3 C    1.003    17 H    0.965
                            18 H    0.964
     3   6 C    3.945 --     2 C    1.003    19 H    0.968    20 H    0.965
                             4 N    0.942
     4   7 N    3.811 --    14 C    0.961    15 C    0.955     3 C    0.942
                             5 C    0.906
     5   6 C    3.923 --     6 C    1.005    22 H    0.961    21 H    0.959
                             4 N    0.906
     6   6 C    3.974 --     7 C    1.393    11 C    1.393     5 C    1.005
                             9 C    0.102
     7   6 C    3.991 --     8 C    1.450     6 C    1.393    23 H    0.966
                            10 C    0.105
     8   6 C    3.991 --     7 C    1.450     9 C    1.431    24 H    0.969
                            11 C    0.101
     9   6 C    3.990 --     8 C    1.431    10 C    1.422    25 H    0.966
                             6 C    0.102
    10   6 C    3.988 --     9 C    1.422    11 C    1.366    13 C    1.035
                             7 C    0.105
    11   6 C    3.988 --     6 C    1.393    10 C    1.366    12 C    1.031
                             8 C    0.101
    12   6 C    3.994 --    11 C    1.031    26 H    0.975    28 H    0.966
                            27 H    0.965
    13   6 C    3.993 --    10 C    1.035    31 H    0.983    30 H    0.968
                            29 H    0.961
    14   6 C    3.930 --    32 H    0.976    34 H    0.973    33 H    0.970
                             4 N    0.961
    15   6 C    3.918 --    35 H    0.975    37 H    0.969    36 H    0.962
                             4 N    0.955
    16   1 H    0.901 --     1 O    0.885
    17   1 H    0.998 --     2 C    0.965
    18   1 H    0.996 --     2 C    0.964
    19   1 H    0.993 --     3 C    0.968
    20   1 H    0.990 --     3 C    0.965
    21   1 H    0.994 --     5 C    0.959
    22   1 H    0.990 --     5 C    0.961
    23   1 H    0.998 --     7 C    0.966
    24   1 H    0.996 --     8 C    0.969
    25   1 H    0.996 --     9 C    0.966
    26   1 H    0.999 --    12 C    0.975
    27   1 H    0.997 --    12 C    0.965
    28   1 H    0.995 --    12 C    0.966
    29   1 H    0.996 --    13 C    0.961
    30   1 H    0.997 --    13 C    0.968
    31   1 H    0.996 --    13 C    0.983
    32   1 H    0.992 --    14 C    0.976
    33   1 H    0.989 --    14 C    0.970
    34   1 H    0.991 --    14 C    0.973
    35   1 H    0.992 --    15 C    0.975
    36   1 H    0.984 --    15 C    0.962
    37   1 H    0.990 --    15 C    0.969
 ---------------------------------------------------------------------------

molecular dipole:
                 x           y           z       tot (Debye)
 q only:        5.148       1.140       4.585
   full:        4.841       1.267       4.483      17.078

           -------------------------------------------------
          | TOTAL ENERGY              -45.644608041934 Eh   |
          | GRADIENT NORM               0.000607107482 Eh/α |
          | HOMO-LUMO GAP               4.274255115788 eV   |
           -------------------------------------------------

 * finished run on 2024/12/20 at 06:54:46.112
