   * xtb version 6.7.1 (edcfbbe) compiled by 'conda@3ef47c1a292c' on 2024-11-25

   ID    Z sym.   atoms
    1    6 C      1, 2, 4, 5, 7, 8
    2    7 N      3, 6
    3    1 H      9-19

          program call               : xtb C0734.xyz --opt --namespace C0734 --charge +1
          :  Hamiltonian                  GFN2-xTB          :
 * total energy  :   -23.8075511 Eh     change       -0.9498891E-10 Eh
 * total energy  :   -23.8363117 Eh     change       -0.2876063E-01 Eh
 * total energy  :   -23.8487144 Eh     change       -0.1240275E-01 Eh
 * total energy  :   -23.8514655 Eh     change       -0.2751051E-02 Eh
 * total energy  :   -23.8529286 Eh     change       -0.1463101E-02 Eh
 * total energy  :   -23.8539700 Eh     change       -0.1041450E-02 Eh
 * total energy  :   -23.8547498 Eh     change       -0.7797766E-03 Eh
 * total energy  :   -23.8552032 Eh     change       -0.4533778E-03 Eh
 * total energy  :   -23.8554100 Eh     change       -0.2067511E-03 Eh
 * total energy  :   -23.8555577 Eh     change       -0.1477273E-03 Eh
 * total energy  :   -23.8562237 Eh     change        0.1547479E-04 Eh
 * total energy  :   -23.8562624 Eh     change       -0.3861220E-04 Eh
 * total energy  :   -23.8562588 Eh     change        0.3563020E-05 Eh
 * total energy  :   -23.8562698 Eh     change       -0.1099409E-04 Eh
 * total energy  :   -23.8562763 Eh     change       -0.6493771E-05 Eh
 * total energy  :   -23.8562812 Eh     change       -0.4896528E-05 Eh
 * total energy  :   -23.8562877 Eh     change       -0.6481066E-05 Eh
 * total energy  :   -23.8562927 Eh     change       -0.5048015E-05 Eh
 * total energy  :   -23.8562975 Eh     change       -0.4786155E-05 Eh
   *** GEOMETRY OPTIMIZATION CONVERGED AFTER 49 ITERATIONS ***

 final structure:
================
19
 xtb: 6.7.1 (edcfbbe)
C            0.86005123038990       -0.03622562184093        0.12256217206787
C            0.43050105856467        0.21106292911301        1.49842949483564
N           -0.03631292648943       -0.56523534629547        2.35859994366594
C           -0.31578486330422        0.11030599228677        3.55431208297002
C           -0.00100374286640        1.41693928682084        3.44287823276945
N            0.52646279712774        1.63246998166122        2.07943286535942
C           -0.09363593682436        2.56574419770725        4.36627874228705
C           -0.88116961555439       -0.65408422540993        4.68133640023274
H            0.24550120305590        0.51779739700118       -0.58758081772684
H            0.75991291189285       -1.09819022878394       -0.08721384184114
H            1.89877462100637        0.25647124812980       -0.02910916514227
H            1.49389119069144        1.97964092401192        2.08543795431750
H           -0.03379909208088        2.30796110582911        1.54439714262665
H            0.87068075571499        3.06061764619287        4.48197873025753
H           -0.81214567658532        3.30381813597425        4.00772563813914
H           -0.42146609686188        2.22527590968498        5.34345584342692
H           -0.91034310827907       -0.06399138928922        5.59160221472041
H           -1.89041494441658       -0.97855142423124        4.43066331092086
H           -0.28775976518107       -1.55167651856251        4.84112305611317

          :  Hamiltonian                  GFN2-xTB          :
         :: total energy             -23.856297495906 Eh    ::
         :: gradient norm              0.000826743098 Eh/a0 ::
         :: HOMO-LUMO gap              3.153762082024 eV    ::
         :: SCC energy               -24.226788547913 Eh    ::
         :: -> dispersion             -0.011637932495 Eh    ::
         :: repulsion energy           0.370491052007 Eh    ::

    * Orbital Energies and Occupations

         #    Occupation            Energy/Eh            Energy/eV
      -------------------------------------------------------------
         1        2.0000           -0.8927479             -24.2929
       ...           ...                  ...                  ...
        10        2.0000           -0.7260904             -19.7579
        11        2.0000           -0.6889516             -18.7473
        12        2.0000           -0.6740416             -18.3416
        13        2.0000           -0.6620979             -18.0166
        14        2.0000           -0.6608384             -17.9823
        15        2.0000           -0.6414389             -17.4544
        16        2.0000           -0.6373657             -17.3436
        17        2.0000           -0.6323117             -17.2061
        18        2.0000           -0.6268681             -17.0579
        19        2.0000           -0.6129990             -16.6806
        20        2.0000           -0.6032522             -16.4153
        21        2.0000           -0.5748918             -15.6436
        22        2.0000           -0.5581503             -15.1880 (HOMO)
        23                         -0.4422517             -12.0343 (LUMO)
        24                         -0.3479441              -9.4680
        25                         -0.2593747              -7.0579
        26                         -0.2072289              -5.6390
        27                         -0.1181473              -3.2150
        28                         -0.0933804              -2.5410
        29                         -0.0561980              -1.5292
        30                         -0.0261267              -0.7109
        31                          0.0065103               0.1772
        32                          0.0188659               0.5134
        33                          0.0303144               0.8249
       ...                                ...                  ...
        43                          0.4891971              13.3117
      -------------------------------------------------------------
                  HL-Gap            0.1158986 Eh            3.1538 eV

     #   Z          covCN         q      C6AA      α(0)
     1   6 C        3.755    -0.145    23.363     6.892
     2   6 C        2.982     0.152    24.689     8.151
     3   7 N        1.877    -0.167    25.416     7.473
     4   6 C        3.055     0.087    26.004     8.363
     5   6 C        2.946     0.022    27.517     8.604
     6   7 N        3.568    -0.073    22.652     7.069
     7   6 C        3.753    -0.132    23.105     6.854
     8   6 C        3.756    -0.130    23.059     6.847
     9   1 H        0.924     0.106     1.733     2.059
    10   1 H        0.925     0.126     1.564     1.956
    11   1 H        0.925     0.103     1.758     2.073
    12   1 H        0.859     0.248     0.891     1.479
    13   1 H        0.859     0.248     0.891     1.478
    14   1 H        0.925     0.083     1.953     2.185
    15   1 H        0.924     0.086     1.919     2.166
    16   1 H        0.925     0.098     1.806     2.102
    17   1 H        0.925     0.079     1.992     2.207
    18   1 H        0.925     0.105     1.741     2.064
    19   1 H        0.925     0.106     1.734     2.059

Wiberg/Mayer (AO) data.
largest (>0.10) Wiberg bond orders for each atom

     #   Z sym  total        # sym  WBO       # sym  WBO       # sym  WBO
 ---------------------------------------------------------------------------
     1   6 C    3.974 --     2 C    1.067    10 H    0.958    11 H    0.946
                             9 H    0.941
     2   6 C    3.928 --     3 N    1.849     1 C    1.067     6 N    0.829
     3   7 N    3.148 --     2 C    1.849     4 C    1.079
     4   6 C    3.968 --     5 C    1.694     3 N    1.079     8 C    1.052
     5   6 C    3.892 --     4 C    1.694     7 C    1.049     6 N    0.926
     6   7 N    3.702 --     5 C    0.926    13 H    0.899    12 H    0.899
                             2 C    0.829
     7   6 C    3.981 --     5 C    1.049    16 H    0.967    14 H    0.959
                            15 H    0.954
     8   6 C    3.981 --     4 C    1.052    17 H    0.975    19 H    0.952
                            18 H    0.943
     9   1 H    0.988 --     1 C    0.941
    10   1 H    0.983 --     1 C    0.958
    11   1 H    0.988 --     1 C    0.946
    12   1 H    0.939 --     6 N    0.899
    13   1 H    0.938 --     6 N    0.899
    14   1 H    0.993 --     7 C    0.959
    15   1 H    0.992 --     7 C    0.954
    16   1 H    0.990 --     7 C    0.967
    17   1 H    0.993 --     8 C    0.975
    18   1 H    0.989 --     8 C    0.943
    19   1 H    0.989 --     8 C    0.952
 ---------------------------------------------------------------------------

molecular dipole:
                 x           y           z       tot (Debye)
 q only:        0.657       2.432       4.420
   full:        0.859       3.066       4.211      13.418

           -------------------------------------------------
          | TOTAL ENERGY              -23.856297495906 Eh   |
          | GRADIENT NORM               0.000826743098 Eh/α |
          | HOMO-LUMO GAP               3.153762082024 eV   |
           -------------------------------------------------

 * finished run on 2024/12/20 at 06:54:49.567
