   * xtb version 6.7.1 (edcfbbe) compiled by 'conda@3ef47c1a292c' on 2024-11-25

   ID    Z sym.   atoms
    1    6 C      1-4, 6, 8, 10-14
    2    8 O      5, 7
    3    7 N      9
    4    1 H      15-30

          program call               : xtb C0737.xyz --opt --namespace C0737 --charge +1
          :  Hamiltonian                  GFN2-xTB          :
 * total energy  :   -42.3644726 Eh     change       -0.5829506E-09 Eh
 * total energy  :   -42.3699442 Eh     change       -0.5471620E-02 Eh
 * total energy  :   -42.3712933 Eh     change       -0.1349084E-02 Eh
 * total energy  :   -42.3716543 Eh     change       -0.3610250E-03 Eh
 * total energy  :   -42.3718624 Eh     change       -0.2081265E-03 Eh
 * total energy  :   -42.3719660 Eh     change       -0.1035959E-03 Eh
 * total energy  :   -42.3721415 Eh     change       -0.1754459E-03 Eh
 * total energy  :   -42.3723305 Eh     change       -0.1890086E-03 Eh
 * total energy  :   -42.3725366 Eh     change       -0.2060956E-03 Eh
 * total energy  :   -42.3727602 Eh     change       -0.2235646E-03 Eh
 * total energy  :   -42.3745289 Eh     change       -0.9528583E-04 Eh
 * total energy  :   -42.3745890 Eh     change       -0.6014416E-04 Eh
 * total energy  :   -42.3746395 Eh     change       -0.5050002E-04 Eh
 * total energy  :   -42.3746579 Eh     change       -0.1833582E-04 Eh
 * total energy  :   -42.3746710 Eh     change       -0.1314661E-04 Eh
 * total energy  :   -42.3746762 Eh     change       -0.5205694E-05 Eh
 * total energy  :   -42.3746899 Eh     change       -0.1372157E-04 Eh
 * total energy  :   -42.3746946 Eh     change       -0.4676983E-05 Eh
 * total energy  :   -42.3746994 Eh     change       -0.4747478E-05 Eh
   *** GEOMETRY OPTIMIZATION CONVERGED AFTER 27 ITERATIONS ***

 final structure:
================
30
 xtb: 6.7.1 (edcfbbe)
C            0.66842259718356       -0.38964719853411        0.06954326790121
C            0.20367950033771       -1.83860045801457       -0.08318397886596
C            0.79753688443901       -2.71789994084082        1.01443606043617
C           -1.32037195580786       -1.91843716617231       -0.09026350209264
O            0.20510661600850        0.13460438044314        1.33421169305114
C            0.95680271839277        0.98279306527408        1.96555176077350
O            2.01022692943849        1.45274933884078        1.63496754397917
C            0.30580862836289        1.36776303383885        3.33458560755822
N            0.81090349517932        2.65673150855011        3.72360585898762
C            0.02518593586409        3.74208974005844        3.68374617747418
C            0.53634175592538        4.99830542908813        3.92271297453495
C            1.89498912352969        5.14189354541345        4.18389336587353
C            2.69156058077573        4.00669019725954        4.21632504417647
C            2.12080032302750        2.77078529115610        3.98369099366181
H            0.24225428305858        0.23931864542576       -0.71708873964551
H            1.75867709602014       -0.31168204409077        0.03802051714101
H            0.58260970715314       -2.17794300054518       -1.05207305891043
H            0.42167749783077       -2.41753810002841        1.99020401453479
H            0.52038801227467       -3.75474502869049        0.84936840013922
H            1.88319247975579       -2.65248702295843        1.01927811737770
H           -1.73433505859529       -1.31640862343894       -0.89509734698225
H           -1.63852690587989       -2.94647841573644       -0.23539796617643
H           -1.72466209257517       -1.56381061910333        0.85444254324105
H           -0.77954259125077        1.37047933146735        3.23627068965595
H            0.59908889489388        0.60049118794622        4.05679431117998
H           -1.02047988875702        3.59071339819618        3.45964751701762
H           -0.11854809312511        5.85436731260237        3.89384720971938
H            2.31912204724592        6.11810598618000        4.35891708981785
H            3.74879571121778        4.07288776157263        4.41692446031987
H            2.70775576808089        1.86590846484168        4.00779937412725

          :  Hamiltonian                  GFN2-xTB          :
         :: total energy             -42.374699362146 Eh    ::
         :: gradient norm              0.000290044808 Eh/a0 ::
         :: HOMO-LUMO gap              1.996892673075 eV    ::
         :: SCC energy               -42.969680115110 Eh    ::
         :: -> dispersion             -0.022879218960 Eh    ::
         :: repulsion energy           0.594980752964 Eh    ::

    * Orbital Energies and Occupations

         #    Occupation            Energy/Eh            Energy/eV
      -------------------------------------------------------------
         1        2.0000           -0.8942441             -24.3336
       ...           ...                  ...                  ...
        26        2.0000           -0.6255603             -17.0224
        27        2.0000           -0.6210920             -16.9008
        28        2.0000           -0.6199704             -16.8703
        29        2.0000           -0.6128126             -16.6755
        30        2.0000           -0.6101896             -16.6041
        31        2.0000           -0.5949662             -16.1899
        32        2.0000           -0.5899952             -16.0546
        33        2.0000           -0.5743750             -15.6295
        34        2.0000           -0.5609077             -15.2631
        35        2.0000           -0.5521772             -15.0255
        36        2.0000           -0.5401211             -14.6974
        37        2.0000           -0.5365270             -14.5996
        38        2.0000           -0.5311411             -14.4531 (HOMO)
        39                         -0.4577566             -12.4562 (LUMO)
        40                         -0.4254268             -11.5765
        41                         -0.3759598             -10.2304
        42                         -0.3058547              -8.3227
        43                         -0.1760437              -4.7904
        44                         -0.1446479              -3.9361
        45                         -0.0778667              -2.1189
        46                         -0.0540168              -1.4699
        47                         -0.0368747              -1.0034
        48                         -0.0277433              -0.7549
        49                         -0.0190463              -0.5183
       ...                                ...                  ...
        72                          0.5318592              14.4726
      -------------------------------------------------------------
                  HL-Gap            0.0733845 Eh            1.9969 eV

     #   Z          covCN         q      C6AA      α(0)
     1   6 C        3.703     0.062    19.678     6.342
     2   6 C        3.849    -0.014    20.797     6.487
     3   6 C        3.755    -0.114    22.743     6.800
     4   6 C        3.756    -0.118    22.812     6.810
     5   8 O        1.702    -0.213    17.536     5.654
     6   6 C        2.713     0.363    20.849     7.474
     7   8 O        0.856    -0.389    21.456     6.210
     8   6 C        3.763    -0.067    21.832     6.660
     9   7 N        2.752     0.119    19.200     6.508
    10   6 C        2.888     0.031    27.313     8.568
    11   6 C        2.915    -0.009    28.240     8.714
    12   6 C        2.924     0.015    27.675     8.627
    13   6 C        2.915    -0.006    28.164     8.702
    14   6 C        2.895     0.042    27.065     8.530
    15   1 H        0.924     0.072     2.068     2.249
    16   1 H        0.924     0.072     2.068     2.249
    17   1 H        0.924     0.059     2.211     2.325
    18   1 H        0.925     0.041     2.439     2.442
    19   1 H        0.925     0.060     2.199     2.319
    20   1 H        0.925     0.044     2.402     2.424
    21   1 H        0.925     0.047     2.358     2.401
    22   1 H        0.925     0.060     2.201     2.320
    23   1 H        0.925     0.048     2.347     2.396
    24   1 H        0.925     0.114     1.666     2.018
    25   1 H        0.924     0.119     1.618     1.989
    26   1 H        0.926     0.108     1.715     2.048
    27   1 H        0.926     0.111     1.692     2.034
    28   1 H        0.926     0.110     1.695     2.036
    29   1 H        0.926     0.113     1.667     2.019
    30   1 H        0.926     0.122     1.598     1.977

Wiberg/Mayer (AO) data.
largest (>0.10) Wiberg bond orders for each atom

     #   Z sym  total        # sym  WBO       # sym  WBO       # sym  WBO
 ---------------------------------------------------------------------------
     1   6 C    3.884 --     2 C    0.988    16 H    0.968    15 H    0.962
                             5 O    0.894
     2   6 C    3.986 --     3 C    1.009     4 C    1.009     1 C    0.988
                            17 H    0.960
     3   6 C    3.993 --     2 C    1.009    18 H    0.986    20 H    0.986
                            19 H    0.984
     4   6 C    3.992 --     2 C    1.009    23 H    0.986    21 H    0.985
                            22 H    0.984
     5   8 O    2.388 --     6 C    1.241     1 C    0.894     7 O    0.198
     6   6 C    3.940 --     7 O    1.737     5 O    1.241     8 C    0.889
     7   8 O    2.088 --     6 C    1.737     5 O    0.198
     8   6 C    3.944 --     9 N    0.997    24 H    0.959    25 H    0.940
                             6 C    0.889
     9   7 N    3.765 --    14 C    1.312    10 C    1.308     8 C    0.997
    10   6 C    3.954 --    11 C    1.476     9 N    1.308    26 H    0.954
    11   6 C    3.980 --    10 C    1.476    12 C    1.408    27 H    0.958
    12   6 C    3.967 --    13 C    1.432    11 C    1.408    28 H    0.961
    13   6 C    3.979 --    14 C    1.451    12 C    1.432    29 H    0.958
    14   6 C    3.950 --    13 C    1.451     9 N    1.312    30 H    0.952
    15   1 H    0.995 --     1 C    0.962
    16   1 H    0.995 --     1 C    0.968
    17   1 H    0.995 --     2 C    0.960
    18   1 H    0.998 --     3 C    0.986
    19   1 H    0.996 --     3 C    0.984
    20   1 H    0.998 --     3 C    0.986
    21   1 H    0.998 --     4 C    0.985
    22   1 H    0.996 --     4 C    0.984
    23   1 H    0.998 --     4 C    0.986
    24   1 H    0.987 --     8 C    0.959
    25   1 H    0.986 --     8 C    0.940
    26   1 H    0.988 --    10 C    0.954
    27   1 H    0.987 --    11 C    0.958
    28   1 H    0.988 --    12 C    0.961
    29   1 H    0.987 --    13 C    0.958
    30   1 H    0.985 --    14 C    0.952
 ---------------------------------------------------------------------------

molecular dipole:
                 x           y           z       tot (Debye)
 q only:        1.352       4.738       6.374
   full:        1.280       4.762       6.425      20.586

           -------------------------------------------------
          | TOTAL ENERGY              -42.374699362146 Eh   |
          | GRADIENT NORM               0.000290044808 Eh/α |
          | HOMO-LUMO GAP               1.996892673075 eV   |
           -------------------------------------------------

 * finished run on 2024/12/20 at 06:54:55.505
