   * xtb version 6.7.1 (edcfbbe) compiled by 'conda@3ef47c1a292c' on 2024-11-25

   ID    Z sym.   atoms
    1    6 C      1-8, 10, 11, 13-16, 18, 19, 21-23
    2    7 N      9, 12
    3   17 Cl     17, 20
    4    8 O      24, 25
    5    1 H      26-52

          program call               : xtb C0736.xyz --opt --namespace C0736 --charge +1
          :  Hamiltonian                  GFN2-xTB          :
 * total energy  :   -77.2286912 Eh     change       -0.1410655E-08 Eh
 * total energy  :   -77.2368738 Eh     change       -0.8182564E-02 Eh
 * total energy  :   -77.2390159 Eh     change       -0.2142153E-02 Eh
 * total energy  :   -77.2394963 Eh     change       -0.4803742E-03 Eh
 * total energy  :   -77.2398862 Eh     change       -0.3898910E-03 Eh
 * total energy  :   -77.2400942 Eh     change       -0.2080417E-03 Eh
 * total energy  :   -77.2403104 Eh     change       -0.2161070E-03 Eh
 * total energy  :   -77.2404907 Eh     change       -0.1803145E-03 Eh
 * total energy  :   -77.2406414 Eh     change       -0.1507454E-03 Eh
 * total energy  :   -77.2407713 Eh     change       -0.1298800E-03 Eh
 * total energy  :   -77.2415570 Eh     change       -0.1115067E-04 Eh
 * total energy  :   -77.2415635 Eh     change       -0.6550819E-05 Eh
 * total energy  :   -77.2415701 Eh     change       -0.6592186E-05 Eh
 * total energy  :   -77.2415787 Eh     change       -0.8579896E-05 Eh
 * total energy  :   -77.2415877 Eh     change       -0.8974658E-05 Eh
 * total energy  :   -77.2415958 Eh     change       -0.8155600E-05 Eh
 * total energy  :   -77.2416038 Eh     change       -0.7953077E-05 Eh
 * total energy  :   -77.2416105 Eh     change       -0.6742864E-05 Eh
 * total energy  :   -77.2416147 Eh     change       -0.4173782E-05 Eh
   *** GEOMETRY OPTIMIZATION CONVERGED AFTER 34 ITERATIONS ***

 final structure:
================
52
 xtb: 6.7.1 (edcfbbe)
C            1.33634655419744       -0.42125195705180        0.13784182814153
C            0.97715169902717        0.82352345314124       -0.66462012801753
C            1.32530348197799        0.70700223973053       -2.14963588221897
C            0.60641124172094       -0.42057589116716       -2.89399302208339
C           -0.92143054873502       -0.34461713128122       -2.85965412821186
C           -1.52069013454610        0.94677871690772       -3.42051690829365
C           -1.10595438294126        1.29602243355015       -4.85106201564595
C           -1.55126529153152        0.28039454497638       -5.91008865283198
N           -2.97467749469382        0.01388331360451       -5.87389731325693
C           -3.95758718507101        0.88116057071656       -6.14184874483341
C           -3.77535747692419        2.26176107426740       -6.63511853423287
N           -5.15148848727633        0.31457958837293       -5.91020592038692
C           -4.94149356597070       -0.98407913265091       -5.49084121523705
C           -3.54851388851832       -1.17687233671627       -5.47335661491912
C           -3.00044417064420       -2.40486991120073       -5.12518968856554
C           -3.87316622049369       -3.41615625532354       -4.76522562260894
Cl          -3.24418938462817       -4.94742147426144       -4.32681481507552
C           -5.27221588911569       -3.21173358492219       -4.76159403672696
C           -5.82061200199311       -1.99566049879836       -5.12924461316095
Cl          -6.30738003069343       -4.49685976066397       -4.31067260919514
C           -6.43665382435116        0.96095066316249       -6.06635910258572
C           -6.99162472078377        0.83232603125911       -7.48815000790231
C           -7.81840686027921       -0.43286566516757       -7.66378928605331
O           -8.21803613449666       -1.10790649767525       -6.75559989723846
O           -8.05127212694570       -0.67996177191911       -8.94201346176671
H            0.72812147261761       -1.27281049920122       -0.15702340281526
H            1.17273441727226       -0.24308888856644        1.19770206493292
H            2.38323075375315       -0.67764284569845       -0.00676547735780
H           -0.08595303623810        1.04107646225514       -0.54363675673472
H            1.52834914743797        1.67409943323453       -0.25798193076700
H            1.11323114384302        1.66231902963942       -2.63538947343482
H            2.39978599690898        0.53256137230432       -2.23921735486760
H            0.95451904761734       -0.42583337428538       -3.93014639994506
H            0.90291358293962       -1.37537571475692       -2.45805763350523
H           -1.32654534856868       -1.20381191814087       -3.39782798022234
H           -1.25619070473521       -0.44038912260580       -1.82626824183208
H           -2.61115254556756        0.87584955008087       -3.36150769453271
H           -1.22037657974314        1.77779677070463       -2.78190455942503
H           -1.50333713887366        2.28200435242361       -5.09407092113218
H           -0.02023160593950        1.36390559888773       -4.90831584711693
H           -1.28068173758222        0.64460591570942       -6.90553466125197
H           -1.04271773062769       -0.66823910739853       -5.74717172997477
H           -4.55497475985367        2.52329943212712       -7.34655412301826
H           -3.82275676816109        2.97493229162200       -5.81051550688844
H           -2.80994633832432        2.37141644967486       -7.12151520568482
H           -1.94110364448898       -2.59847044785772       -5.13864720690318
H           -6.89056716293386       -1.86792154004463       -5.16035411952465
H           -7.13809668656970        0.48159706816435       -5.37845686973344
H           -6.33223495353510        2.01038977955472       -5.78807737025721
H           -7.66190939838853        1.66831403629881       -7.69805854010520
H           -6.20754671911528        0.84048923386367       -8.24549601571101
H           -8.62138585940263       -1.45745407894421       -9.06360664928857

          :  Hamiltonian                  GFN2-xTB          :
         :: total energy             -77.241614716173 Eh    ::
         :: gradient norm              0.000374345804 Eh/a0 ::
         :: HOMO-LUMO gap              2.249195290486 eV    ::
         :: SCC energy               -78.213435083422 Eh    ::
         :: -> dispersion             -0.055609663935 Eh    ::
         :: repulsion energy           0.971820367249 Eh    ::

    * Orbital Energies and Occupations

         #    Occupation            Energy/Eh            Energy/eV
      -------------------------------------------------------------
         1        2.0000           -1.1612014             -31.5979
       ...           ...                  ...                  ...
        57        2.0000           -0.5514223             -15.0050
        58        2.0000           -0.5465302             -14.8718
        59        2.0000           -0.5458618             -14.8537
        60        2.0000           -0.5316315             -14.4664
        61        2.0000           -0.5299120             -14.4196
        62        2.0000           -0.5258712             -14.3097
        63        2.0000           -0.5252317             -14.2923
        64        2.0000           -0.5246884             -14.2775
        65        2.0000           -0.5202394             -14.1564
        66        2.0000           -0.5097989             -13.8723
        67        2.0000           -0.5005516             -13.6207
        68        2.0000           -0.4967762             -13.5180
        69        2.0000           -0.4925807             -13.4038 (HOMO)
        70                         -0.4099243             -11.1546 (LUMO)
        71                         -0.3672543              -9.9935
        72                         -0.3576033              -9.7309
        73                         -0.3508553              -9.5473
        74                         -0.2532822              -6.8922
        75                         -0.2478935              -6.7455
        76                         -0.2390993              -6.5062
        77                         -0.1819785              -4.9519
        78                         -0.1348632              -3.6698
        79                         -0.1001126              -2.7242
        80                         -0.0957365              -2.6051
       ...                                ...                  ...
       137                          0.5402266              14.7003
      -------------------------------------------------------------
                  HL-Gap            0.0826564 Eh            2.2492 eV

     #   Z          covCN         q      C6AA      α(0)
     1   6 C        3.751    -0.105    22.567     6.775
     2   6 C        3.799    -0.054    21.547     6.609
     3   6 C        3.800    -0.061    21.667     6.627
     4   6 C        3.800    -0.061    21.671     6.628
     5   6 C        3.800    -0.064    21.722     6.636
     6   6 C        3.800    -0.062    21.691     6.631
     7   6 C        3.800    -0.072    21.887     6.661
     8   6 C        3.739    -0.021    21.031     6.544
     9   7 N        2.824     0.024    20.834     6.779
    10   6 C        3.081     0.119    25.307     8.247
    11   6 C        3.755    -0.137    23.198     6.868
    12   7 N        2.828     0.014    21.005     6.807
    13   6 C        3.093     0.035    27.102     8.533
    14   6 C        3.100     0.036    27.075     8.527
    15   6 C        2.954    -0.050    29.242     8.869
    16   6 C        2.922     0.094    25.923     8.349
    17  17 Cl       1.006    -0.076   101.547    15.417
    18   6 C        2.922     0.095    25.886     8.343
    19   6 C        2.953    -0.054    29.333     8.883
    20  17 Cl       1.006    -0.072   101.405    15.406
    21   6 C        3.741    -0.025    21.095     6.553
    22   6 C        3.802    -0.104    22.493     6.752
    23   6 C        2.688     0.363    20.850     7.473
    24   8 O        0.856    -0.402    21.718     6.248
    25   8 O        1.660    -0.355    19.997     6.037
    26   1 H        0.925     0.033     2.543     2.494
    27   1 H        0.925     0.039     2.468     2.457
    28   1 H        0.925     0.039     2.458     2.452
    29   1 H        0.924     0.028     2.619     2.531
    30   1 H        0.924     0.035     2.517     2.481
    31   1 H        0.924     0.026     2.642     2.542
    32   1 H        0.924     0.039     2.461     2.453
    33   1 H        0.924     0.023     2.683     2.562
    34   1 H        0.924     0.045     2.385     2.415
    35   1 H        0.924     0.021     2.711     2.575
    36   1 H        0.924     0.049     2.338     2.391
    37   1 H        0.924     0.018     2.758     2.597
    38   1 H        0.924     0.057     2.230     2.335
    39   1 H        0.924     0.046     2.366     2.406
    40   1 H        0.925     0.075     2.031     2.229
    41   1 H        0.924     0.073     2.057     2.243
    42   1 H        0.925     0.090     1.874     2.141
    43   1 H        0.925     0.096     1.822     2.111
    44   1 H        0.924     0.104     1.747     2.067
    45   1 H        0.925     0.098     1.805     2.101
    46   1 H        0.926     0.096     1.821     2.110
    47   1 H        0.926     0.125     1.575     1.963
    48   1 H        0.924     0.114     1.666     2.018
    49   1 H        0.924     0.087     1.910     2.161
    50   1 H        0.924     0.104     1.746     2.066
    51   1 H        0.925     0.084     1.934     2.175
    52   1 H        0.804     0.351     0.586     1.203

Wiberg/Mayer (AO) data.
largest (>0.10) Wiberg bond orders for each atom

     #   Z sym  total        # sym  WBO       # sym  WBO       # sym  WBO
 ---------------------------------------------------------------------------
     1   6 C    3.996 --     2 C    1.020    28 H    0.987    27 H    0.987
                            26 H    0.986
     2   6 C    3.998 --     1 C    1.020     3 C    1.008    30 H    0.978
                            29 H    0.976
     3   6 C    3.997 --     2 C    1.008     4 C    1.007    32 H    0.976
                            31 H    0.976
     4   6 C    3.996 --     5 C    1.008     3 C    1.007    33 H    0.975
                            34 H    0.974
     5   6 C    3.994 --     4 C    1.008     6 C    1.007    36 H    0.973
                            35 H    0.972
     6   6 C    3.994 --     7 C    1.007     5 C    1.007    37 H    0.977
                            38 H    0.971
     7   6 C    3.984 --     6 C    1.007     8 C    0.988    39 H    0.974
                            40 H    0.964
     8   6 C    3.938 --     7 C    0.988     9 N    0.966    42 H    0.963
                            41 H    0.959
     9   7 N    3.668 --    10 C    1.335    14 C    1.130     8 C    0.966
    10   6 C    3.942 --     9 N    1.335    12 N    1.317    11 C    1.047
    11   6 C    3.976 --    10 C    1.047    45 H    0.964    43 H    0.962
                            44 H    0.941
    12   7 N    3.658 --    10 C    1.317    13 C    1.128    21 C    0.975
    13   6 C    3.959 --    19 C    1.341    14 C    1.268    12 N    1.128
    14   6 C    3.960 --    15 C    1.337    13 C    1.268     9 N    1.130
    15   6 C    3.979 --    16 C    1.442    14 C    1.337    46 H    0.952
                            19 C    0.103
    16   6 C    3.936 --    15 C    1.442    18 C    1.284    17 Cl   1.043
    17  17 Cl   1.208 --    16 C    1.043
    18   6 C    3.938 --    19 C    1.442    16 C    1.284    20 Cl   1.046
    19   6 C    3.973 --    18 C    1.442    13 C    1.341    47 H    0.943
                            15 C    0.103
    20  17 Cl   1.214 --    18 C    1.046
    21   6 C    3.944 --    22 C    0.995    12 N    0.975    49 H    0.964
                            48 H    0.954
    22   6 C    3.989 --    21 C    0.995    23 C    0.963    51 H    0.960
                            50 H    0.944
    23   6 C    3.922 --    24 O    1.755    25 O    1.172    22 C    0.963
    24   8 O    2.051 --    23 C    1.755    25 O    0.181
    25   8 O    2.233 --    23 C    1.172    52 H    0.851    24 O    0.181
    26   1 H    0.999 --     1 C    0.986
    27   1 H    0.998 --     1 C    0.987
    28   1 H    0.998 --     1 C    0.987
    29   1 H    0.999 --     2 C    0.976
    30   1 H    0.999 --     2 C    0.978
    31   1 H    0.999 --     3 C    0.976
    32   1 H    0.998 --     3 C    0.976
    33   1 H    0.999 --     4 C    0.975
    34   1 H    0.998 --     4 C    0.974
    35   1 H    1.000 --     5 C    0.972
    36   1 H    0.998 --     5 C    0.973
    37   1 H    1.000 --     6 C    0.977
    38   1 H    0.997 --     6 C    0.971
    39   1 H    0.998 --     7 C    0.974
    40   1 H    0.994 --     7 C    0.964
    41   1 H    0.994 --     8 C    0.959
    42   1 H    0.991 --     8 C    0.963
    43   1 H    0.989 --    11 C    0.962
    44   1 H    0.984 --    11 C    0.941
    45   1 H    0.989 --    11 C    0.964
    46   1 H    0.990 --    15 C    0.952
    47   1 H    0.984 --    19 C    0.943
    48   1 H    0.987 --    21 C    0.954
    49   1 H    0.992 --    21 C    0.964
    50   1 H    0.988 --    22 C    0.944
    51   1 H    0.993 --    22 C    0.960
    52   1 H    0.877 --    25 O    0.851
 ---------------------------------------------------------------------------

molecular dipole:
                 x           y           z       tot (Debye)
 q only:       -7.287       1.552     -11.722
   full:       -7.531       0.966     -11.746      35.551

           -------------------------------------------------
          | TOTAL ENERGY              -77.241614716173 Eh   |
          | GRADIENT NORM               0.000374345804 Eh/α |
          | HOMO-LUMO GAP               2.249195290486 eV   |
           -------------------------------------------------

 * finished run on 2024/12/20 at 06:54:54.684
