   * xtb version 6.7.1 (edcfbbe) compiled by 'conda@3ef47c1a292c' on 2024-11-25

   ID    Z sym.   atoms
    1    6 C      1-3, 5-9
    2    7 N      4
    3    1 H      10-29

          program call               : xtb C0739.xyz --opt --namespace C0739 --charge +1
          :  Hamiltonian                  GFN2-xTB          :
 * total energy  :   -29.8480280 Eh     change       -0.2988543E-10 Eh
 * total energy  :   -29.8539481 Eh     change       -0.5920073E-02 Eh
 * total energy  :   -29.8552820 Eh     change       -0.1333931E-02 Eh
 * total energy  :   -29.8553271 Eh     change       -0.4512698E-04 Eh
 * total energy  :   -29.8553482 Eh     change       -0.2106360E-04 Eh
 * total energy  :   -29.8553576 Eh     change       -0.9472866E-05 Eh
 * total energy  :   -29.8553749 Eh     change       -0.1723180E-04 Eh
 * total energy  :   -29.8553792 Eh     change       -0.4314245E-05 Eh
   *** GEOMETRY OPTIMIZATION CONVERGED AFTER 8 ITERATIONS ***

 final structure:
================
29
 xtb: 6.7.1 (edcfbbe)
C            0.84050573961986       -0.44439584918768       -0.27667564925571
C            0.42611305841227       -1.13281383137089        1.02062547876334
C            1.02371325769685       -0.56405658976099        2.31137236833531
N            0.49827556742444        0.73417891516411        2.84232227753680
C           -0.99757572433951        0.75368629397349        2.89550778156243
C           -1.64935948615255       -0.32067663995701        3.75236526855482
C            1.03009468659851        0.93813733686029        4.22900495893728
C            2.53557584677258        1.12360239153114        4.34259075004965
C            0.92471662665719        1.86453657675924        1.99466021093760
H            0.30225921906606        0.48187282077422       -0.45649613965006
H            0.62223103031982       -1.10395335253687       -1.11200144265730
H            1.90809150058059       -0.24030362506109       -0.28837556921890
H           -0.65977004182263       -1.19922355461341        1.07568093489265
H            0.79607656681161       -2.15994164082059        0.97869188464792
H            0.88103530890416       -1.30430137637304        3.10040423092622
H            2.09639155985707       -0.43790734962353        2.15894334811833
H           -1.29370566982539        1.73638322160274        3.26920088376177
H           -1.36151143466770        0.66555239315876        1.87125600090394
H           -1.41972351534420       -0.20812698664440        4.80759779446497
H           -2.72672435733419       -0.21944061246270        3.64571597184841
H           -1.38334539525033       -1.32394168875186        3.43378363705698
H            0.53367911527712        1.82124356724936        4.63707600599851
H            0.73893862490752        0.07516625128041        4.82802720329740
H            2.88638347685193        2.01435628282471        3.83081427514117
H            2.77197675987403        1.24338242551440        5.39715891970412
H            3.08962522419642        0.26104115643797        3.98502302110061
H            1.98514945977835        1.79337592480596        1.76948444632769
H            0.37410176770734        1.86547427840537        1.05884920915653
H            0.73312122742277        2.80529326082191        2.50784193875756

          :  Hamiltonian                  GFN2-xTB          :
         :: total energy             -29.855379193708 Eh    ::
         :: gradient norm              0.000415924324 Eh/a0 ::
         :: HOMO-LUMO gap              9.189381355751 eV    ::
         :: SCC energy               -30.286434431973 Eh    ::
         :: -> dispersion             -0.020204777489 Eh    ::
         :: repulsion energy           0.431055238265 Eh    ::

    * Orbital Energies and Occupations

         #    Occupation            Energy/Eh            Energy/eV
      -------------------------------------------------------------
         1        2.0000           -0.8589229             -23.3725
       ...           ...                  ...                  ...
        16        2.0000           -0.6495309             -17.6746
        17        2.0000           -0.6464942             -17.5920
        18        2.0000           -0.6386216             -17.3778
        19        2.0000           -0.6361446             -17.3104
        20        2.0000           -0.6299208             -17.1410
        21        2.0000           -0.6279975             -17.0887
        22        2.0000           -0.6122316             -16.6597
        23        2.0000           -0.6100069             -16.5991
        24        2.0000           -0.6042954             -16.4437
        25        2.0000           -0.5980403             -16.2735
        26        2.0000           -0.5919193             -16.1069
        27        2.0000           -0.5799282             -15.7807
        28        2.0000           -0.5727720             -15.5859 (HOMO)
        29                         -0.2350684              -6.3965 (LUMO)
        30                         -0.1704066              -4.6370
        31                         -0.1629871              -4.4351
        32                         -0.1445483              -3.9334
        33                         -0.0727059              -1.9784
        34                         -0.0609704              -1.6591
        35                         -0.0534826              -1.4553
        36                         -0.0406682              -1.1066
        37                         -0.0319762              -0.8701
        38                         -0.0128604              -0.3499
        39                         -0.0032182              -0.0876
       ...                                ...                  ...
        56                          0.1789873               4.8705
      -------------------------------------------------------------
                  HL-Gap            0.3377036 Eh            9.1894 eV

     #   Z          covCN         q      C6AA      α(0)
     1   6 C        3.751    -0.119    22.850     6.817
     2   6 C        3.798    -0.069    21.830     6.653
     3   6 C        3.751    -0.038    21.321     6.585
     4   7 N        3.618     0.116    19.256     6.517
     5   6 C        3.761    -0.033    21.202     6.564
     6   6 C        3.751    -0.129    23.049     6.847
     7   6 C        3.761    -0.034    21.218     6.566
     8   6 C        3.751    -0.130    23.069     6.850
     9   6 C        3.719    -0.092    22.388     6.759
    10   1 H        0.925     0.041     2.431     2.438
    11   1 H        0.925     0.067     2.116     2.275
    12   1 H        0.925     0.051     2.303     2.373
    13   1 H        0.925     0.060     2.204     2.322
    14   1 H        0.924     0.074     2.046     2.237
    15   1 H        0.924     0.082     1.961     2.190
    16   1 H        0.924     0.087     1.905     2.159
    17   1 H        0.924     0.081     1.964     2.192
    18   1 H        0.924     0.089     1.892     2.151
    19   1 H        0.925     0.065     2.141     2.288
    20   1 H        0.925     0.085     1.927     2.171
    21   1 H        0.925     0.067     2.113     2.273
    22   1 H        0.924     0.083     1.950     2.184
    23   1 H        0.925     0.087     1.911     2.162
    24   1 H        0.925     0.068     2.103     2.268
    25   1 H        0.925     0.086     1.922     2.168
    26   1 H        0.925     0.065     2.140     2.288
    27   1 H        0.925     0.100     1.782     2.088
    28   1 H        0.925     0.099     1.791     2.093
    29   1 H        0.925     0.092     1.863     2.135

Wiberg/Mayer (AO) data.
largest (>0.10) Wiberg bond orders for each atom

     #   Z sym  total        # sym  WBO       # sym  WBO       # sym  WBO
 ---------------------------------------------------------------------------
     1   6 C    3.990 --     2 C    1.020    12 H    0.985    11 H    0.982
                            10 H    0.981
     2   6 C    3.985 --     1 C    1.020     3 C    1.006    13 H    0.969
                            14 H    0.965
     3   6 C    3.931 --     2 C    1.006    15 H    0.966    16 H    0.963
                             4 N    0.926
     4   7 N    3.803 --     9 C    0.961     5 C    0.928     7 C    0.927
                             3 C    0.926
     5   6 C    3.935 --     6 C    1.023    17 H    0.968    18 H    0.963
                             4 N    0.928
     6   6 C    3.982 --     5 C    1.023    19 H    0.981    21 H    0.980
                            20 H    0.973
     7   6 C    3.935 --     8 C    1.023    22 H    0.967    23 H    0.965
                             4 N    0.927
     8   6 C    3.982 --     7 C    1.023    24 H    0.981    26 H    0.980
                            25 H    0.972
     9   6 C    3.930 --    29 H    0.976    27 H    0.972    28 H    0.967
                             4 N    0.961
    10   1 H    0.998 --     1 C    0.981
    11   1 H    0.995 --     1 C    0.982
    12   1 H    0.997 --     1 C    0.985
    13   1 H    0.996 --     2 C    0.969
    14   1 H    0.994 --     2 C    0.965
    15   1 H    0.993 --     3 C    0.966
    16   1 H    0.992 --     3 C    0.963
    17   1 H    0.993 --     5 C    0.968
    18   1 H    0.992 --     5 C    0.963
    19   1 H    0.996 --     6 C    0.981
    20   1 H    0.992 --     6 C    0.973
    21   1 H    0.995 --     6 C    0.980
    22   1 H    0.993 --     7 C    0.967
    23   1 H    0.992 --     7 C    0.965
    24   1 H    0.995 --     8 C    0.981
    25   1 H    0.992 --     8 C    0.972
    26   1 H    0.996 --     8 C    0.980
    27   1 H    0.990 --     9 C    0.972
    28   1 H    0.990 --     9 C    0.967
    29   1 H    0.992 --     9 C    0.976
 ---------------------------------------------------------------------------

molecular dipole:
                 x           y           z       tot (Debye)
 q only:        0.971       1.101       5.263
   full:        0.951       1.144       5.301      13.995

           -------------------------------------------------
          | TOTAL ENERGY              -29.855379193708 Eh   |
          | GRADIENT NORM               0.000415924324 Eh/α |
          | HOMO-LUMO GAP               9.189381355751 eV   |
           -------------------------------------------------

 * finished run on 2024/12/20 at 06:54:56.517
