   * xtb version 6.7.1 (edcfbbe) compiled by 'conda@3ef47c1a292c' on 2024-11-25

   ID    Z sym.   atoms
    1    6 C      1, 2, 4-9
    2    7 N      3, 11
    3    8 O      10
    4    1 H      12-22

          program call               : xtb C0732.xyz --opt --namespace C0732 --charge +1
          :  Hamiltonian                  GFN2-xTB          :
 * total energy  :   -32.2392437 Eh     change       -0.5775433E-09 Eh
 * total energy  :   -32.2419135 Eh     change       -0.2669711E-02 Eh
 * total energy  :   -32.2425182 Eh     change       -0.6047315E-03 Eh
 * total energy  :   -32.2426502 Eh     change       -0.1320360E-03 Eh
 * total energy  :   -32.2427252 Eh     change       -0.7502021E-04 Eh
 * total energy  :   -32.2427575 Eh     change       -0.3224784E-04 Eh
 * total energy  :   -32.2428002 Eh     change       -0.4268481E-04 Eh
 * total energy  :   -32.2428328 Eh     change       -0.3265198E-04 Eh
 * total energy  :   -32.2428628 Eh     change       -0.3000072E-04 Eh
 * total energy  :   -32.2428870 Eh     change       -0.2416916E-04 Eh
 * total energy  :   -32.2429033 Eh     change       -0.1629130E-04 Eh
 * total energy  :   -32.2429100 Eh     change       -0.6752360E-05 Eh
 * total energy  :   -32.2429210 Eh     change       -0.1094646E-04 Eh
 * total energy  :   -32.2429289 Eh     change       -0.7898651E-05 Eh
 * total energy  :   -32.2429345 Eh     change       -0.5576736E-05 Eh
 * total energy  :   -32.2429364 Eh     change       -0.1914040E-05 Eh
   *** GEOMETRY OPTIMIZATION CONVERGED AFTER 16 ITERATIONS ***

 final structure:
================
22
 xtb: 6.7.1 (edcfbbe)
C            1.18999961944879       -0.17135517571096       -0.01758332511898
C            0.32303918470006       -0.61203187601424        1.15886094631521
N            0.85897254448473       -0.08052137790511        2.40375507315057
C            0.46765615080152        1.12506790794646        2.83495037214619
C            1.01423392394380        1.68595488091734        3.96647058264086
C            1.98269881435991        0.98624358585079        4.68817370845039
C            2.37709213439899       -0.26393901325813        4.21443585343679
C            1.79821972604297       -0.76330831751820        3.06642345894516
C            2.62903093427164        1.69846607458576        5.85996846235947
O            2.74479254707568        2.89802319373684        5.82003963750896
N            3.06292213787970        0.91515643031708        6.86107891258982
H            1.21767678684728        0.91247861629340       -0.09708118900615
H            0.77425771282069       -0.57077914162972       -0.93765174193114
H            2.20720715568922       -0.54049883126145        0.08648861126989
H           -0.69698404451178       -0.24632680737798        1.02977924604596
H            0.29925249730761       -1.70150876218228        1.22020486554316
H           -0.28624265822522        1.63863603385174        2.25636069724311
H            0.71810714758314        2.67003851952077        4.29785456286263
H            3.14317737202873       -0.83880270738754        4.71062487681840
H            2.08559213248886       -1.72417937106828        2.66442141071667
H            2.86181456494295       -0.06669208079485        6.93060914719714
H            3.48284361562078        1.36846821908866        7.65889583081586

          :  Hamiltonian                  GFN2-xTB          :
         :: total energy             -32.242936376794 Eh    ::
         :: gradient norm              0.000481590167 Eh/a0 ::
         :: HOMO-LUMO gap              1.962984397489 eV    ::
         :: SCC energy               -32.731204803864 Eh    ::
         :: -> dispersion             -0.016549858729 Eh    ::
         :: repulsion energy           0.488268427070 Eh    ::

    * Orbital Energies and Occupations

         #    Occupation            Energy/Eh            Energy/eV
      -------------------------------------------------------------
         1        2.0000           -0.8868297             -24.1319
       ...           ...                  ...                  ...
        17        2.0000           -0.6834493             -18.5976
        18        2.0000           -0.6748240             -18.3629
        19        2.0000           -0.6677923             -18.1716
        20        2.0000           -0.6576679             -17.8961
        21        2.0000           -0.6487473             -17.6533
        22        2.0000           -0.6310191             -17.1709
        23        2.0000           -0.6246951             -16.9988
        24        2.0000           -0.6224772             -16.9385
        25        2.0000           -0.6180931             -16.8192
        26        2.0000           -0.6142792             -16.7154
        27        2.0000           -0.6049344             -16.4611
        28        2.0000           -0.5596365             -15.2285
        29        2.0000           -0.5424650             -14.7612 (HOMO)
        30                         -0.4703266             -12.7982 (LUMO)
        31                         -0.4346825             -11.8283
        32                         -0.3566664              -9.7054
        33                         -0.2921196              -7.9490
        34                         -0.1805643              -4.9134
        35                         -0.1291460              -3.5142
        36                         -0.0879343              -2.3928
        37                         -0.0582978              -1.5864
        38                         -0.0528146              -1.4372
        39                         -0.0457367              -1.2446
        40                         -0.0241563              -0.6573
       ...                                ...                  ...
        55                          0.5371628              14.6169
      -------------------------------------------------------------
                  HL-Gap            0.0721383 Eh            1.9630 eV

     #   Z          covCN         q      C6AA      α(0)
     1   6 C        3.753    -0.125    22.953     6.832
     2   6 C        3.757    -0.032    21.194     6.564
     3   7 N        2.750     0.111    19.339     6.531
     4   6 C        2.889     0.034    27.248     8.558
     5   6 C        2.920    -0.005    28.151     8.701
     6   6 C        2.977     0.030    27.332     8.576
     7   6 C        2.916    -0.018    28.454     8.747
     8   6 C        2.891     0.032    27.277     8.563
     9   6 C        2.747     0.287    22.145     7.705
    10   8 O        0.859    -0.371    21.100     6.159
    11   7 N        2.637    -0.248    26.455     7.639
    12   1 H        0.925     0.070     2.088     2.260
    13   1 H        0.925     0.092     1.857     2.131
    14   1 H        0.925     0.068     2.105     2.269
    15   1 H        0.924     0.096     1.824     2.112
    16   1 H        0.924     0.095     1.834     2.118
    17   1 H        0.926     0.115     1.654     2.011
    18   1 H        0.926     0.128     1.547     1.945
    19   1 H        0.926     0.103     1.760     2.074
    20   1 H        0.926     0.111     1.684     2.029
    21   1 H        0.860     0.199     1.113     1.653
    22   1 H        0.860     0.228     0.975     1.547

Wiberg/Mayer (AO) data.
largest (>0.10) Wiberg bond orders for each atom

     #   Z sym  total        # sym  WBO       # sym  WBO       # sym  WBO
 ---------------------------------------------------------------------------
     1   6 C    3.976 --     2 C    0.994    14 H    0.983    12 H    0.983
                            13 H    0.973
     2   6 C    3.932 --     1 C    0.994    15 H    0.963    16 H    0.963
                             3 N    0.958
     3   7 N    3.766 --     8 C    1.328     4 C    1.321     2 C    0.958
     4   6 C    3.956 --     5 C    1.473     3 N    1.321    17 H    0.952
     5   6 C    3.974 --     4 C    1.473     6 C    1.383    18 H    0.951
     6   6 C    3.966 --     7 C    1.389     5 C    1.383     9 C    0.947
     7   6 C    3.983 --     8 C    1.467     6 C    1.389    19 H    0.957
     8   6 C    3.958 --     7 C    1.467     3 N    1.328    20 H    0.953
     9   6 C    3.963 --    10 O    1.708    11 N    1.278     6 C    0.947
    10   8 O    2.072 --     9 C    1.708    11 N    0.229
    11   7 N    3.413 --     9 C    1.278    21 H    0.941    22 H    0.928
                            10 O    0.229
    12   1 H    0.995 --     1 C    0.983
    13   1 H    0.990 --     1 C    0.973
    14   1 H    0.995 --     1 C    0.983
    15   1 H    0.990 --     2 C    0.963
    16   1 H    0.990 --     2 C    0.963
    17   1 H    0.986 --     4 C    0.952
    18   1 H    0.983 --     5 C    0.951
    19   1 H    0.989 --     7 C    0.957
    20   1 H    0.987 --     8 C    0.953
    21   1 H    0.961 --    11 N    0.941
    22   1 H    0.947 --    11 N    0.928
 ---------------------------------------------------------------------------

molecular dipole:
                 x           y           z       tot (Debye)
 q only:        2.351      -0.761       5.921
   full:        2.299      -1.062       6.007      16.570

           -------------------------------------------------
          | TOTAL ENERGY              -32.242936376794 Eh   |
          | GRADIENT NORM               0.000481590167 Eh/α |
          | HOMO-LUMO GAP               1.962984397489 eV   |
           -------------------------------------------------

 * finished run on 2024/12/20 at 06:54:46.549
