   * xtb version 6.7.1 (edcfbbe) compiled by 'conda@3ef47c1a292c' on 2024-11-25

   ID    Z sym.   atoms
    1    6 C      1, 3-5, 7, 9-23
    2   14 Si     2
    3    7 N      6, 8
    4    1 H      24-50

          program call               : xtb C0735.xyz --opt --namespace C0735 --charge +1
          :  Hamiltonian                  GFN2-xTB          :
 * total energy  :   -63.7893079 Eh     change       -0.8099619E-09 Eh
 * total energy  :   -63.7973479 Eh     change       -0.8040028E-02 Eh
 * total energy  :   -63.7986720 Eh     change       -0.1324064E-02 Eh
 * total energy  :   -63.7989285 Eh     change       -0.2565024E-03 Eh
 * total energy  :   -63.7991475 Eh     change       -0.2190750E-03 Eh
 * total energy  :   -63.7992637 Eh     change       -0.1161531E-03 Eh
 * total energy  :   -63.7993583 Eh     change       -0.9458126E-04 Eh
 * total energy  :   -63.7994339 Eh     change       -0.7562515E-04 Eh
 * total energy  :   -63.7995038 Eh     change       -0.6992781E-04 Eh
 * total energy  :   -63.7995791 Eh     change       -0.7530243E-04 Eh
 * total energy  :   -63.8007374 Eh     change       -0.1599836E-04 Eh
 * total energy  :   -63.8007558 Eh     change       -0.1841543E-04 Eh
 * total energy  :   -63.8007688 Eh     change       -0.1302980E-04 Eh
 * total energy  :   -63.8007770 Eh     change       -0.8186654E-05 Eh
 * total energy  :   -63.8007848 Eh     change       -0.7783937E-05 Eh
 * total energy  :   -63.8007925 Eh     change       -0.7778191E-05 Eh
 * total energy  :   -63.8007991 Eh     change       -0.6590627E-05 Eh
 * total energy  :   -63.8008053 Eh     change       -0.6172994E-05 Eh
 * total energy  :   -63.8008090 Eh     change       -0.3641931E-05 Eh
   *** GEOMETRY OPTIMIZATION CONVERGED AFTER 44 ITERATIONS ***

 final structure:
================
50
 xtb: 6.7.1 (edcfbbe)
C            0.21551670467065       -0.30455074323102       -0.42256792914072
Si           0.12859901454202        1.58249633572462       -0.18930744414254
C            1.14450841627476        2.45238070440530       -1.58386707201465
C            1.06732150678681        1.84842975792213       -2.98494546012061
C           -0.33777651336565        1.83611675085168       -3.58487794203061
N           -0.95909267505746        3.14262705747937       -3.58570734049796
C           -0.34229276821240        4.31676712043836       -3.64614196999280
N           -1.19843452070212        5.32594456120037       -3.52107599903287
C           -2.45882910607026        4.78831866654132       -3.36807984900555
C           -2.30588272595034        3.38930322128959       -3.42471542814162
C           -3.40393812642632        2.54105809699995       -3.33368479244017
C           -4.63882206409934        3.13036825916185       -3.16482849985333
C           -4.78821287655144        4.51884358700322       -3.09542816543358
C           -3.70944162460028        5.37088834224907       -3.19960178859236
C           -0.83194426699377        6.71941364048286       -3.35591806044804
C           -0.55506653178828        6.97801953846726       -1.89040852240557
C            0.65407546310017        6.57428366381886       -1.33702999690142
C            0.89654532593809        6.74745658230891        0.01369864635891
C           -0.06833287251843        7.32601910884809        0.82161565880247
C           -1.27160455231041        7.73670556737410        0.27403898235454
C           -1.51765802389553        7.55807032617941       -1.07672813761786
C           -1.68679926416080        2.18771748342703       -0.24153985683996
C            0.90379232596633        2.12864324760181        1.45722660754062
H           -0.27090628827305       -0.64469668194690       -1.33249472172029
H           -0.26759788104671       -0.81089594924686        0.40705250057182
H            1.24459992145516       -0.64969539173684       -0.45292783966155
H            0.87016776075129        3.50912604673678       -1.61059743622432
H            2.19261399815923        2.42951976294632       -1.28642630751707
H            1.74992601143093        2.37173457608782       -3.66015484950163
H            1.40091947335743        0.81191467192749       -2.94088627092187
H           -0.30209832910797        1.45702784231908       -4.61197994035846
H           -0.97865344650381        1.18005552623568       -2.99484517372308
H            0.71067489331208        4.44513398590093       -3.80495145192991
H           -3.30104762380270        1.47068200832515       -3.40388279771172
H           -5.51515189214001        2.50696386606329       -3.08801593446602
H           -5.77558743616661        4.93125565721309       -2.96314480051010
H           -3.83679836399567        6.43957840380340       -3.15724979843632
H            0.05685879893938        6.91859168280415       -3.95866901867204
H           -1.65321783732577        7.34056221169281       -3.71524189102577
H            1.41877295734042        6.13964975249798       -1.96519875947470
H            1.84052956753699        6.43545264755896        0.43282147474108
H            0.12107631419201        7.46320408372211        1.87456197329636
H           -2.02156414541018        8.19737320905138        0.89771892711944
H           -2.45642178266567        7.88610263077039       -1.49751121100904
H           -2.14841091851844        2.03441956932523        0.72841540206982
H           -1.76054759013121        3.24955900598045       -0.46305788694577
H           -2.29589634673086        1.65366759078363       -0.96417914866104
H            0.38352915116934        1.68150259234286        2.29829187180950
H            1.94640363155343        1.83480966486740        1.52813176428794
H            0.85642715802679        3.20677015742054        1.58202568418388

          :  Hamiltonian                  GFN2-xTB          :
         :: total energy             -63.800808953777 Eh    ::
         :: gradient norm              0.000184870726 Eh/a0 ::
         :: HOMO-LUMO gap              2.283479003608 eV    ::
         :: SCC energy               -64.886320563938 Eh    ::
         :: -> dispersion             -0.054576180487 Eh    ::
         :: repulsion energy           1.085511610161 Eh    ::

    * Orbital Energies and Occupations

         #    Occupation            Energy/Eh            Energy/eV
      -------------------------------------------------------------
         1        2.0000           -0.8698170             -23.6689
       ...           ...                  ...                  ...
        48        2.0000           -0.5530901             -15.0503
        49        2.0000           -0.5510359             -14.9945
        50        2.0000           -0.5474191             -14.8960
        51        2.0000           -0.5456453             -14.8478
        52        2.0000           -0.5437887             -14.7972
        53        2.0000           -0.5408806             -14.7181
        54        2.0000           -0.5313040             -14.4575
        55        2.0000           -0.5308012             -14.4438
        56        2.0000           -0.5155418             -14.0286
        57        2.0000           -0.5150096             -14.0141
        58        2.0000           -0.4953098             -13.4781
        59        2.0000           -0.4920881             -13.3904
        60        2.0000           -0.4896119             -13.3230 (HOMO)
        61                         -0.4056956             -11.0395 (LUMO)
        62                         -0.3569294              -9.7125
        63                         -0.3499818              -9.5235
        64                         -0.3366425              -9.1605
        65                         -0.3336214              -9.0783
        66                         -0.2363182              -6.4305
        67                         -0.2316609              -6.3038
        68                         -0.2302854              -6.2664
        69                         -0.2251685              -6.1271
        70                         -0.2099056              -5.7118
        71                         -0.1605321              -4.3683
       ...                                ...                  ...
       124                          0.5537494              15.0683
      -------------------------------------------------------------
                  HL-Gap            0.0839163 Eh            2.2835 eV

     #   Z          covCN         q      C6AA      α(0)
     1   6 C        3.649    -0.212    25.079     7.194
     2  14 Si       3.495     0.486   101.113    19.469
     3   6 C        3.694    -0.173    24.075     7.020
     4   6 C        3.805    -0.071    21.853     6.655
     5   6 C        3.741    -0.025    21.106     6.555
     6   7 N        2.825     0.037    20.588     6.739
     7   6 C        3.080     0.070    26.349     8.415
     8   7 N        2.831     0.027    20.776     6.770
     9   6 C        3.120     0.041    26.906     8.495
    10   6 C        3.127     0.039    26.926     8.496
    11   6 C        2.909    -0.032    28.789     8.798
    12   6 C        2.925    -0.019    28.472     8.751
    13   6 C        2.925    -0.019    28.481     8.752
    14   6 C        2.909    -0.032    28.797     8.799
    15   6 C        3.747    -0.020    21.002     6.537
    16   6 C        2.973    -0.002    28.071     8.691
    17   6 C        2.924    -0.038    28.954     8.824
    18   6 C        2.919    -0.024    28.602     8.770
    19   6 C        2.920    -0.021    28.543     8.761
    20   6 C        2.920    -0.022    28.561     8.764
    21   6 C        2.923    -0.034    28.842     8.807
    22   6 C        3.647    -0.210    25.044     7.191
    23   6 C        3.650    -0.212    25.086     7.195
    24   1 H        0.925     0.034     2.530     2.487
    25   1 H        0.925     0.048     2.345     2.395
    26   1 H        0.925     0.046     2.364     2.405
    27   1 H        0.924     0.010     2.887     2.657
    28   1 H        0.925     0.041     2.430     2.438
    29   1 H        0.924     0.042     2.427     2.436
    30   1 H        0.925     0.066     2.133     2.284
    31   1 H        0.924     0.079     1.993     2.208
    32   1 H        0.924     0.087     1.912     2.163
    33   1 H        0.926     0.107     1.722     2.052
    34   1 H        0.926     0.067     2.119     2.277
    35   1 H        0.926     0.078     2.001     2.212
    36   1 H        0.926     0.078     2.001     2.212
    37   1 H        0.926     0.069     2.101     2.267
    38   1 H        0.924     0.078     1.996     2.209
    39   1 H        0.924     0.084     1.934     2.175
    40   1 H        0.926     0.032     2.559     2.502
    41   1 H        0.926     0.053     2.287     2.365
    42   1 H        0.926     0.057     2.233     2.337
    43   1 H        0.926     0.056     2.247     2.344
    44   1 H        0.926     0.041     2.434     2.440
    45   1 H        0.925     0.043     2.409     2.427
    46   1 H        0.925     0.016     2.787     2.611
    47   1 H        0.925     0.025     2.658     2.550
    48   1 H        0.925     0.044     2.393     2.419
    49   1 H        0.925     0.045     2.380     2.412
    50   1 H        0.925     0.039     2.467     2.456

Wiberg/Mayer (AO) data.
largest (>0.10) Wiberg bond orders for each atom

     #   Z sym  total        # sym  WBO       # sym  WBO       # sym  WBO
 ---------------------------------------------------------------------------
     1   6 C    3.982 --    25 H    0.985    26 H    0.984    24 H    0.984
                             2 Si   0.907
     2  14 Si   3.615 --    23 C    0.909     1 C    0.907    22 C    0.886
                             3 C    0.837
     3   6 C    3.962 --     4 C    1.023    28 H    0.981    27 H    0.979
                             2 Si   0.837
     4   6 C    3.984 --     3 C    1.023     5 C    0.999    29 H    0.973
                            30 H    0.971
     5   6 C    3.940 --     4 C    0.999     6 N    0.966    32 H    0.960
                            31 H    0.955
     6   7 N    3.685 --     7 C    1.370    10 C    1.132     5 C    0.966
                             8 N    0.101
     7   6 C    3.953 --     6 N    1.370     8 N    1.361    33 H    0.950
     8   7 N    3.677 --     7 C    1.361     9 C    1.129    15 C    0.959
                             6 N    0.101
     9   6 C    3.953 --    14 C    1.337    10 C    1.273     8 N    1.129
    10   6 C    3.955 --    11 C    1.335     9 C    1.273     6 N    1.132
    11   6 C    3.987 --    12 C    1.497    10 C    1.335    34 H    0.963
                            14 C    0.119
    12   6 C    3.986 --    11 C    1.497    13 C    1.375    35 H    0.966
    13   6 C    3.986 --    14 C    1.497    12 C    1.375    36 H    0.966
    14   6 C    3.986 --    13 C    1.497     9 C    1.337    37 H    0.962
                            11 C    0.119
    15   6 C    3.940 --    16 C    0.978    39 H    0.964    38 H    0.963
                             8 N    0.959
    16   6 C    3.979 --    21 C    1.419    17 C    1.411    15 C    0.978
                            19 C    0.109
    17   6 C    3.992 --    18 C    1.446    16 C    1.411    40 H    0.967
                            20 C    0.112
    18   6 C    3.990 --    17 C    1.446    19 C    1.436    41 H    0.969
                            21 C    0.110
    19   6 C    3.988 --    20 C    1.442    18 C    1.436    42 H    0.969
                            16 C    0.109
    20   6 C    3.990 --    19 C    1.442    21 C    1.439    43 H    0.969
                            17 C    0.112
    21   6 C    3.991 --    20 C    1.439    16 C    1.419    44 H    0.967
                            18 C    0.110
    22   6 C    3.976 --    46 H    0.990    45 H    0.989    47 H    0.986
                             2 Si   0.886
    23   6 C    3.982 --    48 H    0.986    49 H    0.985    50 H    0.985
                             2 Si   0.909
    24   1 H    0.999 --     1 C    0.984
    25   1 H    0.998 --     1 C    0.985
    26   1 H    0.998 --     1 C    0.984
    27   1 H    1.000 --     3 C    0.979
    28   1 H    0.998 --     3 C    0.981
    29   1 H    0.998 --     4 C    0.973
    30   1 H    0.995 --     4 C    0.971
    31   1 H    0.993 --     5 C    0.955
    32   1 H    0.992 --     5 C    0.960
    33   1 H    0.988 --     7 C    0.950
    34   1 H    0.995 --    11 C    0.963
    35   1 H    0.994 --    12 C    0.966
    36   1 H    0.994 --    13 C    0.966
    37   1 H    0.995 --    14 C    0.962
    38   1 H    0.993 --    15 C    0.963
    39   1 H    0.992 --    15 C    0.964
    40   1 H    0.999 --    17 C    0.967
    41   1 H    0.997 --    18 C    0.969
    42   1 H    0.996 --    19 C    0.969
    43   1 H    0.996 --    20 C    0.969
    44   1 H    0.998 --    21 C    0.967
    45   1 H    0.998 --    22 C    0.989
    46   1 H    1.000 --    22 C    0.990
    47   1 H    0.999 --    22 C    0.986
    48   1 H    0.998 --    23 C    0.986
    49   1 H    0.998 --    23 C    0.985
    50   1 H    0.998 --    23 C    0.985
 ---------------------------------------------------------------------------

molecular dipole:
                 x           y           z       tot (Debye)
 q only:       -2.365       7.652      -5.149
   full:       -2.193       7.721      -5.316      24.470

           -------------------------------------------------
          | TOTAL ENERGY              -63.800808953777 Eh   |
          | GRADIENT NORM               0.000184870726 Eh/α |
          | HOMO-LUMO GAP               2.283479003608 eV   |
           -------------------------------------------------

 * finished run on 2024/12/20 at 06:54:52.360
