   * xtb version 6.7.1 (edcfbbe) compiled by 'conda@3ef47c1a292c' on 2024-11-25

   ID    Z sym.   atoms
    1    6 C      1-10, 12, 13, 15-23
    2    7 N      11, 14
    3    1 H      24-56

          program call               : xtb C0733.xyz --opt --namespace C0733 --charge +1
          :  Hamiltonian                  GFN2-xTB          :
 * total energy  :   -67.2960188 Eh     change       -0.1266017E-08 Eh
 * total energy  :   -67.3014894 Eh     change       -0.5470521E-02 Eh
 * total energy  :   -67.3023882 Eh     change       -0.8988995E-03 Eh
 * total energy  :   -67.3025490 Eh     change       -0.1607706E-03 Eh
 * total energy  :   -67.3027208 Eh     change       -0.1717495E-03 Eh
 * total energy  :   -67.3028026 Eh     change       -0.8184310E-04 Eh
 * total energy  :   -67.3029162 Eh     change       -0.1135548E-03 Eh
 * total energy  :   -67.3030361 Eh     change       -0.1199547E-03 Eh
 * total energy  :   -67.3031189 Eh     change       -0.8282706E-04 Eh
 * total energy  :   -67.3031794 Eh     change       -0.6043868E-04 Eh
 * total energy  :   -67.3043867 Eh     change       -0.2699257E-04 Eh
 * total energy  :   -67.3044094 Eh     change       -0.2271698E-04 Eh
 * total energy  :   -67.3044271 Eh     change       -0.1771086E-04 Eh
 * total energy  :   -67.3044426 Eh     change       -0.1552339E-04 Eh
 * total energy  :   -67.3044592 Eh     change       -0.1659370E-04 Eh
 * total energy  :   -67.3044707 Eh     change       -0.1148470E-04 Eh
 * total energy  :   -67.3044795 Eh     change       -0.8833748E-05 Eh
 * total energy  :   -67.3044850 Eh     change       -0.5471828E-05 Eh
 * total energy  :   -67.3044895 Eh     change       -0.4531219E-05 Eh
   *** GEOMETRY OPTIMIZATION CONVERGED AFTER 46 ITERATIONS ***

 final structure:
================
56
 xtb: 6.7.1 (edcfbbe)
C            1.06828232616392        0.17706102832189       -0.93875743245169
C            0.84436910784352       -0.31351186623780        0.48649610118805
C            1.31353818200409        0.68202836951828        1.54874229144208
C            0.59698344040770        2.03414962008004        1.52834397233117
C           -0.92121605345444        1.96516914365074        1.70506557162041
C           -1.39082314986660        1.29124302098247        2.99539967211111
C           -0.88544162581403        1.93595975568134        4.28879055276944
C           -1.23256847017216        3.41841446061394        4.45165323696368
C           -2.72961020276997        3.72952998242546        4.45744894528970
C           -3.46297078525647        3.23544588749919        5.70930552470817
N           -3.08733994709792        4.00108054548282        6.87884441932789
C           -3.44864591975698        5.30362096803774        7.07358783719395
C           -2.89305581857794        5.70548929628790        8.24239259721225
N           -2.19255040728077        4.64611247917284        8.74694888067270
C           -2.32482729422637        3.61063990866494        7.90872791481471
C           -1.75180320677452        2.25707255097688        8.06905315394044
C           -1.52061980611427        4.69555185242021       10.03232369992225
C           -2.53578323698143        4.64160476032277       11.15267375179884
C           -2.79322767226258        5.76652860777164       11.92340326453824
C           -3.73027395987784        5.71348062491277       12.94120944531469
C           -4.42202603564423        4.54005123191901       13.18766440251131
C           -4.17364099231529        3.41669505050198       12.41643248270953
C           -3.23448634517813        3.46662371106228       11.40213096597599
H            0.44755483677678        1.04125899898254       -1.16109475113809
H            0.81904974168717       -0.60771140856587       -1.64892806433979
H            2.10998076913181        0.45289223103928       -1.08680967627814
H           -0.21280377394232       -0.54424560267713        0.63040238496252
H            1.40017537259088       -1.24310256159813        0.62918288460150
H            1.19952080159230        0.22269325530934        2.53350538148467
H            2.38043295248860        0.86701937601847        1.40214592520984
H            1.02863892925611        2.66205609063916        2.31174105153224
H            0.80232131760530        2.52913553778510        0.57810028979820
H           -1.32097015660867        2.98084838482546        1.65501523279219
H           -1.35173145210821        1.41606486854111        0.86663413319567
H           -2.48353894892356        1.27216245000024        2.99771472019042
H           -1.05949542845034        0.25192977890524        2.99271941087472
H           -1.28672927383060        1.35771445757977        5.12624686899886
H            0.20063450090777        1.84199685282591        4.32847952815177
H           -0.77765696489132        3.79551845831691        5.37307325975810
H           -0.77907843904433        3.97051142779531        3.62898416334816
H           -2.86986492695836        4.80853023746652        4.36913970092676
H           -3.19860981654781        3.26739444805927        3.59034294362710
H           -4.54064616324847        3.35151475655920        5.56848062904425
H           -3.24617305768175        2.18278172899602        5.88494406995797
H           -4.06883050289356        5.83412071361872        6.38143684203661
H           -2.94191070684689        6.64615978169717        8.74989861514407
H           -2.54354065880170        1.50764871615842        8.06692286314837
H           -1.07026460853030        2.02866903767617        7.24962792998357
H           -1.20376602130600        2.16764452252682        9.00152417299199
H           -0.81800396353192        3.86456283363255       10.10658151628065
H           -0.95735700024626        5.63011399454975       10.08216877583525
H           -2.25090698083283        6.68279474019335       11.74070163337410
H           -3.91752973119399        6.58967082606076       13.54178437117811
H           -5.15075037654667        4.49872755631078       13.98164276863214
H           -4.70721448952320        2.49870310135324       12.60762612884910
H           -3.03945790658373        2.58389941947186       10.81027304389434

          :  Hamiltonian                  GFN2-xTB          :
         :: total energy             -67.304489547164 Eh    ::
         :: gradient norm              0.000532631078 Eh/a0 ::
         :: HOMO-LUMO gap              2.538600168175 eV    ::
         :: SCC energy               -68.390848180139 Eh    ::
         :: -> dispersion             -0.051740826164 Eh    ::
         :: repulsion energy           1.086358632975 Eh    ::

    * Orbital Energies and Occupations

         #    Occupation            Energy/Eh            Energy/eV
      -------------------------------------------------------------
         1        2.0000           -0.8770191             -23.8649
       ...           ...                  ...                  ...
        51        2.0000           -0.5366997             -14.6043
        52        2.0000           -0.5342593             -14.5379
        53        2.0000           -0.5309885             -14.4489
        54        2.0000           -0.5306824             -14.4406
        55        2.0000           -0.5235609             -14.2468
        56        2.0000           -0.5149015             -14.0112
        57        2.0000           -0.5144963             -14.0002
        58        2.0000           -0.5119200             -13.9301
        59        2.0000           -0.5061908             -13.7742
        60        2.0000           -0.5022897             -13.6680
        61        2.0000           -0.4855275             -13.2119
        62        2.0000           -0.4818521             -13.1119
        63        2.0000           -0.4787356             -13.0271 (HOMO)
        64                         -0.3854437             -10.4885 (LUMO)
        65                         -0.3530517              -9.6070
        66                         -0.3386588              -9.2154
        67                         -0.3328492              -9.0573
        68                         -0.2106834              -5.7330
        69                         -0.1676790              -4.5628
        70                         -0.1166680              -3.1747
        71                         -0.0607424              -1.6529
        72                         -0.0537011              -1.4613
        73                         -0.0437486              -1.1905
        74                         -0.0341740              -0.9299
       ...                                ...                  ...
       125                          0.5542225              15.0812
      -------------------------------------------------------------
                  HL-Gap            0.0932918 Eh            2.5386 eV

     #   Z          covCN         q      C6AA      α(0)
     1   6 C        3.751    -0.104    22.541     6.771
     2   6 C        3.799    -0.053    21.529     6.606
     3   6 C        3.800    -0.058    21.619     6.620
     4   6 C        3.800    -0.059    21.631     6.622
     5   6 C        3.800    -0.060    21.655     6.626
     6   6 C        3.800    -0.061    21.673     6.628
     7   6 C        3.800    -0.060    21.662     6.627
     8   6 C        3.800    -0.063    21.711     6.634
     9   6 C        3.801    -0.070    21.840     6.654
    10   6 C        3.741    -0.023    21.061     6.548
    11   7 N        2.874     0.038    20.585     6.739
    12   6 C        3.049    -0.009    28.195     8.709
    13   6 C        3.052    -0.009    28.190     8.708
    14   7 N        2.873     0.037    20.598     6.741
    15   6 C        3.097     0.108    25.499     8.276
    16   6 C        3.754    -0.131    23.082     6.851
    17   6 C        3.747    -0.023    21.050     6.544
    18   6 C        2.972    -0.003    28.085     8.693
    19   6 C        2.923    -0.035    28.862     8.810
    20   6 C        2.920    -0.021    28.540     8.761
    21   6 C        2.920    -0.020    28.515     8.757
    22   6 C        2.919    -0.023    28.585     8.768
    23   6 C        2.923    -0.039    28.958     8.825
    24   1 H        0.925     0.034     2.528     2.486
    25   1 H        0.925     0.036     2.501     2.473
    26   1 H        0.925     0.037     2.493     2.469
    27   1 H        0.924     0.029     2.596     2.520
    28   1 H        0.924     0.031     2.574     2.509
    29   1 H        0.924     0.024     2.668     2.555
    30   1 H        0.924     0.034     2.536     2.490
    31   1 H        0.924     0.024     2.676     2.558
    32   1 H        0.924     0.039     2.457     2.451
    33   1 H        0.924     0.026     2.650     2.546
    34   1 H        0.924     0.042     2.417     2.431
    35   1 H        0.924     0.025     2.657     2.549
    36   1 H        0.924     0.045     2.389     2.417
    37   1 H        0.924     0.016     2.790     2.612
    38   1 H        0.924     0.046     2.374     2.409
    39   1 H        0.924     0.019     2.756     2.596
    40   1 H        0.925     0.060     2.201     2.320
    41   1 H        0.924     0.049     2.327     2.386
    42   1 H        0.925     0.075     2.029     2.228
    43   1 H        0.924     0.080     1.983     2.202
    44   1 H        0.925     0.084     1.938     2.177
    45   1 H        0.927     0.099     1.795     2.095
    46   1 H        0.927     0.099     1.792     2.093
    47   1 H        0.925     0.093     1.847     2.125
    48   1 H        0.925     0.102     1.767     2.079
    49   1 H        0.925     0.089     1.889     2.149
    50   1 H        0.924     0.079     1.992     2.207
    51   1 H        0.924     0.085     1.929     2.172
    52   1 H        0.926     0.042     2.421     2.433
    53   1 H        0.926     0.057     2.235     2.338
    54   1 H        0.926     0.058     2.222     2.331
    55   1 H        0.926     0.053     2.288     2.365
    56   1 H        0.926     0.031     2.577     2.510

Wiberg/Mayer (AO) data.
largest (>0.10) Wiberg bond orders for each atom

     #   Z sym  total        # sym  WBO       # sym  WBO       # sym  WBO
 ---------------------------------------------------------------------------
     1   6 C    3.997 --     2 C    1.020    26 H    0.987    25 H    0.987
                            24 H    0.986
     2   6 C    3.998 --     1 C    1.020     3 C    1.008    28 H    0.978
                            27 H    0.976
     3   6 C    3.997 --     2 C    1.008     4 C    1.007    30 H    0.977
                            29 H    0.976
     4   6 C    3.997 --     5 C    1.008     3 C    1.007    31 H    0.976
                            32 H    0.975
     5   6 C    3.996 --     4 C    1.008     6 C    1.008    33 H    0.975
                            34 H    0.974
     6   6 C    3.996 --     5 C    1.008     7 C    1.007    35 H    0.975
                            36 H    0.973
     7   6 C    3.996 --     8 C    1.007     6 C    1.007    38 H    0.974
                            37 H    0.971
     8   6 C    3.994 --     9 C    1.008     7 C    1.007    39 H    0.976
                            40 H    0.970
     9   6 C    3.985 --     8 C    1.008    10 C    0.986    41 H    0.974
                            42 H    0.964
    10   6 C    3.940 --     9 C    0.986    11 N    0.968    44 H    0.963
                            43 H    0.962
    11   7 N    3.690 --    15 C    1.325    12 C    1.209    10 C    0.968
    12   6 C    3.952 --    13 C    1.615    11 N    1.209    45 H    0.962
    13   6 C    3.950 --    12 C    1.615    14 N    1.206    46 H    0.962
    14   7 N    3.690 --    15 C    1.328    13 C    1.206    17 C    0.960
    15   6 C    3.951 --    14 N    1.328    11 N    1.325    16 C    1.043
    16   6 C    3.979 --    15 C    1.043    49 H    0.968    47 H    0.953
                            48 H    0.947
    17   6 C    3.939 --    18 C    0.980    51 H    0.961    14 N    0.960
                            50 H    0.957
    18   6 C    3.979 --    19 C    1.418    23 C    1.411    17 C    0.980
                            21 C    0.109
    19   6 C    3.990 --    20 C    1.439    18 C    1.418    52 H    0.968
                            22 C    0.110
    20   6 C    3.989 --    21 C    1.442    19 C    1.439    53 H    0.969
                            23 C    0.112
    21   6 C    3.989 --    20 C    1.442    22 C    1.436    54 H    0.969
                            18 C    0.109
    22   6 C    3.991 --    23 C    1.447    21 C    1.436    55 H    0.969
                            19 C    0.110
    23   6 C    3.992 --    22 C    1.447    18 C    1.411    56 H    0.969
                            20 C    0.112
    24   1 H    0.999 --     1 C    0.986
    25   1 H    0.999 --     1 C    0.987
    26   1 H    0.999 --     1 C    0.987
    27   1 H    0.999 --     2 C    0.976
    28   1 H    0.999 --     2 C    0.978
    29   1 H    0.999 --     3 C    0.976
    30   1 H    0.999 --     3 C    0.977
    31   1 H    0.999 --     4 C    0.976
    32   1 H    0.998 --     4 C    0.975
    33   1 H    0.999 --     5 C    0.975
    34   1 H    0.998 --     5 C    0.974
    35   1 H    0.999 --     6 C    0.975
    36   1 H    0.998 --     6 C    0.973
    37   1 H    1.000 --     7 C    0.971
    38   1 H    0.998 --     7 C    0.974
    39   1 H    1.000 --     8 C    0.976
    40   1 H    0.996 --     8 C    0.970
    41   1 H    0.998 --     9 C    0.974
    42   1 H    0.994 --     9 C    0.964
    43   1 H    0.993 --    10 C    0.962
    44   1 H    0.993 --    10 C    0.963
    45   1 H    0.989 --    12 C    0.962
    46   1 H    0.990 --    13 C    0.962
    47   1 H    0.991 --    16 C    0.953
    48   1 H    0.989 --    16 C    0.947
    49   1 H    0.992 --    16 C    0.968
    50   1 H    0.993 --    17 C    0.957
    51   1 H    0.992 --    17 C    0.961
    52   1 H    0.998 --    19 C    0.968
    53   1 H    0.996 --    20 C    0.969
    54   1 H    0.996 --    21 C    0.969
    55   1 H    0.997 --    22 C    0.969
    56   1 H    0.999 --    23 C    0.969
 ---------------------------------------------------------------------------

molecular dipole:
                 x           y           z       tot (Debye)
 q only:       -4.863       7.433      14.796
   full:       -4.873       7.472      14.835      43.999

           -------------------------------------------------
          | TOTAL ENERGY              -67.304489547164 Eh   |
          | GRADIENT NORM               0.000532631078 Eh/α |
          | HOMO-LUMO GAP               2.538600168175 eV   |
           -------------------------------------------------

 * finished run on 2024/12/20 at 06:54:49.189
