   * xtb version 6.7.1 (edcfbbe) compiled by 'conda@3ef47c1a292c' on 2024-11-25

   ID    Z sym.   atoms
    1    6 C      1-4, 6, 8-10, 12, 13
    2    7 N      5, 7, 11
    3    1 H      14-35

          program call               : xtb C0738.xyz --opt --namespace C0738 --charge +1
          :  Hamiltonian                  GFN2-xTB          :
 * total energy  :   -41.0479016 Eh     change       -0.6081535E-10 Eh
 * total energy  :   -41.0568561 Eh     change       -0.8954566E-02 Eh
 * total energy  :   -41.0581925 Eh     change       -0.1336323E-02 Eh
 * total energy  :   -41.0583193 Eh     change       -0.1268270E-03 Eh
 * total energy  :   -41.0585558 Eh     change       -0.2365702E-03 Eh
 * total energy  :   -41.0586583 Eh     change       -0.1024699E-03 Eh
 * total energy  :   -41.0587679 Eh     change       -0.1095902E-03 Eh
 * total energy  :   -41.0588279 Eh     change       -0.5999671E-04 Eh
 * total energy  :   -41.0588689 Eh     change       -0.4098571E-04 Eh
 * total energy  :   -41.0589132 Eh     change       -0.4427932E-04 Eh
 * total energy  :   -41.0589518 Eh     change       -0.3859258E-04 Eh
 * total energy  :   -41.0589752 Eh     change       -0.2346048E-04 Eh
 * total energy  :   -41.0589569 Eh     change        0.1829055E-04 Eh
 * total energy  :   -41.0589934 Eh     change       -0.3648413E-04 Eh
 * total energy  :   -41.0590026 Eh     change       -0.9210576E-05 Eh
 * total energy  :   -41.0590052 Eh     change       -0.2580002E-05 Eh
 * total energy  :   -41.0590086 Eh     change       -0.3345882E-05 Eh
   *** GEOMETRY OPTIMIZATION CONVERGED AFTER 17 ITERATIONS ***

 final structure:
================
35
 xtb: 6.7.1 (edcfbbe)
C            0.54954330746951       -0.60355300318990        0.94261892319104
C            0.11245165225856        0.14260969184581        2.19768390498160
C            0.79927301549969        1.49947570500333        2.36807224743752
C            0.40223179546013        2.52943194084488        1.30820158500026
N           -1.02539807376419        2.84390993297646        1.34317972533594
C           -1.65572511317547        3.20575672669178        2.46420313653549
N           -1.12273857504505        3.97681712675914        3.42541105122466
C            0.03983678845245        4.82528632766446        3.32581672494503
C           -2.05539204911673        4.15139415498467        4.52994198643301
C           -3.33995179362774        3.49662103768586        4.01376756997229
N           -2.91483690834237        2.86079258809495        2.77618079445299
C           -3.72863392898812        1.81238768791652        2.21364654104615
C           -1.73772604692500        2.67065074457053        0.08940519498526
H            0.26023533278943       -0.07916521453266        0.03495397474587
H            0.09287325200151       -1.58923805350784        0.91814317874359
H            1.62884121042207       -0.73109692910956        0.93489188553285
H           -0.97233480114918        0.27547971352264        2.19121084238826
H            0.35597292843634       -0.46954219701101        3.06726254942943
H            0.57436047013556        1.88716421178223        3.36371812958795
H            1.87923836933242        1.35973135410715        2.30384071876343
H            1.01240438724061        3.42820104597913        1.41495479288540
H            0.60304560719692        2.11711213751325        0.32034781759306
H           -0.04988495874486        5.61890430393612        4.06447133710529
H            0.96017528019936        4.27574432209835        3.53288130170877
H            0.09962092904730        5.28413747848595        2.33915625394745
H           -2.19252114541489        5.21277776807636        4.74474640871432
H           -1.66745925683471        3.66374438938156        5.43003470431128
H           -4.13239714999091        4.22415990776869        3.81063199516056
H           -3.73094336764072        2.74855465659384        4.70634327447660
H           -3.12497303744906        1.12414068254803        1.62921404371466
H           -4.19100361481545        1.25251879803001        3.02813765771505
H           -4.52638280921677        2.22052290108166        1.58851127678594
H           -1.21020811306854        3.23327172679466       -0.68316636500527
H           -1.77725719545288        1.62430203654972       -0.21795196829674
H           -2.74479638717929        3.06924429806270        0.16191680445165

          :  Hamiltonian                  GFN2-xTB          :
         :: total energy             -41.059008552413 Eh    ::
         :: gradient norm              0.000588173168 Eh/a0 ::
         :: HOMO-LUMO gap              4.149609120838 eV    ::
         :: SCC energy               -41.627228224505 Eh    ::
         :: -> dispersion             -0.029097428941 Eh    ::
         :: repulsion energy           0.568219672092 Eh    ::

    * Orbital Energies and Occupations

         #    Occupation            Energy/Eh            Energy/eV
      -------------------------------------------------------------
         1        2.0000           -0.8602866             -23.4096
       ...           ...                  ...                  ...
        26        2.0000           -0.6216417             -16.9157
        27        2.0000           -0.6191994             -16.8493
        28        2.0000           -0.6173954             -16.8002
        29        2.0000           -0.6096723             -16.5900
        30        2.0000           -0.6039472             -16.4342
        31        2.0000           -0.5982726             -16.2798
        32        2.0000           -0.5903673             -16.0647
        33        2.0000           -0.5783130             -15.7367
        34        2.0000           -0.5532795             -15.0555
        35        2.0000           -0.5476843             -14.9032
        36        2.0000           -0.5400680             -14.6960
        37        2.0000           -0.5270640             -14.3421
        38        2.0000           -0.5247780             -14.2799 (HOMO)
        39                         -0.3722827             -10.1303 (LUMO)
        40                         -0.2036259              -5.5409
        41                         -0.1482450              -4.0340
        42                         -0.1284870              -3.4963
        43                         -0.1077146              -2.9311
        44                         -0.0978986              -2.6640
        45                         -0.0486343              -1.3234
        46                         -0.0381298              -1.0376
        47                         -0.0307830              -0.8376
        48                         -0.0226571              -0.6165
        49                         -0.0170154              -0.4630
       ...                                ...                  ...
        74                          0.3863486              10.5131
      -------------------------------------------------------------
                  HL-Gap            0.1524953 Eh            4.1496 eV

     #   Z          covCN         q      C6AA      α(0)
     1   6 C        3.751    -0.111    22.690     6.793
     2   6 C        3.800    -0.056    21.576     6.614
     3   6 C        3.801    -0.071    21.855     6.656
     4   6 C        3.746    -0.022    21.039     6.543
     5   7 N        2.733    -0.067    22.536     7.051
     6   6 C        2.857     0.193    23.887     8.011
     7   7 N        2.780    -0.058    22.361     7.023
     8   6 C        3.689    -0.066    21.970     6.709
     9   6 C        3.799    -0.018    20.904     6.510
    10   6 C        3.799    -0.018    20.906     6.510
    11   7 N        2.781    -0.060    22.395     7.029
    12   6 C        3.689    -0.066    21.965     6.708
    13   6 C        3.698    -0.065    21.921     6.697
    14   1 H        0.925     0.033     2.541     2.493
    15   1 H        0.925     0.050     2.323     2.383
    16   1 H        0.925     0.049     2.330     2.387
    17   1 H        0.924     0.022     2.698     2.568
    18   1 H        0.924     0.049     2.337     2.391
    19   1 H        0.924     0.035     2.513     2.479
    20   1 H        0.924     0.064     2.158     2.297
    21   1 H        0.924     0.061     2.190     2.314
    22   1 H        0.925     0.084     1.936     2.176
    23   1 H        0.925     0.088     1.901     2.156
    24   1 H        0.924     0.081     1.971     2.195
    25   1 H        0.925     0.075     2.029     2.227
    26   1 H        0.924     0.083     1.947     2.182
    27   1 H        0.924     0.080     1.978     2.199
    28   1 H        0.924     0.079     1.986     2.204
    29   1 H        0.924     0.083     1.947     2.182
    30   1 H        0.925     0.082     1.954     2.186
    31   1 H        0.924     0.083     1.949     2.183
    32   1 H        0.924     0.077     2.015     2.220
    33   1 H        0.924     0.080     1.984     2.203
    34   1 H        0.924     0.073     2.049     2.238
    35   1 H        0.925     0.074     2.042     2.235

Wiberg/Mayer (AO) data.
largest (>0.10) Wiberg bond orders for each atom

     #   Z sym  total        # sym  WBO       # sym  WBO       # sym  WBO
 ---------------------------------------------------------------------------
     1   6 C    3.994 --     2 C    1.021    16 H    0.986    15 H    0.985
                            14 H    0.984
     2   6 C    3.996 --     1 C    1.021     3 C    1.007    18 H    0.976
                            17 H    0.975
     3   6 C    3.992 --     2 C    1.007     4 C    1.001    19 H    0.974
                            20 H    0.970
     4   6 C    3.951 --     3 C    1.001    22 H    0.964    21 H    0.961
                             5 N    0.960
     5   7 N    3.477 --     6 C    1.276    13 C    0.986     4 C    0.960
     6   6 C    3.975 --     5 N    1.276    11 N    1.273     7 N    1.273
     7   7 N    3.511 --     6 C    1.273     8 C    0.993     9 C    0.978
                            11 N    0.105
     8   6 C    3.951 --     7 N    0.993    25 H    0.974    23 H    0.974
                            24 H    0.966
     9   6 C    3.963 --    10 C    1.003     7 N    0.978    26 H    0.966
                            27 H    0.966
    10   6 C    3.963 --     9 C    1.003    11 N    0.979    28 H    0.966
                            29 H    0.966
    11   7 N    3.513 --     6 C    1.273    12 C    0.994    10 C    0.979
                             7 N    0.105
    12   6 C    3.950 --    11 N    0.994    30 H    0.972    31 H    0.970
                            32 H    0.970
    13   6 C    3.954 --     5 N    0.986    35 H    0.978    34 H    0.973
                            33 H    0.971
    14   1 H    0.999 --     1 C    0.984
    15   1 H    0.997 --     1 C    0.985
    16   1 H    0.998 --     1 C    0.986
    17   1 H    0.999 --     2 C    0.975
    18   1 H    0.998 --     2 C    0.976
    19   1 H    0.999 --     3 C    0.974
    20   1 H    0.996 --     3 C    0.970
    21   1 H    0.996 --     4 C    0.961
    22   1 H    0.992 --     4 C    0.964
    23   1 H    0.992 --     8 C    0.974
    24   1 H    0.993 --     8 C    0.966
    25   1 H    0.994 --     8 C    0.974
    26   1 H    0.992 --     9 C    0.966
    27   1 H    0.993 --     9 C    0.966
    28   1 H    0.993 --    10 C    0.966
    29   1 H    0.992 --    10 C    0.966
    30   1 H    0.993 --    12 C    0.972
    31   1 H    0.993 --    12 C    0.970
    32   1 H    0.993 --    12 C    0.970
    33   1 H    0.993 --    13 C    0.971
    34   1 H    0.994 --    13 C    0.973
    35   1 H    0.994 --    13 C    0.978
 ---------------------------------------------------------------------------

molecular dipole:
                 x           y           z       tot (Debye)
 q only:       -3.029       5.807       4.776
   full:       -3.072       5.866       4.782      20.762

           -------------------------------------------------
          | TOTAL ENERGY              -41.059008552413 Eh   |
          | GRADIENT NORM               0.000588173168 Eh/α |
          | HOMO-LUMO GAP               4.149609120838 eV   |
           -------------------------------------------------

 * finished run on 2024/12/20 at 06:54:55.950
