   * xtb version 6.7.1 (edcfbbe) compiled by 'conda@3ef47c1a292c' on 2024-11-25

   ID    Z sym.   atoms
    1    8 O      1
    2    6 C      2, 3, 5-9
    3    7 N      4
    4    1 H      10-19

          program call               : xtb C0730.xyz --opt --namespace C0730 --charge +1
          :  Hamiltonian                  GFN2-xTB          :
 * total energy  :   -26.6467490 Eh     change       -0.2617359E-08 Eh
 * total energy  :   -26.6499181 Eh     change       -0.3169163E-02 Eh
 * total energy  :   -26.6506409 Eh     change       -0.7227304E-03 Eh
 * total energy  :   -26.6507798 Eh     change       -0.1388934E-03 Eh
 * total energy  :   -26.6508988 Eh     change       -0.1190364E-03 Eh
 * total energy  :   -26.6509912 Eh     change       -0.9241640E-04 Eh
 * total energy  :   -26.6511155 Eh     change       -0.1243234E-03 Eh
 * total energy  :   -26.6512882 Eh     change       -0.1726856E-03 Eh
 * total energy  :   -26.6514734 Eh     change       -0.1851922E-03 Eh
 * total energy  :   -26.6516661 Eh     change       -0.1926523E-03 Eh
 * total energy  :   -26.6550762 Eh     change       -0.4101943E-04 Eh
 * total energy  :   -26.6551181 Eh     change       -0.4184836E-04 Eh
 * total energy  :   -26.6551432 Eh     change       -0.2515225E-04 Eh
 * total energy  :   -26.6551655 Eh     change       -0.2230222E-04 Eh
 * total energy  :   -26.6551869 Eh     change       -0.2133907E-04 Eh
 * total energy  :   -26.6552018 Eh     change       -0.1496777E-04 Eh
 * total energy  :   -26.6552074 Eh     change       -0.5575363E-05 Eh
 * total energy  :   -26.6552138 Eh     change       -0.6439283E-05 Eh
 * total energy  :   -26.6552150 Eh     change       -0.1125507E-05 Eh
   *** GEOMETRY OPTIMIZATION CONVERGED AFTER 48 ITERATIONS ***

 final structure:
================
19
 xtb: 6.7.1 (edcfbbe)
O            1.16959111621486       -0.06300535775753        1.01172929250913
C            0.52077360936786       -1.30659786227456        1.10237527077052
C            1.13538904709542       -2.21811582667421        0.02674603604431
N            2.56784395793597       -2.30634783609653        0.23728562938054
C            3.35027035862035       -1.31863645983009       -0.21010627242477
C            4.70647652090342       -1.31566184082245        0.04750328036871
C            5.26293834812891       -2.35726906902858        0.77736303571917
C            4.43054383794944       -3.37312836626392        1.23214764347641
C            3.08196252303213       -3.31503217476542        0.95003638421760
H            0.71765264821521        0.58734041621944        1.55933376432942
H            0.66529534181581       -1.75190364673440        2.09728336149750
H           -0.55382044757176       -1.22154158063881        0.90596856900058
H            0.68419622621719       -3.20896476094380        0.07636543523879
H            0.94710029862980       -1.77783338153601       -0.95401131127457
H            2.87323537872700       -0.52236661729500       -0.76104113083337
H            5.31602870787995       -0.50644010154149       -0.32135401949384
H            6.32058241181491       -2.37846553595573        0.98856393477520
H            4.82126621501073       -4.20056638229677        1.80236375104271
H            2.40074390001292       -4.08124361576452        1.29056734565669

          :  Hamiltonian                  GFN2-xTB          :
         :: total energy             -26.655214969533 Eh    ::
         :: gradient norm              0.000219940088 Eh/a0 ::
         :: HOMO-LUMO gap              2.864199704730 eV    ::
         :: SCC energy               -27.050776559204 Eh    ::
         :: -> dispersion             -0.013245740616 Eh    ::
         :: repulsion energy           0.395561589671 Eh    ::

    * Orbital Energies and Occupations

         #    Occupation            Energy/Eh            Energy/eV
      -------------------------------------------------------------
         1        2.0000           -0.8806104             -23.9626
       ...           ...                  ...                  ...
        12        2.0000           -0.7159505             -19.4820
        13        2.0000           -0.7016567             -19.0931
        14        2.0000           -0.6858179             -18.6621
        15        2.0000           -0.6796264             -18.4936
        16        2.0000           -0.6758844             -18.3918
        17        2.0000           -0.6634527             -18.0535
        18        2.0000           -0.6428319             -17.4923
        19        2.0000           -0.6352852             -17.2870
        20        2.0000           -0.6227474             -16.9458
        21        2.0000           -0.6219383             -16.9238
        22        2.0000           -0.6147294             -16.7276
        23        2.0000           -0.6083847             -16.5550
        24        2.0000           -0.5641043             -15.3501 (HOMO)
        25                         -0.4588469             -12.4859 (LUMO)
        26                         -0.4276559             -11.6371
        27                         -0.3073327              -8.3629
        28                         -0.1765039              -4.8029
        29                         -0.1025236              -2.7898
        30                         -0.0694576              -1.8900
        31                         -0.0661080              -1.7989
        32                         -0.0391421              -1.0651
        33                         -0.0288968              -0.7863
        34                         -0.0171045              -0.4654
        35                         -0.0114566              -0.3117
       ...                                ...                  ...
        46                          0.4488743              12.2145
      -------------------------------------------------------------
                  HL-Gap            0.1052574 Eh            2.8642 eV

     #   Z          covCN         q      C6AA      α(0)
     1   8 O        1.656    -0.438    21.597     6.274
     2   6 C        3.675     0.076    19.535     6.333
     3   6 C        3.760    -0.040    21.342     6.586
     4   7 N        2.752     0.125    19.111     6.493
     5   6 C        2.893     0.041    27.089     8.533
     6   6 C        2.916    -0.008    28.222     8.711
     7   6 C        2.925     0.015    27.681     8.628
     8   6 C        2.916    -0.010    28.256     8.717
     9   6 C        2.890     0.030    27.319     8.569
    10   1 H        0.805     0.318     0.670     1.285
    11   1 H        0.923     0.048     2.340     2.392
    12   1 H        0.924     0.069     2.096     2.264
    13   1 H        0.925     0.096     1.820     2.110
    14   1 H        0.924     0.111     1.688     2.032
    15   1 H        0.926     0.129     1.543     1.942
    16   1 H        0.926     0.111     1.684     2.030
    17   1 H        0.926     0.109     1.705     2.042
    18   1 H        0.926     0.109     1.701     2.039
    19   1 H        0.926     0.108     1.715     2.048

Wiberg/Mayer (AO) data.
largest (>0.10) Wiberg bond orders for each atom

     #   Z sym  total        # sym  WBO       # sym  WBO       # sym  WBO
 ---------------------------------------------------------------------------
     1   8 O    1.957 --     2 C    1.011    10 H    0.883
     2   6 C    3.957 --     1 O    1.011     3 C    0.976    11 H    0.967
                            12 H    0.962
     3   6 C    3.942 --     2 C    0.976     4 N    0.972    13 H    0.965
                            14 H    0.958
     4   7 N    3.773 --     5 C    1.329     9 C    1.324     3 C    0.972
     5   6 C    3.950 --     6 C    1.455     4 N    1.329    15 H    0.949
     6   6 C    3.980 --     5 C    1.455     7 C    1.428    16 H    0.958
     7   6 C    3.969 --     6 C    1.428     8 C    1.417    17 H    0.961
     8   6 C    3.981 --     9 C    1.467     7 C    1.417    18 H    0.959
     9   6 C    3.958 --     8 C    1.467     4 N    1.324    19 H    0.955
    10   1 H    0.899 --     1 O    0.883
    11   1 H    0.998 --     2 C    0.967
    12   1 H    0.994 --     2 C    0.962
    13   1 H    0.990 --     3 C    0.965
    14   1 H    0.987 --     3 C    0.958
    15   1 H    0.983 --     5 C    0.949
    16   1 H    0.987 --     6 C    0.958
    17   1 H    0.988 --     7 C    0.961
    18   1 H    0.988 --     8 C    0.959
    19   1 H    0.988 --     9 C    0.955
 ---------------------------------------------------------------------------

molecular dipole:
                 x           y           z       tot (Debye)
 q only:        5.408      -4.136       1.059
   full:        5.194      -4.139       1.201      17.154

           -------------------------------------------------
          | TOTAL ENERGY              -26.655214969533 Eh   |
          | GRADIENT NORM               0.000219940088 Eh/α |
          | HOMO-LUMO GAP               2.864199704730 eV   |
           -------------------------------------------------

 * finished run on 2024/12/20 at 06:54:43.773
