   * xtb version 6.7.1 (edcfbbe) compiled by 'conda@3ef47c1a292c' on 2024-11-25

   ID    Z sym.   atoms
    1    6 C      1-5, 7-16, 19
    2    7 N      6
    3    8 O      17, 18
    4    1 H      20-45

          program call               : xtb C0744.xyz --opt --namespace C0744 --charge +1
          :  Hamiltonian                  GFN2-xTB          :
 * total energy  :   -58.1572500 Eh     change       -0.1052115E-08 Eh
 * total energy  :   -58.1695273 Eh     change       -0.1227729E-01 Eh
 * total energy  :   -58.1733541 Eh     change       -0.3826781E-02 Eh
 * total energy  :   -58.1743425 Eh     change       -0.9883705E-03 Eh
 * total energy  :   -58.1749367 Eh     change       -0.5941860E-03 Eh
 * total energy  :   -58.1754322 Eh     change       -0.4955520E-03 Eh
 * total energy  :   -58.1758837 Eh     change       -0.4514796E-03 Eh
 * total energy  :   -58.1763285 Eh     change       -0.4448406E-03 Eh
 * total energy  :   -58.1767338 Eh     change       -0.4052983E-03 Eh
 * total energy  :   -58.1770636 Eh     change       -0.3297565E-03 Eh
 * total energy  :   -58.1809961 Eh     change       -0.3109752E-04 Eh
 * total energy  :   -58.1810141 Eh     change       -0.1799472E-04 Eh
 * total energy  :   -58.1810279 Eh     change       -0.1383529E-04 Eh
 * total energy  :   -58.1810469 Eh     change       -0.1901474E-04 Eh
 * total energy  :   -58.1810575 Eh     change       -0.1055088E-04 Eh
 * total energy  :   -58.1810654 Eh     change       -0.7874935E-05 Eh
 * total energy  :   -58.1810737 Eh     change       -0.8305921E-05 Eh
 * total energy  :   -58.1810800 Eh     change       -0.6342591E-05 Eh
 * total energy  :   -58.1810839 Eh     change       -0.3842435E-05 Eh
   *** GEOMETRY OPTIMIZATION CONVERGED AFTER 52 ITERATIONS ***

 final structure:
================
45
 xtb: 6.7.1 (edcfbbe)
C            2.08260111960609        1.08813418542387       -1.17496796994216
C            1.11780777811476        0.92456143499071       -0.00702112595283
C            0.99600834207270        2.18326125256997        0.85510818666368
C            0.33554852340936        3.37112095693774        0.14256962995607
C           -1.15980568914687        3.15333233597135       -0.14974097988620
N           -2.08032369083086        3.95665589113833        0.73710144446422
C           -1.94915286298837        5.44100333291863        0.52582234986580
C           -2.13193118487342        5.90588420996101       -0.89301611099586
C           -1.02272860014733        6.10107603321800       -1.70961228036188
C           -1.18194083211544        6.54489762858665       -3.01133865927517
C           -2.44935257416734        6.79764669183817       -3.50878892913808
C           -3.55623003125568        6.62664450935585       -2.69431186119862
C           -3.39897558197001        6.19151941591038       -1.39108206369129
C           -3.48773210941231        3.54766787340417        0.53423629273388
C           -1.76516723958887        3.67265332131297        2.15409464185330
C           -1.51131123982152        3.26449434533719       -1.65980935868155
O           -2.63513127631030        3.26660069926193       -2.08719810939193
O           -0.43669076124744        3.21716214065209       -2.42133200720441
C           -0.66070112399735        3.18255490948722       -3.83229080608558
H            1.70903533334091        1.80377525127462       -1.90238490238221
H            2.21619321101666        0.13574232950990       -1.68006167667718
H            3.05443627996711        1.42338257021390       -0.82182408636606
H            0.13891551567762        0.62339777822755       -0.38837010832869
H            1.47640638631844        0.11665926223715        0.63269539796305
H            0.45117098528837        1.93585312544482        1.76853910808909
H            2.00036401417760        2.48998394551074        1.15121705454655
H            0.49134974140780        4.27040064896106        0.73670986655157
H            0.86111305631399        3.52974469441074       -0.79640861304547
H           -1.39332272658127        2.10351011777430        0.07634538502525
H           -2.69744612563364        5.91526921686561        1.16467897633929
H           -0.96178890196455        5.74521317412144        0.87682478736541
H           -0.02834066767896        5.92408594907987       -1.32649859370828
H           -0.31297905613427        6.70161032202688       -3.63202494803389
H           -2.57316592155279        7.14032684751577       -4.52413536969537
H           -4.54383346560359        6.83966299241688       -3.07126203351335
H           -4.26786811098146        6.09028937958471       -0.75808606758720
H           -3.59402111886225        2.48063155748157        0.72098812245372
H           -4.12719067364228        4.08951125638499        1.22806630031311
H           -3.80188876474301        3.75029174974646       -0.48665971866438
H           -1.88251223237366        2.60944553077397        2.35515414943340
H           -0.75123174715152        3.96884830919499        2.40738038319630
H           -2.45173753626940        4.22229582185899        2.79576427161711
H           -1.23725157651890        2.29602949500463       -4.09838544530476
H           -1.20975313074134        4.07264141470790       -4.14317740067595
H            0.32345626763239        3.15331609138784       -4.29098712268256

          :  Hamiltonian                  GFN2-xTB          :
         :: total energy             -58.181083850879 Eh    ::
         :: gradient norm              0.000332114363 Eh/a0 ::
         :: HOMO-LUMO gap              4.093402953185 eV    ::
         :: SCC energy               -59.007695961348 Eh    ::
         :: -> dispersion             -0.046422326602 Eh    ::
         :: repulsion energy           0.826612110470 Eh    ::

    * Orbital Energies and Occupations

         #    Occupation            Energy/Eh            Energy/eV
      -------------------------------------------------------------
         1        2.0000           -0.8841467             -24.0589
       ...           ...                  ...                  ...
        41        2.0000           -0.5944291             -16.1752
        42        2.0000           -0.5899400             -16.0531
        43        2.0000           -0.5817793             -15.8310
        44        2.0000           -0.5755862             -15.6625
        45        2.0000           -0.5734137             -15.6034
        46        2.0000           -0.5528901             -15.0449
        47        2.0000           -0.5462179             -14.8633
        48        2.0000           -0.5453311             -14.8392
        49        2.0000           -0.5404555             -14.7065
        50        2.0000           -0.5385409             -14.6544
        51        2.0000           -0.5326227             -14.4934
        52        2.0000           -0.5249341             -14.2842
        53        2.0000           -0.5245015             -14.2724 (HOMO)
        54                         -0.3740717             -10.1790 (LUMO)
        55                         -0.3523158              -9.5870
        56                         -0.3412190              -9.2850
        57                         -0.2370212              -6.4497
        58                         -0.2150499              -5.8518
        59                         -0.1661544              -4.5213
        60                         -0.1548747              -4.2144
        61                         -0.1404922              -3.8230
        62                         -0.1156677              -3.1475
        63                         -0.0837112              -2.2779
        64                         -0.0563925              -1.5345
       ...                                ...                  ...
       102                          0.5431999              14.7812
      -------------------------------------------------------------
                  HL-Gap            0.1504298 Eh            4.0934 eV

     #   Z          covCN         q      C6AA      α(0)
     1   6 C        3.752    -0.113    22.728     6.799
     2   6 C        3.800    -0.059    21.628     6.622
     3   6 C        3.800    -0.070    21.841     6.654
     4   6 C        3.800    -0.081    22.038     6.684
     5   6 C        3.794    -0.016    20.861     6.504
     6   7 N        3.618     0.124    19.120     6.494
     7   6 C        3.762    -0.037    21.272     6.574
     8   6 C        2.968    -0.006    28.158     8.704
     9   6 C        2.923    -0.038    28.949     8.823
    10   6 C        2.919    -0.025    28.620     8.773
    11   6 C        2.920    -0.019    28.490     8.753
    12   6 C        2.919    -0.018    28.447     8.746
    13   6 C        2.923    -0.032    28.792     8.799
    14   6 C        3.722    -0.100    22.533     6.779
    15   6 C        3.729    -0.092    22.361     6.751
    16   6 C        2.721     0.356    20.963     7.495
    17   8 O        0.856    -0.402    21.720     6.248
    18   8 O        1.704    -0.229    17.800     5.696
    19   6 C        3.659     0.019    20.541     6.504
    20   1 H        0.925     0.038     2.469     2.457
    21   1 H        0.925     0.050     2.323     2.384
    22   1 H        0.925     0.047     2.364     2.404
    23   1 H        0.924     0.024     2.667     2.554
    24   1 H        0.924     0.050     2.317     2.380
    25   1 H        0.924     0.034     2.534     2.490
    26   1 H        0.924     0.061     2.193     2.316
    27   1 H        0.925     0.051     2.304     2.374
    28   1 H        0.925     0.093     1.847     2.125
    29   1 H        0.923     0.101     1.775     2.084
    30   1 H        0.924     0.085     1.932     2.174
    31   1 H        0.924     0.081     1.967     2.193
    32   1 H        0.926     0.039     2.461     2.453
    33   1 H        0.926     0.054     2.266     2.354
    34   1 H        0.926     0.060     2.202     2.320
    35   1 H        0.926     0.061     2.184     2.311
    36   1 H        0.926     0.045     2.381     2.413
    37   1 H        0.925     0.091     1.873     2.140
    38   1 H        0.925     0.091     1.874     2.141
    39   1 H        0.925     0.132     1.517     1.926
    40   1 H        0.925     0.096     1.824     2.112
    41   1 H        0.925     0.100     1.786     2.090
    42   1 H        0.925     0.096     1.819     2.109
    43   1 H        0.924     0.085     1.929     2.172
    44   1 H        0.924     0.079     1.993     2.207
    45   1 H        0.925     0.093     1.850     2.127

Wiberg/Mayer (AO) data.
largest (>0.10) Wiberg bond orders for each atom

     #   Z sym  total        # sym  WBO       # sym  WBO       # sym  WBO
 ---------------------------------------------------------------------------
     1   6 C    3.994 --     2 C    1.021    22 H    0.986    21 H    0.985
                            20 H    0.984
     2   6 C    3.996 --     1 C    1.021     3 C    1.008    24 H    0.976
                            23 H    0.974
     3   6 C    3.992 --     2 C    1.008     4 C    1.003    25 H    0.975
                            26 H    0.973
     4   6 C    3.978 --     3 C    1.003     5 C    0.992    27 H    0.962
                            28 H    0.955
     5   6 C    3.934 --     4 C    0.992    29 H    0.931    16 C    0.927
                             6 N    0.921
     6   7 N    3.806 --    15 C    0.959    14 C    0.953     5 C    0.921
                             7 C    0.912
     7   6 C    3.929 --     8 C    1.006    30 H    0.963    31 H    0.961
                             6 N    0.912
     8   6 C    3.979 --    13 C    1.408     9 C    1.404     7 C    1.006
                            11 C    0.108
     9   6 C    3.991 --    10 C    1.440     8 C    1.404    32 H    0.967
                            12 C    0.108
    10   6 C    3.991 --     9 C    1.440    11 C    1.439    33 H    0.969
                            13 C    0.109
    11   6 C    3.989 --    10 C    1.439    12 C    1.435    34 H    0.969
                             8 C    0.108
    12   6 C    3.989 --    13 C    1.446    11 C    1.435    35 H    0.968
                             9 C    0.108
    13   6 C    3.991 --    12 C    1.446     8 C    1.408    36 H    0.967
                            10 C    0.109
    14   6 C    3.914 --    37 H    0.975    38 H    0.975    39 H    0.954
                             6 N    0.953
    15   6 C    3.928 --    40 H    0.974    42 H    0.974    41 H    0.970
                             6 N    0.959
    16   6 C    3.931 --    17 O    1.735    18 O    1.185     5 C    0.927
    17   8 O    2.057 --    16 C    1.735    18 O    0.183
    18   8 O    2.358 --    16 C    1.185    19 C    0.933    17 O    0.183
    19   6 C    3.897 --    45 H    0.978    43 H    0.973    44 H    0.971
                            18 O    0.933
    20   1 H    0.999 --     1 C    0.984
    21   1 H    0.998 --     1 C    0.985
    22   1 H    0.998 --     1 C    0.986
    23   1 H    0.999 --     2 C    0.974
    24   1 H    0.997 --     2 C    0.976
    25   1 H    0.999 --     3 C    0.975
    26   1 H    0.996 --     3 C    0.973
    27   1 H    0.997 --     4 C    0.962
    28   1 H    0.991 --     4 C    0.955
    29   1 H    0.990 --     5 C    0.931
    30   1 H    0.993 --     7 C    0.963
    31   1 H    0.993 --     7 C    0.961
    32   1 H    0.998 --     9 C    0.967
    33   1 H    0.997 --    10 C    0.969
    34   1 H    0.996 --    11 C    0.969
    35   1 H    0.996 --    12 C    0.968
    36   1 H    0.998 --    13 C    0.967
    37   1 H    0.992 --    14 C    0.975
    38   1 H    0.991 --    14 C    0.975
    39   1 H    0.982 --    14 C    0.954
    40   1 H    0.990 --    15 C    0.974
    41   1 H    0.990 --    15 C    0.970
    42   1 H    0.990 --    15 C    0.974
    43   1 H    0.993 --    19 C    0.973
    44   1 H    0.994 --    19 C    0.971
    45   1 H    0.991 --    19 C    0.978
 ---------------------------------------------------------------------------

molecular dipole:
                 x           y           z       tot (Debye)
 q only:       -2.766       7.601       0.093
   full:       -2.771       7.592       0.282      20.555

           -------------------------------------------------
          | TOTAL ENERGY              -58.181083850879 Eh   |
          | GRADIENT NORM               0.000332114363 Eh/α |
          | HOMO-LUMO GAP               4.093402953185 eV   |
           -------------------------------------------------

 * finished run on 2024/12/20 at 06:55:03.759
