   * xtb version 6.7.1 (edcfbbe) compiled by 'conda@3ef47c1a292c' on 2024-11-25

   ID    Z sym.   atoms
    1    6 C      1, 3, 5, 7, 10-16
    2    8 O      2, 4
    3    7 N      6, 8, 9
    4    1 H      17-30

          program call               : xtb C0740.xyz --opt --namespace C0740 --charge +1
          :  Hamiltonian                  GFN2-xTB          :
 * total energy  :   -47.2509134 Eh     change       -0.4010161E-09 Eh
 * total energy  :   -47.2569936 Eh     change       -0.6080166E-02 Eh
 * total energy  :   -47.2577876 Eh     change       -0.7940684E-03 Eh
 * total energy  :   -47.2579695 Eh     change       -0.1818976E-03 Eh
 * total energy  :   -47.2580754 Eh     change       -0.1058622E-03 Eh
 * total energy  :   -47.2581127 Eh     change       -0.3733783E-04 Eh
 * total energy  :   -47.2581367 Eh     change       -0.2400906E-04 Eh
 * total energy  :   -47.2581475 Eh     change       -0.1072811E-04 Eh
 * total energy  :   -47.2581554 Eh     change       -0.7917150E-05 Eh
 * total energy  :   -47.2581604 Eh     change       -0.4981581E-05 Eh
   *** GEOMETRY OPTIMIZATION CONVERGED AFTER 10 ITERATIONS ***

 final structure:
================
30
 xtb: 6.7.1 (edcfbbe)
C            1.09461787329760        0.40159221396516       -0.06763362110241
O            0.51243425007952        0.33949571075339       -1.37533556484920
C            1.11370108944490        1.06032591987569       -2.32548544855215
O            2.10931477524269        1.70002858961821       -2.18203905761706
C            0.35477991534324        0.91889015316078       -3.65859060585050
N            0.76203836621558       -0.27656925082121       -4.35614255146286
C            0.36536911169938       -1.53005392620099       -4.06593001124889
N           -0.47096608967436       -1.84724594972864       -3.07186987592741
N            0.88657583953095       -2.40026221027698       -4.94612420332911
C            1.68498467815246       -1.68713834705320       -5.83621405034848
C            1.61574081591680       -0.33843062954146       -5.45485739086862
C            2.31767679651240        0.64257076999707       -6.13314236033836
C            3.08279861168928        0.23350705487621       -7.21079125902646
C            3.14603181333026       -1.10324761331211       -7.59595249838959
C            2.45194848534179       -2.08860396669941       -6.91685252379129
C            0.64572233556994       -3.82186382723483       -4.95361066028809
H            0.50183055402801       -0.25640048579650        0.56141948639568
H            1.05688396865585        1.42455967900608        0.30670240443554
H            2.13444064770525        0.07532767980581       -0.10276781486064
H           -0.72202646085979        0.89316378653174       -3.47071137452632
H            0.59781380845575        1.77950087713757       -4.28279779759800
H           -0.61427173480737       -1.18166728542926       -2.32557978490256
H           -0.65125058821390       -2.81587062712781       -2.86854733799548
H            2.28663822166634        1.67713967111000       -5.83462793537746
H            3.64595692100540        0.96733324889511       -7.76414557548292
H            3.75474234581069       -1.37834929279774       -8.44201772283710
H            2.51680459563807       -3.11995150090217       -7.22159211547628
H            1.08259391183342       -4.29496997299062       -4.07183078392078
H           -0.42499495361900       -4.02835679147329       -4.98801998535020
H            1.10706009500891       -4.24899367734654       -5.83959197951279

          :  Hamiltonian                  GFN2-xTB          :
         :: total energy             -47.258160363586 Eh    ::
         :: gradient norm              0.000862621104 Eh/a0 ::
         :: HOMO-LUMO gap              3.854942323929 eV    ::
         :: SCC energy               -47.917182454705 Eh    ::
         :: -> dispersion             -0.027967846575 Eh    ::
         :: repulsion energy           0.659022091119 Eh    ::

    * Orbital Energies and Occupations

         #    Occupation            Energy/Eh            Energy/eV
      -------------------------------------------------------------
         1        2.0000           -0.8887791             -24.1849
       ...           ...                  ...                  ...
        30        2.0000           -0.6354194             -17.2906
        31        2.0000           -0.6328609             -17.2210
        32        2.0000           -0.6213710             -16.9084
        33        2.0000           -0.6187836             -16.8380
        34        2.0000           -0.6076939             -16.5362
        35        2.0000           -0.5997187             -16.3192
        36        2.0000           -0.5862244             -15.9520
        37        2.0000           -0.5780794             -15.7303
        38        2.0000           -0.5711094             -15.5407
        39        2.0000           -0.5644669             -15.3599
        40        2.0000           -0.5602070             -15.2440
        41        2.0000           -0.5338252             -14.5261
        42        2.0000           -0.5302203             -14.4280 (HOMO)
        43                         -0.3885538             -10.5731 (LUMO)
        44                         -0.3759487             -10.2301
        45                         -0.3537572              -9.6262
        46                         -0.3430260              -9.3342
        47                         -0.2278071              -6.1989
        48                         -0.1912089              -5.2031
        49                         -0.1503366              -4.0909
        50                         -0.1362908              -3.7087
        51                         -0.1143779              -3.1124
        52                         -0.0660005              -1.7960
        53                         -0.0506561              -1.3784
       ...                                ...                  ...
        78                          0.5555540              15.1174
      -------------------------------------------------------------
                  HL-Gap            0.1416665 Eh            3.8549 eV

     #   Z          covCN         q      C6AA      α(0)
     1   6 C        3.652     0.018    20.586     6.516
     2   8 O        1.703    -0.265    18.388     5.790
     3   6 C        2.716     0.352    21.016     7.504
     4   8 O        0.856    -0.344    20.595     6.084
     5   6 C        3.739    -0.048    21.522     6.620
     6   7 N        2.820    -0.023    21.688     6.917
     7   6 C        2.991     0.192    23.911     8.021
     8   7 N        2.637    -0.247    26.436     7.636
     9   7 N        2.817    -0.017    21.585     6.900
    10   6 C        3.085     0.038    27.057     8.527
    11   6 C        3.082     0.038    27.054     8.527
    12   6 C        2.910    -0.034    28.841     8.806
    13   6 C        2.927    -0.020    28.509     8.756
    14   6 C        2.926    -0.021    28.529     8.759
    15   6 C        2.910    -0.035    28.870     8.811
    16   6 C        3.690    -0.071    22.054     6.721
    17   1 H        0.925     0.087     1.913     2.163
    18   1 H        0.925     0.087     1.911     2.162
    19   1 H        0.924     0.080     1.978     2.200
    20   1 H        0.924     0.095     1.834     2.118
    21   1 H        0.924     0.116     1.645     2.006
    22   1 H        0.860     0.236     0.941     1.519
    23   1 H        0.860     0.221     1.005     1.570
    24   1 H        0.926     0.072     2.061     2.245
    25   1 H        0.926     0.079     1.987     2.204
    26   1 H        0.926     0.078     1.998     2.211
    27   1 H        0.926     0.067     2.117     2.276
    28   1 H        0.924     0.082     1.958     2.188
    29   1 H        0.924     0.084     1.937     2.176
    30   1 H        0.925     0.103     1.758     2.073

Wiberg/Mayer (AO) data.
largest (>0.10) Wiberg bond orders for each atom

     #   Z sym  total        # sym  WBO       # sym  WBO       # sym  WBO
 ---------------------------------------------------------------------------
     1   6 C    3.899 --    17 H    0.979    19 H    0.976    18 H    0.974
                             2 O    0.933
     2   8 O    2.318 --     3 C    1.138     1 C    0.933     4 O    0.187
     3   6 C    3.931 --     4 O    1.812     2 O    1.138     5 C    0.922
     4   8 O    2.107 --     3 C    1.812     2 O    0.187
     5   6 C    3.952 --     6 N    0.982    20 H    0.958    21 H    0.957
                             3 C    0.922
     6   7 N    3.596 --     7 C    1.255    11 C    1.078     5 C    0.982
     7   6 C    3.972 --     8 N    1.274     9 N    1.271     6 N    1.255
     8   7 N    3.355 --     7 C    1.274    23 H    0.929    22 H    0.909
     9   7 N    3.603 --     7 C    1.271    10 C    1.083    16 C    0.988
    10   6 C    3.948 --    15 C    1.367    11 C    1.287     9 N    1.083
    11   6 C    3.945 --    12 C    1.369    10 C    1.287     6 N    1.078
    12   6 C    3.985 --    13 C    1.463    11 C    1.369    24 H    0.961
                            15 C    0.114
    13   6 C    3.980 --    12 C    1.463    14 C    1.407    25 H    0.966
    14   6 C    3.981 --    15 C    1.464    13 C    1.407    26 H    0.966
    15   6 C    3.985 --    14 C    1.464    10 C    1.367    27 H    0.962
                            12 C    0.114
    16   6 C    3.943 --     9 N    0.988    30 H    0.971    29 H    0.971
                            28 H    0.969
    17   1 H    0.992 --     1 C    0.979
    18   1 H    0.992 --     1 C    0.974
    19   1 H    0.994 --     1 C    0.976
    20   1 H    0.990 --     5 C    0.958
    21   1 H    0.986 --     5 C    0.957
    22   1 H    0.944 --     8 N    0.909
    23   1 H    0.951 --     8 N    0.929
    24   1 H    0.994 --    12 C    0.961
    25   1 H    0.993 --    13 C    0.966
    26   1 H    0.993 --    14 C    0.966
    27   1 H    0.995 --    15 C    0.962
    28   1 H    0.993 --    16 C    0.969
    29   1 H    0.992 --    16 C    0.971
    30   1 H    0.989 --    16 C    0.971
 ---------------------------------------------------------------------------

molecular dipole:
                 x           y           z       tot (Debye)
 q only:        1.090      -3.050      -7.876
   full:        0.906      -3.161      -7.613      21.077

           -------------------------------------------------
          | TOTAL ENERGY              -47.258160363586 Eh   |
          | GRADIENT NORM               0.000862621104 Eh/α |
          | HOMO-LUMO GAP               3.854942323929 eV   |
           -------------------------------------------------

 * finished run on 2024/12/20 at 06:54:57.208
