   * xtb version 6.7.1 (edcfbbe) compiled by 'conda@3ef47c1a292c' on 2024-11-25

   ID    Z sym.   atoms
    1    6 C      1-15, 17-19
    2    7 N      16
    3    1 H      20-51

          program call               : xtb C0749.xyz --opt --namespace C0749 --charge +1
          :  Hamiltonian                  GFN2-xTB          :
 * total energy  :   -57.4065346 Eh     change       -0.8384404E-10 Eh
 * total energy  :   -57.4096743 Eh     change       -0.3139718E-02 Eh
 * total energy  :   -57.4101878 Eh     change       -0.5134256E-03 Eh
 * total energy  :   -57.4102974 Eh     change       -0.1096234E-03 Eh
 * total energy  :   -57.4104338 Eh     change       -0.1364220E-03 Eh
 * total energy  :   -57.4105238 Eh     change       -0.8997892E-04 Eh
 * total energy  :   -57.4105971 Eh     change       -0.7327386E-04 Eh
 * total energy  :   -57.4106391 Eh     change       -0.4198890E-04 Eh
 * total energy  :   -57.4106724 Eh     change       -0.3331993E-04 Eh
 * total energy  :   -57.4107017 Eh     change       -0.2936682E-04 Eh
 * total energy  :   -57.4119425 Eh     change        0.4903676E-05 Eh
 * total energy  :   -57.4119768 Eh     change       -0.3437626E-04 Eh
 * total energy  :   -57.4119895 Eh     change       -0.1260808E-04 Eh
 * total energy  :   -57.4120001 Eh     change       -0.1066777E-04 Eh
 * total energy  :   -57.4120176 Eh     change       -0.1748509E-04 Eh
 * total energy  :   -57.4120249 Eh     change       -0.7328268E-05 Eh
 * total energy  :   -57.4120354 Eh     change       -0.1041775E-04 Eh
 * total energy  :   -57.4120435 Eh     change       -0.8142358E-05 Eh
 * total energy  :   -57.4120475 Eh     change       -0.3963730E-05 Eh
   *** GEOMETRY OPTIMIZATION CONVERGED AFTER 51 ITERATIONS ***

 final structure:
================
51
 xtb: 6.7.1 (edcfbbe)
C            1.30537329938552        0.37382000828489        0.14148707874199
C            1.03831630412534        0.43526546222371       -1.35763966820197
C            1.35029911091384       -0.87557271500683       -2.08123214575921
C            0.51228902884073       -2.07560213189030       -1.63502723907908
C           -1.00035857209312       -1.90072623249512       -1.78363030757249
C           -1.47885879278978       -1.59039069435404       -3.20324945974300
C           -1.10900424784265       -2.63900259244323       -4.25424521482921
C           -1.61518361342258       -4.05286088518993       -3.96247896729033
C           -3.13118885168096       -4.17576112797577       -3.79406053621494
C           -3.95607401490798       -3.69302538855407       -4.98973139909094
C           -3.64408381665120       -4.38364326988066       -6.31568183132277
C           -3.93753345759304       -5.90129705806897       -6.31839792428388
C           -5.38845961613123       -6.14969382280350       -6.15772130581141
C           -6.27461732016440       -5.97970899319656       -7.22967020454671
C           -7.62204555444963       -6.16871665511225       -7.05245367762388
N           -8.12836156870569       -6.51782149690046       -5.85912823447421
C           -7.31121109751074       -6.68593251373937       -4.81238925226517
C           -5.95247077365965       -6.51007050198813       -4.92990020710972
C           -9.55679374306311       -6.69575657003730       -5.72418002192253
H            0.63841374653943       -0.33042533353363        0.63179675287612
H            1.15179861308092        1.35182445612414        0.59108492981105
H            2.33110169785581        0.06730158143058        0.33260905494103
H           -0.00151971659620        0.71861972374829       -1.53093926906178
H            1.66358280858901        1.21799453639886       -1.79387478327729
H            1.22051991992544       -0.72147636816407       -3.15469938713488
H            2.40236678878042       -1.12109220507619       -1.91603740936306
H            0.83465826057841       -2.94833461991269       -2.20760179315616
H            0.72617835755857       -2.28874966765536       -0.58610672761454
H           -1.48651166635990       -2.81190385725682       -1.42627345150542
H           -1.33146170829180       -1.09025988899334       -1.13181746416124
H           -2.56434609444061       -1.46447602300743       -3.17957327330250
H           -1.05701059585860       -0.63507868929514       -3.51961395966204
H           -1.49171152653600       -2.30487463343656       -5.22174453206894
H           -0.02262241849008       -2.68501934457812       -4.34308159260380
H           -1.28003164554638       -4.71245829943423       -4.76670368555506
H           -1.14826911426066       -4.41376840311407       -3.04488202838923
H           -3.36625067084473       -5.22089400185418       -3.57602842850479
H           -3.43909335753829       -3.59602411123206       -2.92296717652981
H           -5.01832313233801       -3.81368101100740       -4.75436774238281
H           -3.77853797027212       -2.62571643314929       -5.12592333004483
H           -4.22721664269796       -3.90947638867900       -7.10790638746724
H           -2.59043778953779       -4.25006842115888       -6.55536902385947
H           -3.60098415769939       -6.30360862546043       -7.27524008032831
H           -3.37389481142405       -6.37634619781995       -5.51736550769676
H           -5.90212189778130       -5.70345575643714       -8.20360218863885
H           -8.32377310870450       -6.04549325095767       -7.86419944122323
H           -7.76115878138171       -6.96581613630591       -3.87143340368185
H           -5.32606194757606       -6.65665300820184       -4.06437169340026
H           -9.92612283503547       -7.37498833993783       -6.49264531335619
H           -9.79864219595708       -7.10589813384380       -4.74646397593401
H          -10.06673911030953       -5.73752596910346       -5.83810716935441

          :  Hamiltonian                  GFN2-xTB          :
         :: total energy             -57.412047459601 Eh    ::
         :: gradient norm              0.000429988631 Eh/a0 ::
         :: HOMO-LUMO gap              0.504298461404 eV    ::
         :: SCC energy               -58.319192034295 Eh    ::
         :: -> dispersion             -0.042845983914 Eh    ::
         :: repulsion energy           0.907144574693 Eh    ::

    * Orbital Energies and Occupations

         #    Occupation            Energy/Eh            Energy/eV
      -------------------------------------------------------------
         1        2.0000           -0.8732985             -23.7637
       ...           ...                  ...                  ...
        42        2.0000           -0.5378977             -14.6369
        43        2.0000           -0.5324858             -14.4897
        44        2.0000           -0.5258142             -14.3081
        45        2.0000           -0.5226271             -14.2214
        46        2.0000           -0.5125811             -13.9480
        47        2.0000           -0.5086660             -13.8415
        48        2.0000           -0.5018287             -13.6555
        49        2.0000           -0.4922381             -13.3945
        50        2.0000           -0.4889321             -13.3045
        51        2.0000           -0.4853405             -13.2068
        52        2.0000           -0.4713177             -12.8252
        53        2.0000           -0.4674148             -12.7190
        54        1.9999           -0.4652785             -12.6609 (HOMO)
        55        0.0001           -0.4467459             -12.1566 (LUMO)
        56                         -0.4178359             -11.3699
        57                         -0.2999806              -8.1629
        58                         -0.1643628              -4.4725
        59                         -0.0734823              -1.9996
        60                         -0.0457211              -1.2441
        61                         -0.0358479              -0.9755
        62                         -0.0293933              -0.7998
        63                         -0.0203315              -0.5532
        64                         -0.0113446              -0.3087
        65                         -0.0050551              -0.1376
       ...                                ...                  ...
       108                          0.4462990              12.1444
      -------------------------------------------------------------
                  HL-Gap            0.0185326 Eh            0.5043 eV

     #   Z          covCN         q      C6AA      α(0)
     1   6 C        3.751    -0.102    22.517     6.767
     2   6 C        3.799    -0.052    21.515     6.604
     3   6 C        3.800    -0.058    21.613     6.619
     4   6 C        3.800    -0.057    21.608     6.618
     5   6 C        3.800    -0.057    21.596     6.617
     6   6 C        3.800    -0.058    21.612     6.619
     7   6 C        3.800    -0.059    21.640     6.623
     8   6 C        3.800    -0.060    21.653     6.625
     9   6 C        3.800    -0.059    21.637     6.623
    10   6 C        3.800    -0.061    21.674     6.629
    11   6 C        3.803    -0.056    21.587     6.615
    12   6 C        3.807    -0.074    21.914     6.664
    13   6 C        2.973     0.071    26.415     8.430
    14   6 C        2.921    -0.024    28.613     8.772
    15   6 C        2.891     0.026    27.425     8.586
    16   7 N        2.748     0.105    19.436     6.548
    17   6 C        2.887     0.028    27.377     8.578
    18   6 C        2.920    -0.024    28.600     8.770
    19   6 C        3.709    -0.092    22.410     6.766
    20   1 H        0.925     0.033     2.539     2.492
    21   1 H        0.925     0.033     2.538     2.492
    22   1 H        0.925     0.035     2.510     2.478
    23   1 H        0.924     0.029     2.599     2.521
    24   1 H        0.924     0.029     2.599     2.521
    25   1 H        0.924     0.027     2.625     2.534
    26   1 H        0.924     0.032     2.565     2.504
    27   1 H        0.924     0.026     2.637     2.539
    28   1 H        0.924     0.034     2.525     2.485
    29   1 H        0.924     0.023     2.682     2.561
    30   1 H        0.924     0.035     2.516     2.481
    31   1 H        0.924     0.022     2.697     2.568
    32   1 H        0.924     0.038     2.479     2.462
    33   1 H        0.924     0.024     2.666     2.554
    34   1 H        0.924     0.041     2.442     2.444
    35   1 H        0.924     0.026     2.646     2.544
    36   1 H        0.924     0.043     2.413     2.429
    37   1 H        0.924     0.018     2.760     2.598
    38   1 H        0.924     0.045     2.386     2.416
    39   1 H        0.924     0.015     2.803     2.618
    40   1 H        0.924     0.057     2.235     2.338
    41   1 H        0.924     0.041     2.438     2.442
    42   1 H        0.925     0.072     2.068     2.249
    43   1 H        0.924     0.078     2.005     2.214
    44   1 H        0.925     0.079     1.990     2.206
    45   1 H        0.926     0.101     1.779     2.086
    46   1 H        0.926     0.104     1.749     2.068
    47   1 H        0.926     0.103     1.756     2.072
    48   1 H        0.926     0.102     1.770     2.081
    49   1 H        0.925     0.107     1.720     2.051
    50   1 H        0.925     0.103     1.756     2.072
    51   1 H        0.924     0.109     1.709     2.045

Wiberg/Mayer (AO) data.
largest (>0.10) Wiberg bond orders for each atom

     #   Z sym  total        # sym  WBO       # sym  WBO       # sym  WBO
 ---------------------------------------------------------------------------
     1   6 C    3.997 --     2 C    1.020    22 H    0.988    21 H    0.987
                            20 H    0.986
     2   6 C    3.998 --     1 C    1.020     3 C    1.008    24 H    0.978
                            23 H    0.976
     3   6 C    3.997 --     2 C    1.008     4 C    1.008    26 H    0.977
                            25 H    0.976
     4   6 C    3.997 --     5 C    1.008     3 C    1.008    27 H    0.975
                            28 H    0.975
     5   6 C    3.997 --     4 C    1.008     6 C    1.008    29 H    0.975
                            30 H    0.975
     6   6 C    3.997 --     5 C    1.008     7 C    1.008    31 H    0.975
                            32 H    0.974
     7   6 C    3.997 --     8 C    1.008     6 C    1.008    33 H    0.975
                            34 H    0.974
     8   6 C    3.996 --     7 C    1.008     9 C    1.007    35 H    0.975
                            36 H    0.973
     9   6 C    3.996 --     8 C    1.007    10 C    1.006    37 H    0.974
                            38 H    0.973
    10   6 C    3.995 --    11 C    1.010     9 C    1.006    39 H    0.976
                            40 H    0.968
    11   6 C    3.984 --    10 C    1.010    41 H    0.976    42 H    0.966
                            12 C    0.946
    12   6 C    3.985 --    13 C    1.053    44 H    0.964    43 H    0.953
                            11 C    0.946
    13   6 C    3.965 --    18 C    1.363    14 C    1.351    12 C    1.053
    14   6 C    3.984 --    15 C    1.506    13 C    1.351    45 H    0.959
    15   6 C    3.957 --    14 C    1.506    16 N    1.298    46 H    0.956
    16   7 N    3.754 --    17 C    1.314    15 C    1.298    19 C    0.986
    17   6 C    3.958 --    18 C    1.486    16 N    1.314    47 H    0.955
    18   6 C    3.983 --    17 C    1.486    13 C    1.363    48 H    0.957
    19   6 C    3.933 --    16 N    0.986    50 H    0.974    49 H    0.963
                            51 H    0.958
    20   1 H    0.999 --     1 C    0.986
    21   1 H    0.999 --     1 C    0.987
    22   1 H    0.999 --     1 C    0.988
    23   1 H    0.999 --     2 C    0.976
    24   1 H    0.999 --     2 C    0.978
    25   1 H    0.999 --     3 C    0.976
    26   1 H    0.999 --     3 C    0.977
    27   1 H    0.999 --     4 C    0.975
    28   1 H    0.999 --     4 C    0.975
    29   1 H    0.999 --     5 C    0.975
    30   1 H    0.999 --     5 C    0.975
    31   1 H    0.999 --     6 C    0.975
    32   1 H    0.999 --     6 C    0.974
    33   1 H    0.999 --     7 C    0.975
    34   1 H    0.998 --     7 C    0.974
    35   1 H    0.999 --     8 C    0.975
    36   1 H    0.998 --     8 C    0.973
    37   1 H    1.000 --     9 C    0.974
    38   1 H    0.998 --     9 C    0.973
    39   1 H    1.000 --    10 C    0.976
    40   1 H    0.995 --    10 C    0.968
    41   1 H    0.998 --    11 C    0.976
    42   1 H    0.993 --    11 C    0.966
    43   1 H    0.993 --    12 C    0.953
    44   1 H    0.993 --    12 C    0.964
    45   1 H    0.990 --    14 C    0.959
    46   1 H    0.989 --    15 C    0.956
    47   1 H    0.989 --    17 C    0.955
    48   1 H    0.990 --    18 C    0.957
    49   1 H    0.988 --    19 C    0.963
    50   1 H    0.989 --    19 C    0.974
    51   1 H    0.987 --    19 C    0.958
 ---------------------------------------------------------------------------

molecular dipole:
                 x           y           z       tot (Debye)
 q only:      -12.959     -11.531     -11.046
   full:      -13.134     -11.598     -11.085      52.701

           -------------------------------------------------
          | TOTAL ENERGY              -57.412047459601 Eh   |
          | GRADIENT NORM               0.000429988631 Eh/α |
          | HOMO-LUMO GAP               0.504298461404 eV   |
           -------------------------------------------------

 * finished run on 2024/12/20 at 06:55:17.896
