   * xtb version 6.7.1 (edcfbbe) compiled by 'conda@3ef47c1a292c' on 2024-11-25

   ID    Z sym.   atoms
    1    6 C      1-4, 6-15
    2   15 P      5
    3    1 H      16-47

          program call               : xtb C0746.xyz --opt --namespace C0746 --charge +1
          :  Hamiltonian                  GFN2-xTB          :
 * total energy  :   -48.4262784 Eh     change       -0.1926850E-09 Eh
 * total energy  :   -48.4320479 Eh     change       -0.5769578E-02 Eh
 * total energy  :   -48.4336199 Eh     change       -0.1571976E-02 Eh
 * total energy  :   -48.4338427 Eh     change       -0.2227958E-03 Eh
 * total energy  :   -48.4339824 Eh     change       -0.1396769E-03 Eh
 * total energy  :   -48.4341299 Eh     change       -0.1474802E-03 Eh
 * total energy  :   -48.4343396 Eh     change       -0.2096960E-03 Eh
 * total energy  :   -48.4345839 Eh     change       -0.2442886E-03 Eh
 * total energy  :   -48.4348221 Eh     change       -0.2382468E-03 Eh
 * total energy  :   -48.4350332 Eh     change       -0.2110567E-03 Eh
 * total energy  :   -48.4434401 Eh     change       -0.9106725E-05 Eh
 * total energy  :   -48.4434480 Eh     change       -0.7962640E-05 Eh
 * total energy  :   -48.4434540 Eh     change       -0.5974519E-05 Eh
 * total energy  :   -48.4434597 Eh     change       -0.5667619E-05 Eh
 * total energy  :   -48.4434675 Eh     change       -0.7803691E-05 Eh
 * total energy  :   -48.4434778 Eh     change       -0.1036383E-04 Eh
 * total energy  :   -48.4434878 Eh     change       -0.9961738E-05 Eh
 * total energy  :   -48.4434941 Eh     change       -0.6275146E-05 Eh
 * total energy  :   -48.4434980 Eh     change       -0.3927685E-05 Eh
   *** GEOMETRY OPTIMIZATION CONVERGED AFTER 60 ITERATIONS ***

 final structure:
================
47
 xtb: 6.7.1 (edcfbbe)
C            0.78444845621516       -0.85163961024729        0.25335507092457
C           -0.25133490434696       -0.71458254376124       -0.86580888405467
C            0.06291145906122       -1.65148535198098       -2.03572525645569
C           -0.08906847009200       -3.12680608674211       -1.68310049329412
P            0.53000082317718        0.27940818410480        1.66434818634133
C            1.19178745367310        1.94924833491144        1.30369182584403
C            0.39072356751792        2.79378992219060        0.31941150551716
C           -1.25016913766386        0.44274959708647        2.03141821816928
C           -1.96223538758723       -0.86414734154110        2.40827101531413
C           -1.99853052407501       -1.12338915963058        3.91612861807069
C           -2.97902484856298       -0.21190054202637        4.64494696035643
C            1.50027145340737       -0.26007218804053        3.12123127684910
C            1.56813854044934       -1.77423437458965        3.35958153390670
C            2.80775301580733       -2.41580518347894        2.72947176984387
C            4.08115824926687       -2.11866484984482        3.51308808836099
H            1.78841771845934       -0.65574314773564       -0.13673782260486
H            0.76940817009764       -1.87143573658373        0.64492301100007
H           -1.24605550313377       -0.95308697611006       -0.48502263838512
H           -0.26857999186096        0.31149345832444       -1.23617170614108
H           -0.62325096240655       -1.41322333882601       -2.84969313033818
H            1.07646501682969       -1.46211707330945       -2.39454918175648
H           -1.07673207226209       -3.32354930894277       -1.27149070759052
H            0.02860291421680       -3.73167643800166       -2.57737896923246
H            0.66093934452124       -3.45134115041998       -0.96549950805779
H            1.25863624724857        2.46590015588061        2.26702815277139
H            2.21221017350226        1.80535082384892        0.93401885177191
H           -0.61955450219971        2.97395231576262        0.67735846802277
H            0.87741421976178        3.75897695102087        0.20074903064674
H            0.34016853576525        2.32780457167165       -0.66067928581278
H           -1.35247882110023        1.18128204757682        2.83107726548516
H           -1.69353743699148        0.87161220987882        1.12781383915419
H           -2.99171212683996       -0.81458800222334        2.04890517522178
H           -1.48572717223943       -1.70752034743221        1.90273109002355
H           -2.30294459372098       -2.15849679191005        4.07782873466293
H           -1.00125547068578       -1.00367852247420        4.34223026203209
H           -3.98472837913631       -0.34599889535046        4.25513433470418
H           -2.99264278375361       -0.45216148323596        5.70415290275280
H           -2.71079699348523        0.83734977738501        4.54395094578596
H            2.51035913355022        0.13938347180206        2.99376821574909
H            1.05595050795943        0.25700711060573        3.97730849335814
H            1.60019949138409       -1.95965538813946        4.43440681217330
H            0.66620422602458       -2.25870105123656        2.97999495801182
H            2.66236002707601       -3.49666299585574        2.70180280971841
H            2.92736609233182       -2.06998502651436        1.70020284635551
H            3.99779833639585       -2.49354762537511        4.52983949746617
H            4.93044941120059       -2.60508973651789        3.04192525128100
H            4.28924749725071       -1.05196266396409        3.55859256608059

          :  Hamiltonian                  GFN2-xTB          :
         :: total energy             -48.443498003314 Eh    ::
         :: gradient norm              0.000263397850 Eh/a0 ::
         :: HOMO-LUMO gap              6.693827128204 eV    ::
         :: SCC energy               -49.161581396569 Eh    ::
         :: -> dispersion             -0.038919382369 Eh    ::
         :: repulsion energy           0.718083393255 Eh    ::

    * Orbital Energies and Occupations

         #    Occupation            Energy/Eh            Energy/eV
      -------------------------------------------------------------
         1        2.0000           -0.8470966             -23.0507
       ...           ...                  ...                  ...
        34        2.0000           -0.5828395             -15.8599
        35        2.0000           -0.5802716             -15.7900
        36        2.0000           -0.5780766             -15.7303
        37        2.0000           -0.5732068             -15.5977
        38        2.0000           -0.5576192             -15.1736
        39        2.0000           -0.5540139             -15.0755
        40        2.0000           -0.5528371             -15.0435
        41        2.0000           -0.5498876             -14.9632
        42        2.0000           -0.5491271             -14.9425
        43        2.0000           -0.5460067             -14.8576
        44        2.0000           -0.5429354             -14.7740
        45        2.0000           -0.5420771             -14.7507
        46        2.0000           -0.5392112             -14.6727 (HOMO)
        47                         -0.2932176              -7.9789 (LUMO)
        48                         -0.2763658              -7.5203
        49                         -0.2702092              -7.3528
        50                         -0.1950696              -5.3081
        51                         -0.1193680              -3.2482
        52                         -0.0809428              -2.2026
        53                         -0.0543749              -1.4796
        54                         -0.0462689              -1.2590
        55                         -0.0428920              -1.1672
        56                         -0.0343751              -0.9354
        57                         -0.0258840              -0.7043
       ...                                ...                  ...
        97                          0.7855325              21.3754
      -------------------------------------------------------------
                  HL-Gap            0.2459936 Eh            6.6938 eV

     #   Z          covCN         q      C6AA      α(0)
     1   6 C        3.751    -0.069    21.891     6.672
     2   6 C        3.855    -0.062    21.649     6.617
     3   6 C        3.801    -0.060    21.660     6.626
     4   6 C        3.751    -0.112    22.702     6.795
     5  15 P        3.921     0.170   152.907    22.213
     6   6 C        3.749    -0.073    21.954     6.683
     7   6 C        3.794    -0.115    22.710     6.786
     8   6 C        3.750    -0.072    21.935     6.680
     9   6 C        3.849    -0.062    21.654     6.619
    10   6 C        3.800    -0.061    21.682     6.630
    11   6 C        3.752    -0.112    22.705     6.795
    12   6 C        3.750    -0.075    21.999     6.689
    13   6 C        3.842    -0.064    21.698     6.626
    14   6 C        3.800    -0.061    21.676     6.629
    15   6 C        3.752    -0.112    22.711     6.796
    16   1 H        0.927     0.089     1.889     2.149
    17   1 H        0.927     0.098     1.804     2.101
    18   1 H        0.924     0.056     2.251     2.346
    19   1 H        0.924     0.048     2.351     2.398
    20   1 H        0.924     0.055     2.258     2.350
    21   1 H        0.924     0.044     2.396     2.421
    22   1 H        0.925     0.042     2.417     2.431
    23   1 H        0.925     0.056     2.249     2.345
    24   1 H        0.925     0.035     2.521     2.483
    25   1 H        0.927     0.087     1.906     2.159
    26   1 H        0.927     0.088     1.898     2.154
    27   1 H        0.925     0.060     2.196     2.318
    28   1 H        0.925     0.076     2.021     2.223
    29   1 H        0.925     0.061     2.193     2.316
    30   1 H        0.927     0.095     1.833     2.117
    31   1 H        0.928     0.092     1.859     2.132
    32   1 H        0.924     0.065     2.137     2.286
    33   1 H        0.924     0.047     2.354     2.400
    34   1 H        0.924     0.053     2.288     2.365
    35   1 H        0.924     0.037     2.490     2.468
    36   1 H        0.925     0.049     2.329     2.387
    37   1 H        0.925     0.053     2.281     2.362
    38   1 H        0.925     0.034     2.532     2.488
    39   1 H        0.927     0.093     1.845     2.124
    40   1 H        0.928     0.087     1.905     2.159
    41   1 H        0.924     0.067     2.115     2.274
    42   1 H        0.924     0.050     2.323     2.383
    43   1 H        0.924     0.052     2.290     2.366
    44   1 H        0.924     0.034     2.535     2.490
    45   1 H        0.925     0.050     2.323     2.383
    46   1 H        0.925     0.054     2.275     2.359
    47   1 H        0.925     0.035     2.518     2.481

Wiberg/Mayer (AO) data.
largest (>0.10) Wiberg bond orders for each atom

     #   Z sym  total        # sym  WBO       # sym  WBO       # sym  WBO
 ---------------------------------------------------------------------------
     1   6 C    3.985 --     5 P    1.008     2 C    0.985    16 H    0.932
                            17 H    0.927
     2   6 C    3.989 --     3 C    1.001     1 C    0.985    18 H    0.969
                            19 H    0.967
     3   6 C    3.991 --     4 C    1.021     2 C    1.001    21 H    0.977
                            20 H    0.974
     4   6 C    3.994 --     3 C    1.021    22 H    0.987    24 H    0.985
                            23 H    0.984
     5  15 P    4.578 --     8 C    1.014     6 C    1.010    12 C    1.008
                             1 C    1.008
     6   6 C    3.990 --     5 P    1.010     7 C    1.005    25 H    0.935
                            26 H    0.935
     7   6 C    3.984 --     6 C    1.005    27 H    0.980    28 H    0.977
                            29 H    0.977
     8   6 C    3.986 --     5 P    1.014     9 C    0.983    30 H    0.929
                            31 H    0.928
     9   6 C    3.988 --    10 C    1.006     8 C    0.983    32 H    0.971
                            33 H    0.965
    10   6 C    3.994 --    11 C    1.021     9 C    1.006    34 H    0.975
                            35 H    0.971
    11   6 C    3.993 --    10 C    1.021    36 H    0.986    37 H    0.985
                            38 H    0.984
    12   6 C    3.984 --     5 P    1.008    13 C    0.986    40 H    0.932
                            39 H    0.930
    13   6 C    3.986 --    14 C    1.006    12 C    0.986    41 H    0.970
                            42 H    0.964
    14   6 C    3.995 --    15 C    1.021    13 C    1.006    43 H    0.976
                            44 H    0.972
    15   6 C    3.993 --    14 C    1.021    45 H    0.986    46 H    0.985
                            47 H    0.984
    16   1 H    0.992 --     1 C    0.932
    17   1 H    0.990 --     1 C    0.927
    18   1 H    0.997 --     2 C    0.969
    19   1 H    0.998 --     2 C    0.967
    20   1 H    0.996 --     3 C    0.974
    21   1 H    0.998 --     3 C    0.977
    22   1 H    0.998 --     4 C    0.987
    23   1 H    0.997 --     4 C    0.984
    24   1 H    0.999 --     4 C    0.985
    25   1 H    0.992 --     6 C    0.935
    26   1 H    0.992 --     6 C    0.935
    27   1 H    0.996 --     7 C    0.980
    28   1 H    0.994 --     7 C    0.977
    29   1 H    0.996 --     7 C    0.977
    30   1 H    0.991 --     8 C    0.929
    31   1 H    0.991 --     8 C    0.928
    32   1 H    0.995 --     9 C    0.971
    33   1 H    0.998 --     9 C    0.965
    34   1 H    0.997 --    10 C    0.975
    35   1 H    0.999 --    10 C    0.971
    36   1 H    0.997 --    11 C    0.986
    37   1 H    0.997 --    11 C    0.985
    38   1 H    0.999 --    11 C    0.984
    39   1 H    0.991 --    12 C    0.930
    40   1 H    0.992 --    12 C    0.932
    41   1 H    0.995 --    13 C    0.970
    42   1 H    0.997 --    13 C    0.964
    43   1 H    0.997 --    14 C    0.976
    44   1 H    0.999 --    14 C    0.972
    45   1 H    0.997 --    15 C    0.986
    46   1 H    0.997 --    15 C    0.985
    47   1 H    0.999 --    15 C    0.984
 ---------------------------------------------------------------------------

molecular dipole:
                 x           y           z       tot (Debye)
 q only:        0.780      -0.015       3.065
   full:        0.846       0.124       3.094       8.159

           -------------------------------------------------
          | TOTAL ENERGY              -48.443498003314 Eh   |
          | GRADIENT NORM               0.000263397850 Eh/α |
          | HOMO-LUMO GAP               6.693827128204 eV   |
           -------------------------------------------------

 * finished run on 2024/12/20 at 06:55:08.870
