   * xtb version 6.7.1 (edcfbbe) compiled by 'conda@3ef47c1a292c' on 2024-11-25

   ID    Z sym.   atoms
    1    6 C      1-3, 5, 7-14, 16-21
    2    7 N      4, 6
    3    8 O      15
    4   35 Br     22
    5    1 H      23-38

          program call               : xtb C0741.xyz --opt --namespace C0741 --charge +1
          :  Hamiltonian                  GFN2-xTB          :
 * total energy  :   -60.2806140 Eh     change       -0.1834898E-08 Eh
 * total energy  :   -60.2873537 Eh     change       -0.6739658E-02 Eh
 * total energy  :   -60.2887107 Eh     change       -0.1356984E-02 Eh
 * total energy  :   -60.2889271 Eh     change       -0.2164718E-03 Eh
 * total energy  :   -60.2890697 Eh     change       -0.1425450E-03 Eh
 * total energy  :   -60.2891688 Eh     change       -0.9910276E-04 Eh
 * total energy  :   -60.2893488 Eh     change       -0.1800438E-03 Eh
 * total energy  :   -60.2895580 Eh     change       -0.2092136E-03 Eh
 * total energy  :   -60.2898206 Eh     change       -0.2625625E-03 Eh
 * total energy  :   -60.2901626 Eh     change       -0.3420114E-03 Eh
 * total energy  :   -60.2952297 Eh     change       -0.3376257E-04 Eh
 * total energy  :   -60.2952618 Eh     change       -0.3214166E-04 Eh
 * total energy  :   -60.2952895 Eh     change       -0.2765045E-04 Eh
 * total energy  :   -60.2953082 Eh     change       -0.1872732E-04 Eh
 * total energy  :   -60.2953232 Eh     change       -0.1498139E-04 Eh
 * total energy  :   -60.2953323 Eh     change       -0.9080654E-05 Eh
 * total energy  :   -60.2953430 Eh     change       -0.1070874E-04 Eh
 * total energy  :   -60.2953477 Eh     change       -0.4671125E-05 Eh
 * total energy  :   -60.2953522 Eh     change       -0.4558321E-05 Eh
   *** GEOMETRY OPTIMIZATION CONVERGED AFTER 57 ITERATIONS ***

 final structure:
================
38
 xtb: 6.7.1 (edcfbbe)
C            2.20285157393245        0.14931113596097       -0.99145891619560
C            1.10405647732309        0.01873636326868       -1.70810361841683
C           -0.28124636415199        0.02954505357695       -1.11757782393068
N           -1.12790903526713        0.98488961447421       -1.79983587692520
C           -1.35912999709529        2.23497755143938       -1.42054804949824
N           -2.13394454463653        2.87166315126026       -2.29918792885980
C           -2.45445594590699        1.97680405557350       -3.30262085048223
C           -1.79349452171592        0.77332710635147       -2.98968416361818
C           -1.89052326510393       -0.33976635520079       -3.81616404331377
C           -2.66501740103873       -0.21135352943159       -4.95037794662457
C           -3.32393635700999        0.98170132809317       -5.25907164576380
C           -3.23196105296278        2.09402046441885       -4.44767261105672
C           -2.74489130015438        4.14270133739044       -2.04340439675507
C           -3.54494344297735        4.03600429212204       -0.71562500167641
O           -3.37680247772830        3.05755858848975       -0.02319658118839
C           -4.43711792153143        5.14086636911860       -0.38041957383358
C           -4.53816013949531        6.31555352818419       -1.13563572324532
C           -5.39581817995603        7.32133570706618       -0.74482246917253
C           -6.16698710104140        7.16699109635595        0.40348636104965
C           -6.07944075529825        6.00879145926597        1.16793058417446
C           -5.21871817019149        5.00829596881329        0.77653512449854
Br          -7.34312545466245        8.55243839491832        0.92804725958689
H            2.17758252520622        0.27698397789458        0.07791419394259
H            3.17757679417142        0.11360848964311       -1.44444100079491
H            1.14687223705607       -0.11732091045288       -2.77967523023661
H           -0.73916796667522       -0.95883069981040       -1.22211206118861
H           -0.24305775627140        0.28790682218768       -0.05790176448536
H           -0.95000588251783        2.67968652425353       -0.53368522523611
H           -1.38292404922418       -1.26225492395266       -3.58692886678804
H           -2.76615074574702       -1.05152693678391       -5.61846471625372
H           -3.91931875470167        1.03236352641894       -6.15655744507406
H           -3.74417211988460        3.00806693318844       -4.70037952639633
H           -1.98352505918602        4.91939382727119       -1.92292575782907
H           -3.40062399293858        4.40059714910919       -2.87382024139008
H           -3.94430661579869        6.46262964125526       -2.02382878217377
H           -5.47221847942470        8.22836133579533       -1.32372534265098
H           -6.68010580546086        5.90216560183095        2.05764108184963
H           -5.13280895192748        4.10126696064636        1.35550857595312

          :  Hamiltonian                  GFN2-xTB          :
         :: total energy             -60.295352228450 Eh    ::
         :: gradient norm              0.000738608411 Eh/a0 ::
         :: HOMO-LUMO gap              2.285837289696 eV    ::
         :: SCC energy               -61.248252309463 Eh    ::
         :: -> dispersion             -0.040815412848 Eh    ::
         :: repulsion energy           0.952900081013 Eh    ::

    * Orbital Energies and Occupations

         #    Occupation            Energy/Eh            Energy/eV
      -------------------------------------------------------------
         1        2.0000           -0.9263883             -25.2083
       ...           ...                  ...                  ...
        43        2.0000           -0.5770201             -15.7015
        44        2.0000           -0.5697363             -15.5033
        45        2.0000           -0.5676768             -15.4473
        46        2.0000           -0.5589306             -15.2093
        47        2.0000           -0.5550806             -15.1045
        48        2.0000           -0.5519454             -15.0192
        49        2.0000           -0.5487784             -14.9330
        50        2.0000           -0.5441826             -14.8080
        51        2.0000           -0.5377492             -14.6329
        52        2.0000           -0.5363522             -14.5949
        53        2.0000           -0.5308171             -14.4443
        54        2.0000           -0.5029997             -13.6873
        55        2.0000           -0.4998180             -13.6007 (HOMO)
        56                         -0.4158150             -11.3149 (LUMO)
        57                         -0.4065733             -11.0634
        58                         -0.3596649              -9.7870
        59                         -0.3537819              -9.6269
        60                         -0.3512102              -9.5569
        61                         -0.3335984              -9.0777
        62                         -0.3267607              -8.8916
        63                         -0.2950976              -8.0300
        64                         -0.2340651              -6.3692
        65                         -0.2201230              -5.9899
        66                         -0.1657037              -4.5090
       ...                                ...                  ...
       109                          0.5468306              14.8800
      -------------------------------------------------------------
                  HL-Gap            0.0840030 Eh            2.2858 eV

     #   Z          covCN         q      C6AA      α(0)
     1   6 C        2.837    -0.080    29.997     8.975
     2   6 C        2.886    -0.041    29.007     8.830
     3   6 C        3.746    -0.020    21.002     6.537
     4   7 N        2.828     0.037    20.592     6.740
     5   6 C        3.069     0.079    26.178     8.390
     6   7 N        2.830     0.036    20.610     6.743
     7   6 C        3.112     0.039    26.966     8.507
     8   6 C        3.119     0.042    26.882     8.492
     9   6 C        2.909    -0.031    28.778     8.796
    10   6 C        2.925    -0.019    28.474     8.751
    11   6 C        2.925    -0.018    28.465     8.750
    12   6 C        2.909    -0.033    28.822     8.803
    13   6 C        3.743    -0.043    21.423     6.603
    14   6 C        2.823     0.227    23.245     7.900
    15   8 O        0.857    -0.355    20.801     6.115
    16   6 C        2.969    -0.019    28.470     8.752
    17   6 C        2.920    -0.026    28.650     8.778
    18   6 C        2.992    -0.028    28.689     8.786
    19   6 C        2.915     0.102    25.747     8.321
    20   6 C        2.988    -0.026    28.653     8.781
    21   6 C        2.929    -0.009    28.242     8.715
    22  35 Br       1.071    -0.092   187.553    22.081
    23   1 H        0.926     0.065     2.145     2.290
    24   1 H        0.926     0.076     2.022     2.223
    25   1 H        0.926     0.056     2.250     2.346
    26   1 H        0.924     0.092     1.859     2.132
    27   1 H        0.924     0.086     1.914     2.163
    28   1 H        0.926     0.113     1.670     2.021
    29   1 H        0.926     0.073     2.058     2.243
    30   1 H        0.926     0.079     1.986     2.204
    31   1 H        0.926     0.078     1.994     2.208
    32   1 H        0.926     0.064     2.156     2.296
    33   1 H        0.924     0.096     1.821     2.110
    34   1 H        0.925     0.098     1.799     2.097
    35   1 H        0.926     0.054     2.274     2.358
    36   1 H        0.926     0.080     1.981     2.201
    37   1 H        0.926     0.083     1.944     2.180
    38   1 H        0.926     0.085     1.930     2.172

Wiberg/Mayer (AO) data.
largest (>0.10) Wiberg bond orders for each atom

     #   Z sym  total        # sym  WBO       # sym  WBO       # sym  WBO
 ---------------------------------------------------------------------------
     1   6 C    3.985 --     2 C    1.989    23 H    0.972    24 H    0.971
     2   6 C    3.981 --     1 C    1.989     3 C    0.996    25 H    0.963
     3   6 C    3.941 --     2 C    0.996    27 H    0.964     4 N    0.963
                            26 H    0.949
     4   7 N    3.682 --     5 C    1.374     8 C    1.126     3 C    0.963
     5   6 C    3.953 --     4 N    1.374     6 N    1.344    28 H    0.952
     6   7 N    3.669 --     5 C    1.344     7 C    1.117    13 C    0.997
     7   6 C    3.951 --    12 C    1.344     8 C    1.274     6 N    1.117
     8   6 C    3.954 --     9 C    1.340     7 C    1.274     4 N    1.126
     9   6 C    3.985 --    10 C    1.493     8 C    1.340    29 H    0.963
                            12 C    0.118
    10   6 C    3.986 --     9 C    1.493    11 C    1.380    30 H    0.966
    11   6 C    3.983 --    12 C    1.491    10 C    1.380    31 H    0.966
    12   6 C    3.987 --    11 C    1.491     7 C    1.344    32 H    0.963
                             9 C    0.118
    13   6 C    3.952 --     6 N    0.997    34 H    0.954    33 H    0.943
                            14 C    0.927
    14   6 C    3.919 --    15 O    1.800    16 C    1.081    13 C    0.927
    15   8 O    2.091 --    14 C    1.800
    16   6 C    3.983 --    17 C    1.348    21 C    1.342    14 C    1.081
    17   6 C    3.990 --    18 C    1.482    16 C    1.348    35 H    0.964
    18   6 C    3.987 --    17 C    1.482    19 C    1.375    36 H    0.964
    19   6 C    3.950 --    20 C    1.382    18 C    1.375    22 Br   1.041
    20   6 C    3.986 --    21 C    1.476    19 C    1.382    37 H    0.963
    21   6 C    3.983 --    20 C    1.476    16 C    1.342    38 H    0.961
    22  35 Br   1.199 --    19 C    1.041
    23   1 H    0.996 --     1 C    0.972
    24   1 H    0.994 --     1 C    0.971
    25   1 H    0.997 --     2 C    0.963
    26   1 H    0.991 --     3 C    0.949
    27   1 H    0.992 --     3 C    0.964
    28   1 H    0.986 --     5 C    0.952
    29   1 H    0.994 --     9 C    0.963
    30   1 H    0.993 --    10 C    0.966
    31   1 H    0.993 --    11 C    0.966
    32   1 H    0.995 --    12 C    0.963
    33   1 H    0.989 --    13 C    0.943
    34   1 H    0.990 --    13 C    0.954
    35   1 H    0.997 --    17 C    0.964
    36   1 H    0.993 --    18 C    0.964
    37   1 H    0.992 --    20 C    0.963
    38   1 H    0.993 --    21 C    0.961
 ---------------------------------------------------------------------------

molecular dipole:
                 x           y           z       tot (Debye)
 q only:       -3.782       4.485      -4.353
   full:       -3.646       4.550      -4.362      18.508

           -------------------------------------------------
          | TOTAL ENERGY              -60.295352228450 Eh   |
          | GRADIENT NORM               0.000738608411 Eh/α |
          | HOMO-LUMO GAP               2.285837289696 eV   |
           -------------------------------------------------

 * finished run on 2024/12/20 at 06:54:59.452
