   * xtb version 6.7.1 (edcfbbe) compiled by 'conda@3ef47c1a292c' on 2024-11-25

   ID    Z sym.   atoms
    1    7 N      1, 5
    2    6 C      2, 4, 6-10
    3    8 O      3
    4    1 H      11-19

          program call               : xtb C0748.xyz --opt --namespace C0748 --charge +1
          :  Hamiltonian                  GFN2-xTB          :
 * total energy  :   -29.0719488 Eh     change       -0.2101004E-09 Eh
 * total energy  :   -29.0757875 Eh     change       -0.3838724E-02 Eh
 * total energy  :   -29.0773618 Eh     change       -0.1574286E-02 Eh
 * total energy  :   -29.0778068 Eh     change       -0.4449616E-03 Eh
 * total energy  :   -29.0780574 Eh     change       -0.2506732E-03 Eh
 * total energy  :   -29.0782038 Eh     change       -0.1463740E-03 Eh
 * total energy  :   -29.0783517 Eh     change       -0.1479164E-03 Eh
 * total energy  :   -29.0785197 Eh     change       -0.1679210E-03 Eh
 * total energy  :   -29.0786917 Eh     change       -0.1719966E-03 Eh
 * total energy  :   -29.0788472 Eh     change       -0.1555544E-03 Eh
 * total energy  :   -29.0789591 Eh     change       -0.1118478E-03 Eh
 * total energy  :   -29.0790078 Eh     change       -0.4874946E-04 Eh
 * total energy  :   -29.0790241 Eh     change       -0.1633783E-04 Eh
 * total energy  :   -29.0790307 Eh     change       -0.6565888E-05 Eh
 * total energy  :   -29.0790389 Eh     change       -0.8182572E-05 Eh
 * total energy  :   -29.0790450 Eh     change       -0.6144065E-05 Eh
 * total energy  :   -29.0790500 Eh     change       -0.4982189E-05 Eh
   *** GEOMETRY OPTIMIZATION CONVERGED AFTER 17 ITERATIONS ***

 final structure:
================
19
 xtb: 6.7.1 (edcfbbe)
N           -0.00933926263753        0.00450156846417       -0.58691947658517
C            0.43035301791817        1.24918745316554       -0.41022061879143
O           -0.00120615018850        2.05306786727654        0.37496818971479
C            1.61980365906418        1.64859271406327       -1.35280594802145
N            2.24089131358665        2.81347957593933       -0.78212254851740
C            1.49956438331457        3.92522021259626       -0.67144959122165
C            1.96880913826836        5.02286470686384        0.02396975759307
C            3.22262238332984        4.97032418171751        0.61343220591957
C            3.97895221887744        3.81065570589686        0.47567453946394
C            3.45388892261882        2.74239209184059       -0.21539194001212
H           -0.78920102180906       -0.31287523711626       -0.03029398138944
H            0.36964775598009       -0.62868222552050       -1.26981595481062
H            2.33616946812010        0.83220987832494       -1.44467506931966
H            1.19790320370697        1.87894357014141       -2.33502346020178
H            0.53499152212485        3.93682352431808       -1.15441747832550
H            1.35040494997692        5.90230150920227        0.10442708044710
H            3.60687767267578        5.81164939346707        1.16841914058565
H            4.96115594840123        3.73179811910610        0.91321741747536
H            4.00072087667136        1.81709539025292       -0.32410226400324

          :  Hamiltonian                  GFN2-xTB          :
         :: total energy             -29.079050020074 Eh    ::
         :: gradient norm              0.000601444253 Eh/a0 ::
         :: HOMO-LUMO gap              3.002830923843 eV    ::
         :: SCC energy               -29.520699962418 Eh    ::
         :: -> dispersion             -0.014235758293 Eh    ::
         :: repulsion energy           0.441649942344 Eh    ::

    * Orbital Energies and Occupations

         #    Occupation            Energy/Eh            Energy/eV
      -------------------------------------------------------------
         1        2.0000           -0.8799671             -23.9451
       ...           ...                  ...                  ...
        14        2.0000           -0.7050403             -19.1851
        15        2.0000           -0.6963680             -18.9491
        16        2.0000           -0.6865754             -18.6827
        17        2.0000           -0.6762866             -18.4027
        18        2.0000           -0.6730546             -18.3147
        19        2.0000           -0.6545882             -17.8123
        20        2.0000           -0.6516383             -17.7320
        21        2.0000           -0.6242109             -16.9856
        22        2.0000           -0.6186605             -16.8346
        23        2.0000           -0.6180195             -16.8172
        24        2.0000           -0.6100345             -16.5999
        25        2.0000           -0.5795998             -15.7717
        26        2.0000           -0.5654359             -15.3863 (HOMO)
        27                         -0.4550839             -12.3835 (LUMO)
        28                         -0.4224904             -11.4965
        29                         -0.3659944              -9.9592
        30                         -0.3033016              -8.2533
        31                         -0.1733075              -4.7159
        32                         -0.1336929              -3.6380
        33                         -0.0942533              -2.5648
        34                         -0.0757373              -2.0609
        35                         -0.0351591              -0.9567
        36                         -0.0233341              -0.6350
        37                         -0.0094979              -0.2585
       ...                                ...                  ...
        49                          0.5079814              13.8229
      -------------------------------------------------------------
                  HL-Gap            0.1103520 Eh            3.0028 eV

     #   Z          covCN         q      C6AA      α(0)
     1   7 N        2.636    -0.240    26.281     7.614
     2   6 C        2.740     0.289    22.108     7.698
     3   8 O        0.858    -0.386    21.400     6.202
     4   6 C        3.765    -0.069    21.861     6.664
     5   7 N        2.753     0.121    19.175     6.504
     6   6 C        2.896     0.045    26.994     8.519
     7   6 C        2.915    -0.006    28.168     8.703
     8   6 C        2.925     0.015    27.676     8.627
     9   6 C        2.916    -0.010    28.258     8.717
    10   6 C        2.888     0.030    27.324     8.570
    11   1 H        0.860     0.235     0.945     1.523
    12   1 H        0.860     0.211     1.052     1.607
    13   1 H        0.925     0.099     1.791     2.093
    14   1 H        0.924     0.111     1.684     2.030
    15   1 H        0.926     0.121     1.609     1.983
    16   1 H        0.926     0.112     1.677     2.025
    17   1 H        0.926     0.109     1.706     2.042
    18   1 H        0.926     0.109     1.707     2.043
    19   1 H        0.926     0.104     1.748     2.067

Wiberg/Mayer (AO) data.
largest (>0.10) Wiberg bond orders for each atom

     #   Z sym  total        # sym  WBO       # sym  WBO       # sym  WBO
 ---------------------------------------------------------------------------
     1   7 N    3.423 --     2 C    1.317    12 H    0.937    11 H    0.922
                             3 O    0.213
     2   6 C    3.961 --     3 O    1.716     1 N    1.317     4 C    0.888
     3   8 O    2.092 --     2 C    1.716     1 N    0.213
     4   6 C    3.947 --     5 N    0.999    13 H    0.962    14 H    0.944
                             2 C    0.888
     5   7 N    3.764 --     6 C    1.310    10 C    1.306     4 C    0.999
     6   6 C    3.952 --     7 C    1.445     5 N    1.310    15 H    0.953
     7   6 C    3.980 --     6 C    1.445     8 C    1.437    16 H    0.958
     8   6 C    3.968 --     7 C    1.437     9 C    1.404    17 H    0.961
     9   6 C    3.981 --    10 C    1.480     8 C    1.404    18 H    0.959
    10   6 C    3.958 --     9 C    1.480     5 N    1.306    19 H    0.955
    11   1 H    0.944 --     1 N    0.922
    12   1 H    0.955 --     1 N    0.937
    13   1 H    0.990 --     4 C    0.962
    14   1 H    0.987 --     4 C    0.944
    15   1 H    0.985 --     6 C    0.953
    16   1 H    0.987 --     7 C    0.958
    17   1 H    0.988 --     8 C    0.961
    18   1 H    0.988 --     9 C    0.959
    19   1 H    0.989 --    10 C    0.955
 ---------------------------------------------------------------------------

molecular dipole:
                 x           y           z       tot (Debye)
 q only:        4.309       4.749      -1.453
   full:        4.350       4.476      -1.651      16.411

           -------------------------------------------------
          | TOTAL ENERGY              -29.079050020074 Eh   |
          | GRADIENT NORM               0.000601444253 Eh/α |
          | HOMO-LUMO GAP               3.002830923843 eV   |
           -------------------------------------------------

 * finished run on 2024/12/20 at 06:55:15.541
