   * xtb version 6.7.1 (edcfbbe) compiled by 'conda@3ef47c1a292c' on 2024-11-25

   ID    Z sym.   atoms
    1    6 C      1-3, 5, 6, 8-11
    2    7 N      4, 7
    3    1 H      12-22

          program call               : xtb C0742.xyz --opt --namespace C0742 --charge +1
          :  Hamiltonian                  GFN2-xTB          :
 * total energy  :   -30.2151565 Eh     change       -0.4866720E-09 Eh
 * total energy  :   -30.2405013 Eh     change       -0.2534477E-01 Eh
 * total energy  :   -30.2423079 Eh     change       -0.1806658E-02 Eh
 * total energy  :   -30.2425963 Eh     change       -0.2883381E-03 Eh
 * total energy  :   -30.2426803 Eh     change       -0.8400905E-04 Eh
 * total energy  :   -30.2427048 Eh     change       -0.2450272E-04 Eh
 * total energy  :   -30.2427221 Eh     change       -0.1738323E-04 Eh
 * total energy  :   -30.2427339 Eh     change       -0.1174080E-04 Eh
 * total energy  :   -30.2427571 Eh     change       -0.2318841E-04 Eh
 * total energy  :   -30.2427937 Eh     change       -0.3659381E-04 Eh
 * total energy  :   -30.2430255 Eh     change        0.1198688E-05 Eh
 * total energy  :   -30.2430338 Eh     change       -0.8367252E-05 Eh
 * total energy  :   -30.2430488 Eh     change       -0.1496525E-04 Eh
 * total energy  :   -30.2430582 Eh     change       -0.9360814E-05 Eh
 * total energy  :   -30.2430010 Eh     change        0.5716642E-04 Eh
 * total energy  :   -30.2430856 Eh     change       -0.8459838E-04 Eh
 * total energy  :   -30.2430901 Eh     change       -0.4466872E-05 Eh
 * total energy  :   -30.2430980 Eh     change       -0.7972395E-05 Eh
 * total energy  :   -30.2431028 Eh     change       -0.4768374E-05 Eh
   *** GEOMETRY OPTIMIZATION CONVERGED AFTER 38 ITERATIONS ***

 final structure:
================
22
 xtb: 6.7.1 (edcfbbe)
C            0.99062725253285        0.23184911353434        0.02775314183303
C            0.12610814815766        0.47467392119468        0.99275561410573
C           -1.33331670162176        0.10556878818735        0.91434663172969
N           -1.68569019249741       -0.78887621517302        1.99881669625436
C           -2.04126431320016       -0.41129914034646        3.25732912945604
C           -2.21543145124568       -1.54803991761841        3.98811929137289
N           -1.95636100273881       -2.59885147800766        3.16412577506524
C           -1.63446800371297       -2.11665396817821        1.96625638581948
C           -2.01471604759028       -4.00525985739278        3.52261116520169
C           -2.65041462880821       -4.78703779479176        2.47716120326556
C           -3.18369205074461       -5.41573000575370        1.61088777948838
H            0.70323896114643       -0.24988310069588       -0.89171674760106
H            2.02169075708471        0.52626206235120        0.10925326046471
H            0.42759456034771        0.96900736776784        1.90499553040433
H           -1.95036696727435        1.00405722111324        1.00142806145031
H           -1.54940555275888       -0.38651970048516       -0.03551593875542
H           -2.15321216324964        0.61484648908108        3.54380139959527
H           -2.50175223434511       -1.66953988334792        5.01322116175073
H           -1.38577441615211       -2.71347962582239        1.10973161993653
H           -0.99743763763324       -4.38096749843913        3.68990719190704
H           -2.58005989029702       -4.10468328219958        4.45369471815334
H           -3.64964642539910       -5.99235349497747        0.86699692910171

          :  Hamiltonian                  GFN2-xTB          :
         :: total energy             -30.243102807272 Eh    ::
         :: gradient norm              0.000903234996 Eh/a0 ::
         :: HOMO-LUMO gap              3.864450869541 eV    ::
         :: SCC energy               -30.811110850341 Eh    ::
         :: -> dispersion             -0.016147137261 Eh    ::
         :: repulsion energy           0.568008043069 Eh    ::

    * Orbital Energies and Occupations

         #    Occupation            Energy/Eh            Energy/eV
      -------------------------------------------------------------
         1        2.0000           -0.8982149             -24.4417
       ...           ...                  ...                  ...
        16        2.0000           -0.6760809             -18.3971
        17        2.0000           -0.6645984             -18.0846
        18        2.0000           -0.6601571             -17.9638
        19        2.0000           -0.6528292             -17.7644
        20        2.0000           -0.6375053             -17.3474
        21        2.0000           -0.6228291             -16.9480
        22        2.0000           -0.6126554             -16.6712
        23        2.0000           -0.5983811             -16.2828
        24        2.0000           -0.5906692             -16.0729
        25        2.0000           -0.5696453             -15.5008
        26        2.0000           -0.5646176             -15.3640
        27        2.0000           -0.5558011             -15.1241
        28        2.0000           -0.5517327             -15.0134 (HOMO)
        29                         -0.4097167             -11.1490 (LUMO)
        30                         -0.3738132             -10.1720
        31                         -0.3483767              -9.4798
        32                         -0.3109537              -8.4615
        33                         -0.2943502              -8.0097
        34                         -0.1742898              -4.7427
        35                         -0.1273154              -3.4644
        36                         -0.0823582              -2.2411
        37                         -0.0525226              -1.4292
        38                         -0.0441614              -1.2017
        39                         -0.0359949              -0.9795
       ...                                ...                  ...
        55                          1.2920408              35.1582
      -------------------------------------------------------------
                  HL-Gap            0.1420160 Eh            3.8645 eV

     #   Z          covCN         q      C6AA      α(0)
     1   6 C        2.837    -0.078    29.938     8.967
     2   6 C        2.887    -0.041    29.021     8.832
     3   6 C        3.746    -0.027    21.125     6.556
     4   7 N        2.872     0.069    20.038     6.648
     5   6 C        3.074    -0.005    28.070     8.687
     6   6 C        3.069    -0.007    28.124     8.696
     7   7 N        2.877     0.071    19.999     6.642
     8   6 C        3.096     0.050    26.776     8.481
     9   6 C        3.743    -0.006    20.755     6.499
    10   6 C        1.966    -0.028    31.824     9.110
    11   6 C        1.909    -0.071    33.052     9.285
    12   1 H        0.926     0.068     2.113     2.273
    13   1 H        0.926     0.082     1.959     2.189
    14   1 H        0.926     0.061     2.189     2.314
    15   1 H        0.924     0.097     1.810     2.104
    16   1 H        0.924     0.090     1.878     2.143
    17   1 H        0.926     0.110     1.699     2.038
    18   1 H        0.926     0.108     1.715     2.048
    19   1 H        0.926     0.115     1.652     2.010
    20   1 H        0.924     0.108     1.714     2.047
    21   1 H        0.924     0.110     1.693     2.035
    22   1 H        0.928     0.125     1.570     1.959

Wiberg/Mayer (AO) data.
largest (>0.10) Wiberg bond orders for each atom

     #   Z sym  total        # sym  WBO       # sym  WBO       # sym  WBO
 ---------------------------------------------------------------------------
     1   6 C    3.983 --     2 C    1.989    12 H    0.971    13 H    0.969
     2   6 C    3.980 --     1 C    1.989     3 C    0.992    14 H    0.963
     3   6 C    3.935 --     2 C    0.992    16 H    0.963     4 N    0.959
                            15 H    0.953
     4   7 N    3.719 --     8 C    1.366     5 C    1.231     3 C    0.959
     5   6 C    3.948 --     6 C    1.586     4 N    1.231    17 H    0.961
     6   6 C    3.949 --     5 C    1.586     7 N    1.232    18 H    0.961
     7   7 N    3.717 --     8 C    1.361     6 C    1.232     9 C    0.955
     8   6 C    3.948 --     4 N    1.366     7 N    1.361    19 H    0.953
     9   6 C    3.942 --    10 C    1.038     7 N    0.955    21 H    0.946
                            20 H    0.934
    10   6 C    3.976 --    11 C    2.907     9 C    1.038
    11   6 C    3.964 --    10 C    2.907    22 H    0.961
    12   1 H    0.995 --     1 C    0.971
    13   1 H    0.993 --     1 C    0.969
    14   1 H    0.996 --     2 C    0.963
    15   1 H    0.990 --     3 C    0.953
    16   1 H    0.992 --     3 C    0.963
    17   1 H    0.987 --     5 C    0.961
    18   1 H    0.988 --     6 C    0.961
    19   1 H    0.987 --     8 C    0.953
    20   1 H    0.988 --     9 C    0.934
    21   1 H    0.987 --     9 C    0.946
    22   1 H    0.984 --    11 C    0.961
 ---------------------------------------------------------------------------

molecular dipole:
                 x           y           z       tot (Debye)
 q only:       -3.115      -3.365       4.454
   full:       -3.149      -3.366       4.479      16.336

           -------------------------------------------------
          | TOTAL ENERGY              -30.243102807272 Eh   |
          | GRADIENT NORM               0.000903234996 Eh/α |
          | HOMO-LUMO GAP               3.864450869541 eV   |
           -------------------------------------------------

 * finished run on 2024/12/20 at 06:54:59.923
