   * xtb version 6.7.1 (edcfbbe) compiled by 'conda@3ef47c1a292c' on 2024-11-25

   ID    Z sym.   atoms
    1    6 C      1, 2, 4-9, 11-13
    2    7 N      3, 10
    3    1 H      14-34

          program call               : xtb C0743.xyz --opt --namespace C0743 --charge +1
          :  Hamiltonian                  GFN2-xTB          :
 * total energy  :   -39.7748401 Eh     change       -0.8753887E-10 Eh
 * total energy  :   -39.7793768 Eh     change       -0.4536710E-02 Eh
 * total energy  :   -39.7801217 Eh     change       -0.7448591E-03 Eh
 * total energy  :   -39.7802384 Eh     change       -0.1166861E-03 Eh
 * total energy  :   -39.7803317 Eh     change       -0.9334316E-04 Eh
 * total energy  :   -39.7803860 Eh     change       -0.5423567E-04 Eh
 * total energy  :   -39.7804367 Eh     change       -0.5069360E-04 Eh
 * total energy  :   -39.7804856 Eh     change       -0.4897821E-04 Eh
 * total energy  :   -39.7805536 Eh     change       -0.6794914E-04 Eh
 * total energy  :   -39.7806053 Eh     change       -0.5171192E-04 Eh
 * total energy  :   -39.7835071 Eh     change       -0.1683743E-04 Eh
 * total energy  :   -39.7835307 Eh     change       -0.2360463E-04 Eh
 * total energy  :   -39.7835423 Eh     change       -0.1163744E-04 Eh
 * total energy  :   -39.7835652 Eh     change       -0.2287674E-04 Eh
 * total energy  :   -39.7835726 Eh     change       -0.7436496E-05 Eh
 * total energy  :   -39.7835806 Eh     change       -0.8030704E-05 Eh
 * total energy  :   -39.7835864 Eh     change       -0.5802755E-05 Eh
 * total energy  :   -39.7835915 Eh     change       -0.5020241E-05 Eh
 * total energy  :   -39.7835946 Eh     change       -0.3085082E-05 Eh
   *** GEOMETRY OPTIMIZATION CONVERGED AFTER 71 ITERATIONS ***

 final structure:
================
34
 xtb: 6.7.1 (edcfbbe)
C            1.20478462081539       -1.01820174175412       -0.93518148282415
C            0.31313414251582       -1.13016741538773        0.29699723890901
N            0.74140846678209       -2.19046714868845        1.20120109242116
C            0.34812357743185       -3.45571283062117        1.12528199895757
C           -0.50485606989754       -3.92011489495032       -0.01528905291461
C            0.31078315737210       -4.74162913599265       -1.03340278586425
C            0.43336221353032       -6.21125079527470       -0.64877356737276
C            1.15296172128570       -6.41771603478174        0.67985697694976
C            0.42551195148867       -5.77702751819370        1.86325368387000
N            0.72420261863639       -4.35769168534025        2.01852275721813
C            1.51608149950331       -4.03044065804551        3.19468716729660
C            1.45046544200417       -2.54508305234177        3.49492408323576
C            1.72431300878980       -1.79721617940069        2.20187886764940
H            2.23906691415048       -0.84792553263505       -0.64816172107746
H            0.87773973903309       -0.17647267952377       -1.53833315880746
H            1.15317214090572       -1.91557970633005       -1.54507232483017
H            0.35493048086236       -0.19389150088651        0.85679827288759
H           -0.72705041725488       -1.27497248299754        0.00481235110468
H           -0.94681319126740       -3.07357468456213       -0.53087575201746
H           -1.32458544066424       -4.53426737596844        0.36056481352636
H            1.30573304675755       -4.30702080046939       -1.14740501099076
H           -0.18994620136040       -4.67777375027484       -1.99956786704969
H           -0.56252957308882       -6.65498120604873       -0.59250834835049
H            0.97985410515361       -6.73619927670370       -1.43261819519341
H            1.22988281339832       -7.48827531681258        0.87002711026406
H            2.16818037957590       -6.02038107098131        0.62207924887576
H            0.74306596335347       -6.26810936201115        2.78277261569296
H           -0.65280626468584       -5.92927920310465        1.76736888808355
H            2.55161308198825       -4.34758358513363        3.02858726095655
H            1.12180585065535       -4.59823314661887        4.04063059548890
H            2.18493668641815       -2.28217545968310        4.25344477063672
H            0.46013401683577       -2.27903509263711        3.86773204115566
H            2.73109833379568       -2.02513300729425        1.83608901866308
H            1.65718118518160       -0.72131666855485        2.36039841344686

          :  Hamiltonian                  GFN2-xTB          :
         :: total energy             -39.783594554547 Eh    ::
         :: gradient norm              0.000363809312 Eh/a0 ::
         :: HOMO-LUMO gap              4.042493090836 eV    ::
         :: SCC energy               -40.349663212570 Eh    ::
         :: -> dispersion             -0.028811371078 Eh    ::
         :: repulsion energy           0.566068658023 Eh    ::

    * Orbital Energies and Occupations

         #    Occupation            Energy/Eh            Energy/eV
      -------------------------------------------------------------
         1        2.0000           -0.8484237             -23.0868
       ...           ...                  ...                  ...
        25        2.0000           -0.6234490             -16.9649
        26        2.0000           -0.6208077             -16.8930
        27        2.0000           -0.6065858             -16.5060
        28        2.0000           -0.6044678             -16.4484
        29        2.0000           -0.5999225             -16.3247
        30        2.0000           -0.5890824             -16.0297
        31        2.0000           -0.5886113             -16.0169
        32        2.0000           -0.5829752             -15.8636
        33        2.0000           -0.5763560             -15.6834
        34        2.0000           -0.5662995             -15.4098
        35        2.0000           -0.5607890             -15.2598
        36        2.0000           -0.5601749             -15.2431
        37        2.0000           -0.5365366             -14.5999 (HOMO)
        38                         -0.3879777             -10.5574 (LUMO)
        39                         -0.1856907              -5.0529
        40                         -0.1602450              -4.3605
        41                         -0.1150565              -3.1308
        42                         -0.0732704              -1.9938
        43                         -0.0645517              -1.7565
        44                         -0.0535696              -1.4577
        45                         -0.0439052              -1.1947
        46                         -0.0416798              -1.1342
        47                         -0.0272849              -0.7425
        48                         -0.0181324              -0.4934
       ...                                ...                  ...
        73                          0.3526373               9.5957
      -------------------------------------------------------------
                  HL-Gap            0.1485589 Eh            4.0425 eV

     #   Z          covCN         q      C6AA      α(0)
     1   6 C        3.752    -0.124    22.932     6.829
     2   6 C        3.744    -0.016    20.935     6.527
     3   7 N        2.741    -0.027    21.776     6.931
     4   6 C        2.841     0.146    24.812     8.163
     5   6 C        3.809    -0.084    22.101     6.692
     6   6 C        3.803    -0.059    21.629     6.621
     7   6 C        3.802    -0.070    21.838     6.653
     8   6 C        3.802    -0.070    21.844     6.654
     9   6 C        3.750    -0.023    21.043     6.542
    10   7 N        2.742    -0.020    21.638     6.909
    11   6 C        3.756    -0.019    20.972     6.530
    12   6 C        3.807    -0.077    21.956     6.670
    13   6 C        3.761    -0.018    20.947     6.524
    14   1 H        0.925     0.059     2.208     2.324
    15   1 H        0.925     0.074     2.044     2.236
    16   1 H        0.925     0.058     2.225     2.333
    17   1 H        0.924     0.076     2.025     2.225
    18   1 H        0.925     0.070     2.083     2.257
    19   1 H        0.925     0.078     1.998     2.211
    20   1 H        0.924     0.082     1.954     2.186
    21   1 H        0.924     0.048     2.348     2.396
    22   1 H        0.925     0.065     2.138     2.287
    23   1 H        0.924     0.052     2.290     2.366
    24   1 H        0.924     0.062     2.174     2.306
    25   1 H        0.925     0.068     2.108     2.270
    26   1 H        0.924     0.053     2.287     2.365
    27   1 H        0.925     0.075     2.028     2.227
    28   1 H        0.924     0.075     2.028     2.227
    29   1 H        0.924     0.076     2.024     2.225
    30   1 H        0.924     0.082     1.962     2.190
    31   1 H        0.925     0.083     1.946     2.182
    32   1 H        0.924     0.069     2.100     2.266
    33   1 H        0.924     0.074     2.047     2.237
    34   1 H        0.925     0.082     1.956     2.187

Wiberg/Mayer (AO) data.
largest (>0.10) Wiberg bond orders for each atom

     #   Z sym  total        # sym  WBO       # sym  WBO       # sym  WBO
 ---------------------------------------------------------------------------
     1   6 C    3.985 --     2 C    1.007    14 H    0.985    16 H    0.983
                            15 H    0.979
     2   6 C    3.952 --     1 C    1.007     3 N    0.971    17 H    0.964
                            18 H    0.959
     3   7 N    3.589 --     4 C    1.385    13 C    0.973     2 C    0.971
                            10 N    0.148
     4   6 C    3.960 --    10 N    1.396     3 N    1.385     5 C    1.014
     5   6 C    3.982 --     4 C    1.014     6 C    0.971    19 H    0.959
                            20 H    0.950
     6   6 C    3.989 --     7 C    1.011    21 H    0.975    22 H    0.972
                             5 C    0.971
     7   6 C    3.993 --     6 C    1.011     8 C    1.009    23 H    0.974
                            24 H    0.972
     8   6 C    3.990 --     7 C    1.009     9 C    0.996    26 H    0.974
                            25 H    0.970
     9   6 C    3.951 --     8 C    0.996    10 N    0.969    27 H    0.969
                            28 H    0.956
    10   7 N    3.598 --     4 C    1.396    11 C    0.975     9 C    0.969
                             3 N    0.148
    11   6 C    3.962 --    12 C    1.009    10 N    0.975    30 H    0.960
                            29 H    0.960
    12   6 C    3.990 --    11 C    1.009    13 C    1.004    32 H    0.973
                            31 H    0.967
    13   6 C    3.961 --    12 C    1.004     3 N    0.973    34 H    0.965
                            33 H    0.960
    14   1 H    0.996 --     1 C    0.985
    15   1 H    0.994 --     1 C    0.979
    16   1 H    0.997 --     1 C    0.983
    17   1 H    0.994 --     2 C    0.964
    18   1 H    0.995 --     2 C    0.959
    19   1 H    0.994 --     5 C    0.959
    20   1 H    0.993 --     5 C    0.950
    21   1 H    0.998 --     6 C    0.975
    22   1 H    0.995 --     6 C    0.972
    23   1 H    0.997 --     7 C    0.974
    24   1 H    0.996 --     7 C    0.972
    25   1 H    0.995 --     8 C    0.970
    26   1 H    0.997 --     8 C    0.974
    27   1 H    0.994 --     9 C    0.969
    28   1 H    0.994 --     9 C    0.956
    29   1 H    0.994 --    11 C    0.960
    30   1 H    0.993 --    11 C    0.960
    31   1 H    0.992 --    12 C    0.967
    32   1 H    0.995 --    12 C    0.973
    33   1 H    0.994 --    13 C    0.960
    34   1 H    0.993 --    13 C    0.965
 ---------------------------------------------------------------------------

molecular dipole:
                 x           y           z       tot (Debye)
 q only:        1.458      -6.533       2.455
   full:        1.426      -6.492       2.544      18.090

           -------------------------------------------------
          | TOTAL ENERGY              -39.783594554547 Eh   |
          | GRADIENT NORM               0.000363809312 Eh/α |
          | HOMO-LUMO GAP               4.042493090836 eV   |
           -------------------------------------------------

 * finished run on 2024/12/20 at 06:55:01.638
