   * xtb version 6.7.1 (edcfbbe) compiled by 'conda@3ef47c1a292c' on 2024-11-25

   ID    Z sym.   atoms
    1    6 C      1-8, 10, 11, 13-15, 19, 20, 22, 23
    2    7 N      9, 12
    3   15 P      16
    4    8 O      17, 18, 21
    5    1 H      24-59

          program call               : xtb C0747.xyz --opt --namespace C0747 --charge +1
          :  Hamiltonian                  GFN2-xTB          :
 * total energy  :   -74.8895978 Eh     change       -0.2388276E-09 Eh
 * total energy  :   -74.9379156 Eh     change       -0.4831778E-01 Eh
 * total energy  :   -74.9715621 Eh     change       -0.3364648E-01 Eh
 * total energy  :   -74.9825066 Eh     change       -0.1094452E-01 Eh
 * total energy  :   -74.9946073 Eh     change       -0.1210066E-01 Eh
 * total energy  :   -75.0045401 Eh     change       -0.9932865E-02 Eh
 * total energy  :   -75.0114514 Eh     change       -0.6911250E-02 Eh
 * total energy  :   -75.0164347 Eh     change       -0.4983325E-02 Eh
 * total energy  :   -75.0200486 Eh     change       -0.3613927E-02 Eh
 * total energy  :   -75.0231336 Eh     change       -0.3084931E-02 Eh
 * total energy  :   -75.0522821 Eh     change       -0.1150280E-04 Eh
 * total energy  :   -75.0522901 Eh     change       -0.8002773E-05 Eh
 * total energy  :   -75.0522987 Eh     change       -0.8576086E-05 Eh
 * total energy  :   -75.0523082 Eh     change       -0.9485999E-05 Eh
 * total energy  :   -75.0523172 Eh     change       -0.9034311E-05 Eh
 * total energy  :   -75.0523252 Eh     change       -0.7925080E-05 Eh
 * total energy  :   -75.0523322 Eh     change       -0.7090621E-05 Eh
 * total energy  :   -75.0523380 Eh     change       -0.5794741E-05 Eh
 * total energy  :   -75.0523424 Eh     change       -0.4413373E-05 Eh
   *** GEOMETRY OPTIMIZATION CONVERGED AFTER 132 ITERATIONS ***

 final structure:
================
59
 xtb: 6.7.1 (edcfbbe)
C            1.58530974711338        0.83842368355557        0.25028631518520
C            1.07136138319821        2.25874369295009        0.04885120358174
C            1.13148988909353        2.72207834902690       -1.40787283759152
C            0.28952780104014        1.89776490612919       -2.38494448477726
C           -1.20360583529365        1.83227772183478       -2.05267222705196
C           -1.90008981443814        3.19253396686444       -1.97887759791654
C           -1.81118253601525        4.05550481170761       -3.24284458230603
C           -2.17354004539573        3.39897515943175       -4.57452504364740
N           -3.63529253089585        3.37702795285809       -4.89171459211484
C           -4.34153094831973        4.65949092973164       -4.68336798235099
C           -5.50931612756530        4.42134961447754       -4.07865968736973
N           -5.69666772968300        3.09781010026525       -3.83856139297744
C           -4.45694946810521        2.39923288751416       -4.12021822451993
C           -6.69561318129491        2.53703979247567       -2.96769012972589
C           -6.33963507147900        2.60967426294735       -1.48580844868201
P           -6.29051844863173        4.36897623478082       -0.95385000560168
O           -7.24639368957680        5.23813454489602       -1.64862769248519
O           -6.43428353463621        4.35755139993688        0.63296318240044
C           -7.56753382977398        4.96231940742988        1.26697710753371
C           -7.16096905903536        6.24620924098735        1.96752094379503
O           -4.72717408965754        4.67944025954498       -1.18806449857741
C           -4.17614741058288        5.90194723445883       -0.69043225570665
C           -4.55739794891061        7.09823210418688       -1.54473842771984
H            0.94249023700566        0.10997751217102       -0.23777577999362
H            1.61881603844737        0.59963408446650        1.31022477379308
H            2.58994088414859        0.73731349073504       -0.15331008771456
H            0.05006770597625        2.33530204237988        0.42752958624299
H            1.68559747593869        2.94046398317741        0.64100084905756
H            0.82947652075147        3.77092395958752       -1.45524728168735
H            2.16969891529847        2.67277807930774       -1.74287084074716
H            0.42728658929803        2.31056148211808       -3.38759753215710
H            0.67372063513704        0.87721901050761       -2.40635052644404
H           -1.69391084594644        1.18689644339469       -2.78898486703836
H           -1.32664932585687        1.34453500437187       -1.08506108011906
H           -2.94320824734451        3.05737226088039       -1.68704541614354
H           -1.43827729922600        3.76634470752541       -1.17489785452805
H           -2.44033705534117        4.93599618396943       -3.10322397214726
H           -0.78233852660675        4.40285316832246       -3.34413374346796
H           -1.69896847602490        3.96740371837263       -5.37784858357117
H           -1.80473533238500        2.37331253608074       -4.61917919075345
H           -3.69974079466126        3.14406598461003       -5.88930275717161
H           -3.93477183563679        5.55144477883342       -5.10692789121784
H           -6.26569250262939        5.13345200491006       -3.80766605105079
H           -3.92555070976331        2.13449545345879       -3.19813967696113
H           -4.64350371301187        1.49142994428480       -4.70406331964583
H           -7.61412223764653        3.10659778861954       -3.12602606938927
H           -6.86673292531820        1.49981783656522       -3.27165881755697
H           -7.12468147249011        2.12373633520254       -0.90716273602067
H           -5.39766104803060        2.11646250217962       -1.25700571821612
H           -8.33195400816104        5.16844071951717        0.51315983023530
H           -7.94415610623267        4.22930863220381        1.98445283187579
H           -6.83072881604518        6.98302659941696        1.23862362060819
H           -8.01225692680833        6.64683708934634        2.50992443891339
H           -6.35420349869839        6.05425823061068        2.67069734832463
H           -4.51064676188721        6.05028891928179        0.33993583759370
H           -3.09326885746551        5.74753786288687       -0.68883392840564
H           -5.63770829113204        7.20870583600885       -1.56642146616130
H           -4.11586349938331        7.99822058004091       -1.12613199787790
H           -4.20332340929129        6.97071697668415       -2.56503057187497

          :  Hamiltonian                  GFN2-xTB          :
         :: total energy             -75.052342451660 Eh    ::
         :: gradient norm              0.000459061259 Eh/a0 ::
         :: HOMO-LUMO gap              4.190574046443 eV    ::
         :: SCC energy               -75.986660442348 Eh    ::
         :: -> dispersion             -0.058389431020 Eh    ::
         :: repulsion energy           0.934317990688 Eh    ::

    * Orbital Energies and Occupations

         #    Occupation            Energy/Eh            Energy/eV
      -------------------------------------------------------------
         1        2.0000           -0.8619285             -23.4543
       ...           ...                  ...                  ...
        56        2.0000           -0.5493169             -14.9477
        57        2.0000           -0.5414876             -14.7346
        58        2.0000           -0.5389996             -14.6669
        59        2.0000           -0.5351567             -14.5624
        60        2.0000           -0.5328187             -14.4987
        61        2.0000           -0.5289992             -14.3948
        62        2.0000           -0.5268252             -14.3356
        63        2.0000           -0.5237248             -14.2513
        64        2.0000           -0.5190028             -14.1228
        65        2.0000           -0.5069651             -13.7952
        66        2.0000           -0.5031193             -13.6906
        67        2.0000           -0.4997787             -13.5997
        68        2.0000           -0.4985621             -13.5666 (HOMO)
        69                         -0.3445613              -9.3760 (LUMO)
        70                         -0.2275759              -6.1927
        71                         -0.1776060              -4.8329
        72                         -0.1729691              -4.7067
        73                         -0.1574586              -4.2847
        74                         -0.1547183              -4.2101
        75                         -0.1489136              -4.0521
        76                         -0.1218499              -3.3157
        77                         -0.1049664              -2.8563
        78                         -0.0875310              -2.3818
        79                         -0.0612904              -1.6678
       ...                                ...                  ...
       133                          1.1330164              30.8309
      -------------------------------------------------------------
                  HL-Gap            0.1540008 Eh            4.1906 eV

     #   Z          covCN         q      C6AA      α(0)
     1   6 C        3.751    -0.106    22.577     6.776
     2   6 C        3.799    -0.055    21.556     6.611
     3   6 C        3.800    -0.061    21.670     6.628
     4   6 C        3.800    -0.062    21.697     6.632
     5   6 C        3.799    -0.062    21.689     6.631
     6   6 C        3.799    -0.069    21.831     6.653
     7   6 C        3.799    -0.074    21.916     6.666
     8   6 C        3.734    -0.030    21.205     6.572
     9   7 N        3.607     0.045    20.457     6.718
    10   6 C        2.908    -0.072    29.784     8.949
    11   6 C        2.916     0.028    27.368     8.579
    12   7 N        2.787    -0.070    22.593     7.060
    13   6 C        3.770     0.033    20.057     6.382
    14   6 C        3.840    -0.015    20.806     6.489
    15   6 C        3.751    -0.110    22.666     6.789
    16  15 P        3.910     0.523   139.044    21.182
    17   8 O        0.808    -0.473    23.218     6.459
    18   8 O        1.656    -0.284    18.727     5.842
    19   6 C        3.896     0.077    19.244     6.236
    20   6 C        3.751    -0.120    22.862     6.819
    21   8 O        1.656    -0.311    19.196     5.915
    22   6 C        3.902     0.080    19.202     6.229
    23   6 C        3.751    -0.127    22.994     6.839
    24   1 H        0.925     0.033     2.545     2.495
    25   1 H        0.925     0.040     2.454     2.450
    26   1 H        0.925     0.040     2.448     2.447
    27   1 H        0.924     0.028     2.615     2.529
    28   1 H        0.924     0.036     2.503     2.474
    29   1 H        0.924     0.026     2.649     2.545
    30   1 H        0.924     0.041     2.441     2.443
    31   1 H        0.924     0.023     2.688     2.564
    32   1 H        0.924     0.046     2.373     2.409
    33   1 H        0.924     0.012     2.857     2.643
    34   1 H        0.924     0.051     2.303     2.373
    35   1 H        0.924     0.038     2.480     2.463
    36   1 H        0.924     0.060     2.202     2.321
    37   1 H        0.924     0.064     2.151     2.294
    38   1 H        0.924     0.075     2.033     2.230
    39   1 H        0.924     0.082     1.963     2.191
    40   1 H        0.924     0.088     1.903     2.157
    41   1 H        0.859     0.216     1.028     1.588
    42   1 H        0.927     0.083     1.947     2.182
    43   1 H        0.926     0.126     1.569     1.959
    44   1 H        0.924     0.104     1.749     2.068
    45   1 H        0.924     0.085     1.929     2.172
    46   1 H        0.924     0.096     1.821     2.111
    47   1 H        0.924     0.066     2.131     2.283
    48   1 H        0.927     0.083     1.946     2.182
    49   1 H        0.926     0.069     2.100     2.266
    50   1 H        0.924     0.064     2.149     2.292
    51   1 H        0.924     0.060     2.197     2.318
    52   1 H        0.925     0.057     2.232     2.336
    53   1 H        0.925     0.067     2.117     2.275
    54   1 H        0.925     0.061     2.186     2.312
    55   1 H        0.924     0.056     2.244     2.343
    56   1 H        0.924     0.055     2.258     2.350
    57   1 H        0.925     0.074     2.043     2.235
    58   1 H        0.925     0.063     2.159     2.298
    59   1 H        0.925     0.046     2.368     2.406

Wiberg/Mayer (AO) data.
largest (>0.10) Wiberg bond orders for each atom

     #   Z sym  total        # sym  WBO       # sym  WBO       # sym  WBO
 ---------------------------------------------------------------------------
     1   6 C    3.996 --     2 C    1.020    26 H    0.987    25 H    0.987
                            24 H    0.986
     2   6 C    3.997 --     1 C    1.020     3 C    1.008    28 H    0.978
                            27 H    0.976
     3   6 C    3.996 --     2 C    1.008     4 C    1.007    30 H    0.976
                            29 H    0.975
     4   6 C    3.996 --     3 C    1.007     5 C    1.007    31 H    0.976
                            32 H    0.974
     5   6 C    3.995 --     6 C    1.008     4 C    1.007    33 H    0.973
                            34 H    0.972
     6   6 C    3.992 --     5 C    1.008     7 C    1.005    36 H    0.969
                            35 H    0.965
     7   6 C    3.982 --     8 C    1.006     6 C    1.005    38 H    0.965
                            37 H    0.964
     8   6 C    3.920 --     7 C    1.006    39 H    0.970    40 H    0.963
                             9 N    0.920
     9   7 N    3.766 --    13 C    0.950     8 C    0.920    41 H    0.919
                            10 C    0.912
    10   6 C    3.832 --    11 C    1.725    42 H    0.965     9 N    0.912
                            12 N    0.158
    11   6 C    3.963 --    10 C    1.725    12 N    1.207    43 H    0.943
    12   7 N    3.431 --    11 C    1.207    13 C    0.998    14 C    0.991
                            10 C    0.158
    13   6 C    3.937 --    12 N    0.998    45 H    0.967     9 N    0.950
                            44 H    0.944
    14   6 C    3.963 --    15 C    0.996    12 N    0.991    47 H    0.967
                            46 H    0.960
    15   6 C    3.993 --    14 C    0.996    49 H    0.959    48 H    0.951
                            16 P    0.910
    16  15 P    5.362 --    17 O    1.880    18 O    1.248    21 O    1.177
                            15 C    0.910
    17   8 O    2.122 --    16 P    1.880
    18   8 O    2.353 --    16 P    1.248    19 C    0.910
    19   6 C    3.909 --    20 C    1.020    51 H    0.972    50 H    0.967
                            18 O    0.910
    20   6 C    3.990 --    19 C    1.020    54 H    0.984    52 H    0.983
                            53 H    0.979
    21   8 O    2.302 --    16 P    1.177    22 C    0.918
    22   6 C    3.920 --    23 C    1.018    56 H    0.969    55 H    0.967
                            21 O    0.918
    23   6 C    3.990 --    22 C    1.018    59 H    0.985    58 H    0.981
                            57 H    0.977
    24   1 H    0.999 --     1 C    0.986
    25   1 H    0.998 --     1 C    0.987
    26   1 H    0.998 --     1 C    0.987
    27   1 H    0.999 --     2 C    0.976
    28   1 H    0.999 --     2 C    0.978
    29   1 H    0.999 --     3 C    0.975
    30   1 H    0.998 --     3 C    0.976
    31   1 H    0.999 --     4 C    0.976
    32   1 H    0.998 --     4 C    0.974
    33   1 H    1.000 --     5 C    0.973
    34   1 H    0.997 --     5 C    0.972
    35   1 H    0.999 --     6 C    0.965
    36   1 H    0.996 --     6 C    0.969
    37   1 H    0.996 --     7 C    0.964
    38   1 H    0.994 --     7 C    0.965
    39   1 H    0.993 --     8 C    0.970
    40   1 H    0.992 --     8 C    0.963
    41   1 H    0.953 --     9 N    0.919
    42   1 H    0.993 --    10 C    0.965
    43   1 H    0.984 --    11 C    0.943
    44   1 H    0.989 --    13 C    0.944
    45   1 H    0.993 --    13 C    0.967
    46   1 H    0.990 --    14 C    0.960
    47   1 H    0.995 --    14 C    0.967
    48   1 H    0.992 --    15 C    0.951
    49   1 H    0.995 --    15 C    0.959
    50   1 H    0.996 --    19 C    0.967
    51   1 H    0.996 --    19 C    0.972
    52   1 H    0.997 --    20 C    0.983
    53   1 H    0.995 --    20 C    0.979
    54   1 H    0.996 --    20 C    0.984
    55   1 H    0.997 --    22 C    0.967
    56   1 H    0.997 --    22 C    0.969
    57   1 H    0.994 --    23 C    0.977
    58   1 H    0.995 --    23 C    0.981
    59   1 H    0.998 --    23 C    0.985
 ---------------------------------------------------------------------------

molecular dipole:
                 x           y           z       tot (Debye)
 q only:       -7.168       6.374      -6.485
   full:       -7.096       6.008      -6.595      28.973

           -------------------------------------------------
          | TOTAL ENERGY              -75.052342451660 Eh   |
          | GRADIENT NORM               0.000459061259 Eh/α |
          | HOMO-LUMO GAP               4.190574046443 eV   |
           -------------------------------------------------

 * finished run on 2024/12/20 at 06:55:15.277
