   * xtb version 6.7.1 (edcfbbe) compiled by 'conda@3ef47c1a292c' on 2024-11-25

   ID    Z sym.   atoms
    1    8 O      1, 3
    2    6 C      2, 4-6, 8, 9, 11-23
    3    7 N      7, 10
    4    1 H      24-44

          program call               : xtb C0745.xyz --opt --namespace C0745 --charge +1
          :  Hamiltonian                  GFN2-xTB          :
 * total energy  :   -65.0338143 Eh     change       -0.2854108E-09 Eh
 * total energy  :   -65.0411398 Eh     change       -0.7325574E-02 Eh
 * total energy  :   -65.0426187 Eh     change       -0.1478878E-02 Eh
 * total energy  :   -65.0429726 Eh     change       -0.3538849E-03 Eh
 * total energy  :   -65.0433604 Eh     change       -0.3877560E-03 Eh
 * total energy  :   -65.0436226 Eh     change       -0.2622379E-03 Eh
 * total energy  :   -65.0439750 Eh     change       -0.3523916E-03 Eh
 * total energy  :   -65.0444434 Eh     change       -0.4683832E-03 Eh
 * total energy  :   -65.0449286 Eh     change       -0.4852269E-03 Eh
 * total energy  :   -65.0453663 Eh     change       -0.4376879E-03 Eh
 * total energy  :   -65.0550458 Eh     change       -0.2011073E-04 Eh
 * total energy  :   -65.0550553 Eh     change       -0.9588401E-05 Eh
 * total energy  :   -65.0550611 Eh     change       -0.5763845E-05 Eh
 * total energy  :   -65.0550694 Eh     change       -0.8285080E-05 Eh
 * total energy  :   -65.0550764 Eh     change       -0.6957215E-05 Eh
 * total energy  :   -65.0550856 Eh     change       -0.9279179E-05 Eh
 * total energy  :   -65.0550969 Eh     change       -0.1127544E-04 Eh
 * total energy  :   -65.0551054 Eh     change       -0.8471945E-05 Eh
 * total energy  :   -65.0551096 Eh     change       -0.4184694E-05 Eh
   *** GEOMETRY OPTIMIZATION CONVERGED AFTER 74 ITERATIONS ***

 final structure:
================
44
 xtb: 6.7.1 (edcfbbe)
O            1.70804497021672       -1.93075562948208       -0.87548086752856
C            1.05833068813459       -1.00753761340446       -0.19426100328564
O            1.36682047649299       -0.65544171761857        0.91878801479184
C           -0.12989610994742       -0.45950191102310       -0.95554687680331
C           -1.44727807208417       -0.87741179045293       -0.28882722496612
C           -1.65594472658359       -0.25666734210131        1.09773965756314
N           -1.93679786670244        1.16001751967402        1.01728327169438
C           -1.13583437000122        2.18534068319119        1.33454841991933
C            0.22287857299321        2.10012084692982        1.89573625879192
N           -1.76465583234161        3.34445747962303        1.09689818288126
C           -3.03044563945616        3.07094049482754        0.61780778842136
C           -3.14017659506390        1.67142285660551        0.56573665054698
C           -4.31044100664499        1.05541291034853        0.14056741460054
C           -5.34998185073089        1.87927912959451       -0.24038106162506
C           -5.23651400991509        3.27054873128066       -0.19970560603626
C           -4.08231944812924        3.89173856281854        0.23165032455627
C           -1.24301434355937        4.66075309316573        1.40097954717451
C           -1.17903919764509        4.89095395387129        2.89428162767230
C            0.00480143128076        5.28635748009772        3.50062991255342
C            0.04776999816616        5.50476684260347        4.86724271589685
C           -1.08830267073603        5.31891103469723        5.63610972695446
C           -2.27094233075323        4.91893833074444        5.03580417165867
C           -2.31798520642638        4.70734914913456        3.66955269373384
H            2.46482983984927       -2.29067580955891       -0.38289353274796
H           -0.05388804478078        0.62913645101093       -0.98899931273343
H           -0.09536524637860       -0.84916722969088       -1.97164484050398
H           -2.27057363202988       -0.59366451617807       -0.94581761982820
H           -1.46414128861462       -1.96237305436998       -0.17982144684030
H           -2.50968217827821       -0.73559489943142        1.58404486408213
H           -0.77200670955441       -0.41473761832945        1.71548089153458
H            0.18550849713079        2.24350553578671        2.97706352765746
H            0.69292322044962        1.13994425930081        1.69058807994770
H            0.85107273179579        2.88923833993381        1.48799235525385
H           -4.41208496180144       -0.01685187719624        0.11384798171849
H           -6.27512373290498        1.43958627024448       -0.57671284593851
H           -6.07557552650409        3.87334531193045       -0.50776314187406
H           -4.01260970506526        4.96658260145963        0.27005746249317
H           -0.24979926638100        4.77053161673493        0.95715970819356
H           -1.90614190417019        5.39238411223437        0.93450680663953
H            0.89298146307403        5.43805249280718        2.90462165385621
H            0.97005684230644        5.82011791561362        5.32942762400076
H           -1.05437504696569        5.48937056538689        6.70060880307699
H           -3.16010190289039        4.77780008249494        5.63044244124583
H           -3.24572030884681        4.40442635465096        3.20397680160682

          :  Hamiltonian                  GFN2-xTB          :
         :: total energy             -65.055109565059 Eh    ::
         :: gradient norm              0.000330313688 Eh/a0 ::
         :: HOMO-LUMO gap              3.078847670089 eV    ::
         :: SCC energy               -66.068350619515 Eh    ::
         :: -> dispersion             -0.047514835155 Eh    ::
         :: repulsion energy           1.013241054455 Eh    ::

    * Orbital Energies and Occupations

         #    Occupation            Energy/Eh            Energy/eV
      -------------------------------------------------------------
         1        2.0000           -0.8641072             -23.5136
       ...           ...                  ...                  ...
        47        2.0000           -0.5814621             -15.8224
        48        2.0000           -0.5804792             -15.7956
        49        2.0000           -0.5784561             -15.7406
        50        2.0000           -0.5736059             -15.6086
        51        2.0000           -0.5708037             -15.5324
        52        2.0000           -0.5628783             -15.3167
        53        2.0000           -0.5383972             -14.6505
        54        2.0000           -0.5360757             -14.5874
        55        2.0000           -0.5324508             -14.4887
        56        2.0000           -0.5271923             -14.3456
        57        2.0000           -0.5260306             -14.3140
        58        2.0000           -0.5107426             -13.8980
        59        2.0000           -0.5091336             -13.8542 (HOMO)
        60                         -0.3959880             -10.7754 (LUMO)
        61                         -0.3520965              -9.5810
        62                         -0.3485688              -9.4850
        63                         -0.3434295              -9.3452
        64                         -0.3331495              -9.0655
        65                         -0.3288468              -8.9484
        66                         -0.2267939              -6.1714
        67                         -0.2046969              -5.5701
        68                         -0.1640500              -4.4640
        69                         -0.1162298              -3.1628
        70                         -0.0619943              -1.6870
       ...                                ...                  ...
       113                          0.5578185              15.1790
      -------------------------------------------------------------
                  HL-Gap            0.1131456 Eh            3.0788 eV

     #   Z          covCN         q      C6AA      α(0)
     1   8 O        1.660    -0.346    19.822     6.010
     2   6 C        2.689     0.365    20.804     7.465
     3   8 O        0.856    -0.428    22.255     6.325
     4   6 C        3.802    -0.098    22.365     6.733
     5   6 C        3.803    -0.064    21.732     6.637
     6   6 C        3.740    -0.024    21.079     6.551
     7   7 N        2.828     0.007    21.125     6.826
     8   6 C        3.070     0.126    25.182     8.228
     9   6 C        3.755    -0.148    23.411     6.899
    10   7 N        2.834     0.005    21.162     6.832
    11   6 C        3.091     0.039    27.024     8.521
    12   6 C        3.101     0.036    27.080     8.528
    13   6 C        2.909    -0.037    28.915     8.817
    14   6 C        2.925    -0.022    28.543     8.761
    15   6 C        2.925    -0.021    28.533     8.760
    16   6 C        2.909    -0.034    28.858     8.809
    17   6 C        3.747    -0.018    20.960     6.530
    18   6 C        2.972    -0.003    28.087     8.693
    19   6 C        2.922    -0.037    28.922     8.819
    20   6 C        2.920    -0.023    28.581     8.767
    21   6 C        2.920    -0.022    28.562     8.764
    22   6 C        2.919    -0.024    28.606     8.771
    23   6 C        2.923    -0.038    28.940     8.822
    24   1 H        0.804     0.347     0.596     1.213
    25   1 H        0.924     0.067     2.120     2.277
    26   1 H        0.925     0.087     1.906     2.159
    27   1 H        0.924     0.067     2.117     2.275
    28   1 H        0.924     0.073     2.056     2.243
    29   1 H        0.924     0.082     1.960     2.189
    30   1 H        0.925     0.100     1.782     2.088
    31   1 H        0.924     0.101     1.771     2.081
    32   1 H        0.925     0.125     1.574     1.962
    33   1 H        0.925     0.090     1.874     2.141
    34   1 H        0.926     0.065     2.140     2.288
    35   1 H        0.926     0.074     2.040     2.233
    36   1 H        0.926     0.075     2.035     2.231
    37   1 H        0.926     0.065     2.138     2.286
    38   1 H        0.924     0.074     2.048     2.238
    39   1 H        0.924     0.084     1.940     2.178
    40   1 H        0.926     0.040     2.444     2.445
    41   1 H        0.926     0.055     2.259     2.350
    42   1 H        0.926     0.056     2.249     2.345
    43   1 H        0.926     0.051     2.311     2.377
    44   1 H        0.925     0.030     2.586     2.515

Wiberg/Mayer (AO) data.
largest (>0.10) Wiberg bond orders for each atom

     #   Z sym  total        # sym  WBO       # sym  WBO       # sym  WBO
 ---------------------------------------------------------------------------
     1   8 O    2.252 --     2 C    1.188    24 H    0.853     3 O    0.181
     2   6 C    3.913 --     3 O    1.722     1 O    1.188     4 C    0.971
     3   8 O    2.028 --     2 C    1.722     1 O    0.181
     4   6 C    3.992 --     5 C    0.990     2 C    0.971    26 H    0.971
                            25 H    0.960
     5   6 C    3.989 --     6 C    0.994     4 C    0.990    28 H    0.971
                            27 H    0.970
     6   6 C    3.945 --     5 C    0.994     7 N    0.974    29 H    0.960
                            30 H    0.956
     7   7 N    3.657 --     8 C    1.327    12 C    1.117     6 C    0.974
     8   6 C    3.954 --     7 N    1.327    10 N    1.326     9 C    1.054
     9   6 C    3.969 --     8 C    1.054    33 H    0.956    32 H    0.944
                            31 H    0.936
    10   7 N    3.656 --     8 C    1.326    11 C    1.121    17 C    0.966
    11   6 C    3.955 --    16 C    1.344    12 C    1.279    10 N    1.121
    12   6 C    3.954 --    13 C    1.345    11 C    1.279     7 N    1.117
    13   6 C    3.985 --    14 C    1.488    12 C    1.345    34 H    0.963
                            16 C    0.118
    14   6 C    3.984 --    13 C    1.488    15 C    1.384    35 H    0.967
    15   6 C    3.983 --    16 C    1.489    14 C    1.384    36 H    0.967
    16   6 C    3.985 --    15 C    1.489    11 C    1.344    37 H    0.962
                            13 C    0.118
    17   6 C    3.944 --    18 C    0.984    10 N    0.966    38 H    0.957
                            39 H    0.956
    18   6 C    3.979 --    19 C    1.418    23 C    1.411    17 C    0.984
                            21 C    0.109
    19   6 C    3.990 --    20 C    1.439    18 C    1.418    40 H    0.968
                            22 C    0.110
    20   6 C    3.990 --    21 C    1.442    19 C    1.439    41 H    0.969
                            23 C    0.112
    21   6 C    3.989 --    20 C    1.442    22 C    1.436    42 H    0.969
                            18 C    0.109
    22   6 C    3.991 --    23 C    1.447    21 C    1.436    43 H    0.970
                            19 C    0.110
    23   6 C    3.992 --    22 C    1.447    18 C    1.411    44 H    0.969
                            20 C    0.112
    24   1 H    0.880 --     1 O    0.853
    25   1 H    0.996 --     4 C    0.960
    26   1 H    0.992 --     4 C    0.971
    27   1 H    0.995 --     5 C    0.970
    28   1 H    0.994 --     5 C    0.971
    29   1 H    0.993 --     6 C    0.960
    30   1 H    0.989 --     6 C    0.956
    31   1 H    0.985 --     9 C    0.936
    32   1 H    0.983 --     9 C    0.944
    33   1 H    0.990 --     9 C    0.956
    34   1 H    0.995 --    13 C    0.963
    35   1 H    0.994 --    14 C    0.967
    36   1 H    0.994 --    15 C    0.967
    37   1 H    0.995 --    16 C    0.962
    38   1 H    0.993 --    17 C    0.957
    39   1 H    0.993 --    17 C    0.956
    40   1 H    0.998 --    19 C    0.968
    41   1 H    0.997 --    20 C    0.969
    42   1 H    0.996 --    21 C    0.969
    43   1 H    0.997 --    22 C    0.970
    44   1 H    0.999 --    23 C    0.969
 ---------------------------------------------------------------------------

molecular dipole:
                 x           y           z       tot (Debye)
 q only:       -3.304       3.786       1.825
   full:       -3.164       3.748       1.781      13.265

           -------------------------------------------------
          | TOTAL ENERGY              -65.055109565059 Eh   |
          | GRADIENT NORM               0.000330313688 Eh/α |
          | HOMO-LUMO GAP               3.078847670089 eV   |
           -------------------------------------------------

 * finished run on 2024/12/20 at 06:55:06.638
