   * xtb version 6.7.1 (edcfbbe) compiled by 'conda@3ef47c1a292c' on 2024-11-25

   ID    Z sym.   atoms
    1    7 N      1-3, 5, 7-11
    2    6 C      4, 6
    3    1 H      12, 13

          program call               : xtb C0757.xyz --opt --namespace C0757 --charge +1
          :  Hamiltonian                  GFN2-xTB          :
 * total energy  :   -30.9406201 Eh     change       -0.1466915E-10 Eh
 * total energy  :   -30.9758925 Eh     change       -0.3527239E-01 Eh
 * total energy  :   -30.9906470 Eh     change       -0.1475451E-01 Eh
 * total energy  :   -30.9945631 Eh     change       -0.3916013E-02 Eh
 * total energy  :   -31.0020554 Eh     change       -0.7492356E-02 Eh
 * total energy  :   -31.0042152 Eh     change       -0.2159762E-02 Eh
 * total energy  :   -31.0054957 Eh     change       -0.1280559E-02 Eh
 * total energy  :   -31.0078829 Eh     change       -0.2387161E-02 Eh
 * total energy  :   -31.0085556 Eh     change       -0.6726624E-03 Eh
 * total energy  :   -31.0106591 Eh     change       -0.2103528E-02 Eh
 * total energy  :   -31.0144620 Eh     change       -0.4507743E-04 Eh
 * total energy  :   -31.0145130 Eh     change       -0.5097269E-04 Eh
 * total energy  :   -31.0145087 Eh     change        0.4226519E-05 Eh
 * total energy  :   -31.0145758 Eh     change       -0.6704446E-04 Eh
 * total energy  :   -31.0145965 Eh     change       -0.2074433E-04 Eh
 * total energy  :   -31.0145191 Eh     change        0.7745951E-04 Eh
 * total energy  :   -31.0146034 Eh     change       -0.8429373E-04 Eh
 * total energy  :   -31.0146143 Eh     change       -0.1093080E-04 Eh
 * total energy  :   -31.0146160 Eh     change       -0.1712668E-05 Eh
   *** GEOMETRY OPTIMIZATION CONVERGED AFTER 28 ITERATIONS ***

 final structure:
================
13
 xtb: 6.7.1 (edcfbbe)
N            1.41023030399868       -0.67334714380172       -0.09657238357620
N            2.31818668332615       -0.05833108174443        0.05595009911849
N            3.35461517102280        0.56447330360885        0.00419493193350
C            3.99461075177444        1.27011663956103        0.90877408235606
N            3.79685444563136        1.56407448964098        2.12032259102516
C            4.87257428735629        2.37403603615099        2.53373077223256
N            5.75511201009173        2.60254851223027        1.60651136093191
N            5.32365026493150        1.93707417451004        0.45086853762548
N            4.96321393811536        2.85231221740550        3.75863686861568
N            4.25184998966488        2.74328299550484        4.72157860193478
N            3.73682689056987        2.76347066915808        5.70501244819617
H            5.19232681148788        2.60132670297512       -0.33107633886726
H            6.03099845202918        1.25241248479950        0.13321842847353

          :  Hamiltonian                  GFN2-xTB          :
         :: total energy             -31.014616000397 Eh    ::
         :: gradient norm              0.000723604515 Eh/a0 ::
         :: HOMO-LUMO gap              2.622832340218 eV    ::
         :: SCC energy               -31.446076454433 Eh    ::
         :: -> dispersion             -0.010150586484 Eh    ::
         :: repulsion energy           0.431460454036 Eh    ::

    * Orbital Energies and Occupations

         #    Occupation            Energy/Eh            Energy/eV
      -------------------------------------------------------------
         1        2.0000           -0.9417803             -25.6271
       ...           ...                  ...                  ...
        15        2.0000           -0.7793109             -21.2061
        16        2.0000           -0.7635747             -20.7779
        17        2.0000           -0.7468710             -20.3234
        18        2.0000           -0.7282277             -19.8161
        19        2.0000           -0.6882965             -18.7295
        20        2.0000           -0.6751322             -18.3713
        21        2.0000           -0.6534181             -17.7804
        22        2.0000           -0.6430490             -17.4983
        23        2.0000           -0.6314448             -17.1825
        24        2.0000           -0.6229864             -16.9523
        25        2.0000           -0.6151206             -16.7383
        26        2.0000           -0.6012111             -16.3598
        27        2.0000           -0.5924805             -16.1222 (HOMO)
        28                         -0.4960932             -13.4994 (LUMO)
        29                         -0.4568844             -12.4325
        30                         -0.4410437             -12.0014
        31                         -0.4205279             -11.4431
        32                         -0.3860455             -10.5048
        33                         -0.3349215              -9.1137
        34                         -0.3111995              -8.4682
        35                         -0.2485676              -6.7639
        36                         -0.1638057              -4.4574
        37                         -0.1063097              -2.8928
        38                         -0.0938478              -2.5537
       ...                                ...                  ...
        46                          0.9528756              25.9291
      -------------------------------------------------------------
                  HL-Gap            0.0963873 Eh            2.6228 eV

     #   Z          covCN         q      C6AA      α(0)
     1   7 N        0.991    -0.026    21.380     6.647
     2   7 N        1.986     0.369    16.075     5.946
     3   7 N        1.905    -0.124    24.472     7.334
     4   6 C        2.967     0.222    23.332     7.923
     5   7 N        1.853    -0.252    27.404     7.759
     6   6 C        3.056     0.254    22.705     7.814
     7   7 N        1.934    -0.215    26.508     7.634
     8   7 N        3.701     0.039    20.557     6.734
     9   7 N        1.915    -0.091    23.772     7.229
    10   7 N        1.985     0.363    16.145     5.959
    11   7 N        0.992    -0.065    22.116     6.760
    12   1 H        0.859     0.263     0.834     1.430
    13   1 H        0.859     0.263     0.834     1.430

Wiberg/Mayer (AO) data.
largest (>0.10) Wiberg bond orders for each atom

     #   Z sym  total        # sym  WBO       # sym  WBO       # sym  WBO
 ---------------------------------------------------------------------------
     1   7 N    2.993 --     2 N    2.369     3 N    0.456
     2   7 N    3.856 --     1 N    2.369     3 N    1.440
     3   7 N    3.313 --     2 N    1.440     4 C    1.261     1 N    0.456
     4   6 C    3.955 --     5 N    1.682     3 N    1.261     8 N    0.808
     5   7 N    3.112 --     4 C    1.682     6 C    1.043
     6   6 C    3.961 --     7 N    1.533     9 N    1.244     5 N    1.043
     7   7 N    2.914 --     6 C    1.533     8 N    1.028
     8   7 N    3.754 --     7 N    1.028    12 H    0.888    13 H    0.888
                             4 C    0.808
     9   7 N    3.363 --    10 N    1.485     6 C    1.244    11 N    0.488
    10   7 N    3.854 --    11 N    2.329     9 N    1.485
    11   7 N    2.996 --    10 N    2.329     9 N    0.488
    12   1 H    0.927 --     8 N    0.888
    13   1 H    0.927 --     8 N    0.888
 ---------------------------------------------------------------------------

molecular dipole:
                 x           y           z       tot (Debye)
 q only:        8.208       2.842       1.803
   full:        8.465       2.806       1.237      22.883

           -------------------------------------------------
          | TOTAL ENERGY              -31.014616000397 Eh   |
          | GRADIENT NORM               0.000723604515 Eh/α |
          | HOMO-LUMO GAP               2.622832340218 eV   |
           -------------------------------------------------

 * finished run on 2024/12/20 at 06:55:32.465
