   * xtb version 6.7.1 (edcfbbe) compiled by 'conda@3ef47c1a292c' on 2024-11-25

   ID    Z sym.   atoms
    1    6 C      1-4, 6-10
    2    7 N      5
    3    1 H      11-24

          program call               : xtb C0758.xyz --opt --namespace C0758 --charge +1
          :  Hamiltonian                  GFN2-xTB          :
 * total energy  :   -28.9248702 Eh     change       -0.2392220E-09 Eh
 * total energy  :   -28.9269899 Eh     change       -0.2119729E-02 Eh
 * total energy  :   -28.9273751 Eh     change       -0.3852123E-03 Eh
 * total energy  :   -28.9274641 Eh     change       -0.8896630E-04 Eh
 * total energy  :   -28.9275370 Eh     change       -0.7291079E-04 Eh
 * total energy  :   -28.9275835 Eh     change       -0.4651625E-04 Eh
 * total energy  :   -28.9276322 Eh     change       -0.4872611E-04 Eh
 * total energy  :   -28.9276856 Eh     change       -0.5334898E-04 Eh
 * total energy  :   -28.9277161 Eh     change       -0.3056199E-04 Eh
 * total energy  :   -28.9277233 Eh     change       -0.7203181E-05 Eh
 * total energy  :   -28.9277309 Eh     change       -0.7573887E-05 Eh
 * total energy  :   -28.9277372 Eh     change       -0.6335826E-05 Eh
 * total energy  :   -28.9277392 Eh     change       -0.1944688E-05 Eh
   *** GEOMETRY OPTIMIZATION CONVERGED AFTER 13 ITERATIONS ***

 final structure:
================
24
 xtb: 6.7.1 (edcfbbe)
C            1.22207414657881       -0.37617886154504        0.45984389388814
C            0.56202879469848        0.53803615168631        1.48570546858164
C            0.90919717397618        2.01410959590074        1.29279843597246
C            0.31594618574065        2.63657467216030        0.01848010272681
N           -1.13057691419605        2.69928362364418        0.10768857425431
C           -1.87619828584805        1.70279966137139       -0.38136596727641
C           -3.24917471037985        1.69874531085433       -0.23558438077223
C           -3.86418169990333        2.74896959021581        0.43224244386418
C           -3.07208721026454        3.77592376060492        0.93168349822005
C           -1.70575076787236        3.71932664220882        0.75539778000494
H            0.87611251683579       -0.18304157849678       -0.55343945734461
H            1.00041514682441       -1.41364456905862        0.69298977393510
H            2.30134373285822       -0.25056680238002        0.47988105765903
H           -0.52297750850403        0.39652873012237        1.47342975467036
H            0.90765161289574        0.24617917760467        2.47819645634498
H            0.56781767109859        2.58547028365599        2.15854283082308
H            1.99264679489508        2.11884189508367        1.23126056585709
H            0.70653540489008        3.64785554068835       -0.10692553407389
H            0.59815220472599        2.04214667560504       -0.85061387362178
H           -1.36375301678646        0.90840183060874       -0.90337640300274
H           -3.82528856973219        0.88304249783238       -0.64203143187343
H           -4.93510526278998        2.76919667093613        0.55863396361969
H           -3.50861882713613        4.61278700664619        1.45274067366110
H           -1.05518861260545        4.49619249404960        1.12977177388235

          :  Hamiltonian                  GFN2-xTB          :
         :: total energy             -28.927739194033 Eh    ::
         :: gradient norm              0.000390148484 Eh/a0 ::
         :: HOMO-LUMO gap              2.647608486389 eV    ::
         :: SCC energy               -29.413624390561 Eh    ::
         :: -> dispersion             -0.017642250888 Eh    ::
         :: repulsion energy           0.485885196528 Eh    ::

    * Orbital Energies and Occupations

         #    Occupation            Energy/Eh            Energy/eV
      -------------------------------------------------------------
         1        2.0000           -0.8825091             -24.0143
       ...           ...                  ...                  ...
        15        2.0000           -0.6795242             -18.4908
        16        2.0000           -0.6642806             -18.0760
        17        2.0000           -0.6553217             -17.8322
        18        2.0000           -0.6324509             -17.2099
        19        2.0000           -0.6276421             -17.0790
        20        2.0000           -0.6257372             -17.0272
        21        2.0000           -0.6225738             -16.9411
        22        2.0000           -0.6177141             -16.8089
        23        2.0000           -0.6101147             -16.6021
        24        2.0000           -0.5992306             -16.3059
        25        2.0000           -0.5737080             -15.6114
        26        2.0000           -0.5638719             -15.3437
        27        2.0000           -0.5582836             -15.1917 (HOMO)
        28                         -0.4609858             -12.5441 (LUMO)
        29                         -0.4307774             -11.7221
        30                         -0.3101199              -8.4388
        31                         -0.1711653              -4.6576
        32                         -0.0837603              -2.2792
        33                         -0.0685959              -1.8666
        34                         -0.0496207              -1.3502
        35                         -0.0369184              -1.0046
        36                         -0.0292241              -0.7952
        37                         -0.0141300              -0.3845
        38                         -0.0081572              -0.2220
       ...                                ...                  ...
        54                          0.4458875              12.1332
      -------------------------------------------------------------
                  HL-Gap            0.0972978 Eh            2.6476 eV

     #   Z          covCN         q      C6AA      α(0)
     1   6 C        3.751    -0.115    22.756     6.803
     2   6 C        3.800    -0.062    21.692     6.631
     3   6 C        3.802    -0.070    21.848     6.655
     4   6 C        3.760    -0.038    21.299     6.579
     5   7 N        2.750     0.116    19.255     6.517
     6   6 C        2.892     0.034    27.239     8.557
     7   6 C        2.915    -0.010    28.278     8.720
     8   6 C        2.925     0.014    27.706     8.632
     9   6 C        2.915    -0.010    28.258     8.717
    10   6 C        2.894     0.032    27.276     8.563
    11   1 H        0.925     0.031     2.575     2.509
    12   1 H        0.925     0.058     2.226     2.333
    13   1 H        0.925     0.055     2.255     2.348
    14   1 H        0.924     0.028     2.614     2.529
    15   1 H        0.924     0.065     2.145     2.291
    16   1 H        0.924     0.054     2.273     2.358
    17   1 H        0.924     0.083     1.944     2.180
    18   1 H        0.924     0.091     1.871     2.139
    19   1 H        0.925     0.098     1.808     2.103
    20   1 H        0.926     0.113     1.672     2.022
    21   1 H        0.926     0.108     1.710     2.045
    22   1 H        0.926     0.108     1.716     2.048
    23   1 H        0.926     0.109     1.708     2.043
    24   1 H        0.926     0.109     1.703     2.041

Wiberg/Mayer (AO) data.
largest (>0.10) Wiberg bond orders for each atom

     #   Z sym  total        # sym  WBO       # sym  WBO       # sym  WBO
 ---------------------------------------------------------------------------
     1   6 C    3.992 --     2 C    1.021    13 H    0.985    12 H    0.984
                            11 H    0.983
     2   6 C    3.994 --     1 C    1.021     3 C    1.010    14 H    0.972
                            15 H    0.970
     3   6 C    3.981 --     2 C    1.010    16 H    0.974     4 C    0.971
                            17 H    0.963
     4   6 C    3.932 --     3 C    0.971     5 N    0.965    18 H    0.962
                            19 H    0.959
     5   7 N    3.770 --     6 C    1.328    10 C    1.324     4 C    0.965
     6   6 C    3.957 --     7 C    1.455     5 N    1.328    20 H    0.952
     7   6 C    3.981 --     6 C    1.455     8 C    1.427    21 H    0.959
     8   6 C    3.969 --     7 C    1.427     9 C    1.417    22 H    0.961
     9   6 C    3.981 --    10 C    1.467     8 C    1.417    23 H    0.959
    10   6 C    3.959 --     9 C    1.467     5 N    1.324    24 H    0.954
    11   1 H    0.999 --     1 C    0.983
    12   1 H    0.997 --     1 C    0.984
    13   1 H    0.997 --     1 C    0.985
    14   1 H    0.999 --     2 C    0.972
    15   1 H    0.995 --     2 C    0.970
    16   1 H    0.997 --     3 C    0.974
    17   1 H    0.991 --     3 C    0.963
    18   1 H    0.991 --     4 C    0.962
    19   1 H    0.990 --     4 C    0.959
    20   1 H    0.987 --     6 C    0.952
    21   1 H    0.988 --     7 C    0.959
    22   1 H    0.988 --     8 C    0.961
    23   1 H    0.988 --     9 C    0.959
    24   1 H    0.988 --    10 C    0.954
 ---------------------------------------------------------------------------

molecular dipole:
                 x           y           z       tot (Debye)
 q only:       -2.858       4.733       0.631
   full:       -2.892       4.806       0.594      14.336

           -------------------------------------------------
          | TOTAL ENERGY              -28.927739194033 Eh   |
          | GRADIENT NORM               0.000390148484 Eh/α |
          | HOMO-LUMO GAP               2.647608486389 eV   |
           -------------------------------------------------

 * finished run on 2024/12/20 at 06:55:32.958
