   * xtb version 6.7.1 (edcfbbe) compiled by 'conda@3ef47c1a292c' on 2024-11-25

   ID    Z sym.   atoms
    1    6 C      1, 3, 4, 6, 7
    2    7 N      2, 5
    3    1 H      8-16

          program call               : xtb C0759.xyz --opt --namespace C0759 --charge +1
          :  Hamiltonian                  GFN2-xTB          :
 * total energy  :   -20.7568785 Eh     change       -0.5446310E-11 Eh
 * total energy  :   -20.7593993 Eh     change       -0.2520788E-02 Eh
 * total energy  :   -20.7599685 Eh     change       -0.5692207E-03 Eh
 * total energy  :   -20.7600468 Eh     change       -0.7824813E-04 Eh
 * total energy  :   -20.7600707 Eh     change       -0.2395028E-04 Eh
 * total energy  :   -20.7600717 Eh     change       -0.9664656E-06 Eh
   *** GEOMETRY OPTIMIZATION CONVERGED AFTER 6 ITERATIONS ***

 final structure:
================
16
 xtb: 6.7.1 (edcfbbe)
C            2.44909078919845        0.55795938379240       -0.01239174398281
N            1.08666928867420        0.09446671963603       -0.01858577069794
C            0.68163200734278       -1.20333908385928       -0.01463888336953
C           -0.68195014164843       -1.20319176774494       -0.02011200341231
N           -1.08665333531944        0.09471310703031       -0.02697804855610
C            0.00010005007613        0.86371941828625       -0.02609802966620
C           -2.44897073903732        0.55836760528794       -0.03919549011502
H            2.64202614471627        1.18294315170127       -0.88471862018612
H            2.64763748285317        1.14367883189367        0.88583080095428
H            3.12279979908731       -0.29542239280833       -0.03304148715739
H            1.36793112018457       -2.02547785387415       -0.00804906398770
H           -1.36847427695270       -2.02516832307724       -0.01956847191785
H            0.00025099509687        1.93693579862093       -0.03054345246271
H           -2.63430220257341        1.21585918299503        0.81042652854939
H           -2.65500410364165        1.10993274985456       -0.95729051397037
H           -3.12271287805680       -0.29327652773443        0.01884424997836

          :  Hamiltonian                  GFN2-xTB          :
         :: total energy             -20.760071694786 Eh    ::
         :: gradient norm              0.000312339453 Eh/a0 ::
         :: HOMO-LUMO gap              4.852871036624 eV    ::
         :: SCC energy               -21.082998829414 Eh    ::
         :: -> dispersion             -0.009194378862 Eh    ::
         :: repulsion energy           0.322927134628 Eh    ::

    * Orbital Energies and Occupations

         #    Occupation            Energy/Eh            Energy/eV
      -------------------------------------------------------------
         1        2.0000           -0.9063097             -24.6619
       ...           ...                  ...                  ...
         7        2.0000           -0.7650543             -20.8182
         8        2.0000           -0.7619537             -20.7338
         9        2.0000           -0.7292928             -19.8451
        10        2.0000           -0.7066913             -19.2300
        11        2.0000           -0.7013396             -19.0844
        12        2.0000           -0.6977826             -18.9876
        13        2.0000           -0.6815289             -18.5453
        14        2.0000           -0.6689948             -18.2043
        15        2.0000           -0.6501409             -17.6912
        16        2.0000           -0.6448791             -17.5481
        17        2.0000           -0.6442976             -17.5322
        18        2.0000           -0.6106258             -16.6160
        19        2.0000           -0.5953093             -16.1992 (HOMO)
        20                         -0.4169696             -11.3463 (LUMO)
        21                         -0.3783486             -10.2954
        22                         -0.1913945              -5.2081
        23                         -0.1372518              -3.7348
        24                         -0.0622022              -1.6926
        25                         -0.0565185              -1.5379
        26                         -0.0287869              -0.7833
        27                         -0.0109237              -0.2972
        28                         -0.0019313              -0.0526
        29                          0.0197181               0.5366
        30                          0.0441134               1.2004
       ...                                ...                  ...
        37                          0.4529937              12.3266
      -------------------------------------------------------------
                  HL-Gap            0.1783397 Eh            4.8529 eV

     #   Z          covCN         q      C6AA      α(0)
     1   6 C        3.692    -0.089    22.394     6.771
     2   7 N        2.866     0.083    19.807     6.610
     3   6 C        3.074    -0.007    28.117     8.694
     4   6 C        3.074    -0.007    28.118     8.694
     5   7 N        2.866     0.083    19.806     6.610
     6   6 C        3.102     0.040    26.989     8.513
     7   6 C        3.692    -0.089    22.394     6.771
     8   1 H        0.924     0.106     1.730     2.057
     9   1 H        0.924     0.106     1.728     2.056
    10   1 H        0.925     0.109     1.702     2.040
    11   1 H        0.926     0.113     1.670     2.021
    12   1 H        0.926     0.113     1.670     2.021
    13   1 H        0.926     0.118     1.629     1.996
    14   1 H        0.925     0.106     1.732     2.058
    15   1 H        0.924     0.107     1.726     2.055
    16   1 H        0.925     0.109     1.702     2.040

Wiberg/Mayer (AO) data.
largest (>0.10) Wiberg bond orders for each atom

     #   Z sym  total        # sym  WBO       # sym  WBO       # sym  WBO
 ---------------------------------------------------------------------------
     1   6 C    3.931 --     2 N    0.989    10 H    0.974     8 H    0.963
                             9 H    0.962
     2   7 N    3.726 --     6 C    1.361     3 C    1.237     1 C    0.989
     3   6 C    3.948 --     4 C    1.579     2 N    1.237    11 H    0.960
     4   6 C    3.948 --     3 C    1.579     5 N    1.237    12 H    0.960
     5   7 N    3.726 --     6 C    1.361     4 C    1.237     7 C    0.989
     6   6 C    3.945 --     5 N    1.361     2 N    1.361    13 H    0.954
     7   6 C    3.931 --     5 N    0.989    16 H    0.974    14 H    0.964
                            15 H    0.962
     8   1 H    0.988 --     1 C    0.963
     9   1 H    0.989 --     1 C    0.962
    10   1 H    0.988 --     1 C    0.974
    11   1 H    0.987 --     3 C    0.960
    12   1 H    0.987 --     4 C    0.960
    13   1 H    0.986 --     6 C    0.954
    14   1 H    0.989 --     7 C    0.964
    15   1 H    0.988 --     7 C    0.962
    16   1 H    0.988 --     7 C    0.974
 ---------------------------------------------------------------------------

molecular dipole:
                 x           y           z       tot (Debye)
 q only:       -0.000       0.317      -0.045
   full:       -0.000       0.380      -0.046       0.972

           -------------------------------------------------
          | TOTAL ENERGY              -20.760071694786 Eh   |
          | GRADIENT NORM               0.000312339453 Eh/α |
          | HOMO-LUMO GAP               4.852871036624 eV   |
           -------------------------------------------------

 * finished run on 2024/12/20 at 06:55:33.096
