   * xtb version 6.7.1 (edcfbbe) compiled by 'conda@3ef47c1a292c' on 2024-11-25

   ID    Z sym.   atoms
    1    8 O      1
    2    6 C      2-9, 11-16, 18, 20-22
    3    7 N      10, 17, 19
    4    1 H      23-42

          program call               : xtb C0752.xyz --opt --namespace C0752 --charge +1
          :  Hamiltonian                  GFN2-xTB          :
 * total energy  :   -61.2211560 Eh     change       -0.3867484E-09 Eh
 * total energy  :   -61.2274862 Eh     change       -0.6330256E-02 Eh
 * total energy  :   -61.2286720 Eh     change       -0.1185749E-02 Eh
 * total energy  :   -61.2289830 Eh     change       -0.3110385E-03 Eh
 * total energy  :   -61.2292689 Eh     change       -0.2858866E-03 Eh
 * total energy  :   -61.2295190 Eh     change       -0.2501526E-03 Eh
 * total energy  :   -61.2298240 Eh     change       -0.3049549E-03 Eh
 * total energy  :   -61.2302113 Eh     change       -0.3873335E-03 Eh
 * total energy  :   -61.2306018 Eh     change       -0.3904268E-03 Eh
 * total energy  :   -61.2309227 Eh     change       -0.3209846E-03 Eh
 * total energy  :   -61.2323957 Eh     change       -0.5408516E-05 Eh
 * total energy  :   -61.2324014 Eh     change       -0.5687289E-05 Eh
 * total energy  :   -61.2324073 Eh     change       -0.5897491E-05 Eh
 * total energy  :   -61.2324132 Eh     change       -0.5959327E-05 Eh
 * total energy  :   -61.2324190 Eh     change       -0.5771168E-05 Eh
 * total energy  :   -61.2324244 Eh     change       -0.5463349E-05 Eh
 * total energy  :   -61.2324296 Eh     change       -0.5184304E-05 Eh
 * total energy  :   -61.2324346 Eh     change       -0.5015082E-05 Eh
 * total energy  :   -61.2324396 Eh     change       -0.4949069E-05 Eh
   *** GEOMETRY OPTIMIZATION CONVERGED AFTER 52 ITERATIONS ***

 final structure:
================
42
 xtb: 6.7.1 (edcfbbe)
O            2.23352496887244       -1.29467517518193       -1.49673574057526
C            3.28694192899117       -1.01944374453319       -0.95019841091959
C            4.40587315321724       -0.40016507960769       -1.64946300397878
C            5.40886439856760        0.32316482555392       -0.99502069808966
C            6.41871286720772        0.91594860941696       -1.72621069487660
C            6.45471107779028        0.78525876500544       -3.10761053179889
C            5.46200646945169        0.07493420648772       -3.76664874883362
C            4.43851569329735       -0.50524658073949       -3.04634817623011
C            3.42062176282523       -1.33116609938548        0.55559557147847
N            2.80311408766172       -0.29439366859743        1.35470995075531
C            3.42794255019164        0.48072427300951        2.32327195492231
C            4.73196219696826        0.50588567606057        2.78811537615358
C            5.02976986465892        1.41437878831361        3.78798882037835
C            4.05904129896467        2.26425287965942        4.30853518258273
C            2.75130869880747        2.23308185803077        3.85801630128109
C            2.44412681391901        1.32659718745111        2.85695412032754
N            1.25078392863367        1.03322464114351        2.20223006573218
C            1.49704329987826        0.05236528604290        1.31377108935022
N            0.60607650669684       -0.55879754413598        0.53906512093869
C           -0.02028282035862        1.70942816203190        2.45818208023594
C           -0.53021202547324        2.42866077580096        1.21049009092864
C           -1.04563686421664        0.75132597399732        3.05920716103840
H            5.38204803699889        0.46362900870301        0.07443653733988
H            7.18345162893792        1.48389052434750       -1.21907457641073
H            7.25413540770352        1.24325388936964       -3.66917917129016
H            5.48636826838622       -0.02104595197750       -4.84074895251772
H            3.65598652789589       -1.06092668121347       -3.54027609640285
H            2.90921711785535       -2.28386612732075        0.73947719645337
H            4.46207223128726       -1.42877929201815        0.85429149803691
H            5.49125180039351       -0.15901088686467        2.40866144350596
H            6.03493239612526        1.46071850797117        4.17473108458107
H            4.32986087132440        2.95898395046513        5.08696372990614
H            2.01197141504775        2.89171301246869        4.28286447978543
H            0.94225201849737       -1.11119028499497       -0.25369291711207
H           -0.33722323098248       -0.21396324588602        0.49857993702657
H            0.21374886465324        2.46877449549387        3.20872455563990
H            0.26374801914108        3.02108409942489        0.76130175186767
H           -0.92113261128138        1.74667657879553        0.45990152036060
H           -1.33469038876472        3.10136432582879        1.49378672109078
H           -1.92220684559600        1.31477746533682        3.36583505498301
H           -1.36554042270462       -0.01129307022376        2.35439564132346
H           -0.63414096143720        0.25844566645282        3.93677368104381

          :  Hamiltonian                  GFN2-xTB          :
         :: total energy             -61.232439595201 Eh    ::
         :: gradient norm              0.000181839278 Eh/a0 ::
         :: HOMO-LUMO gap              2.783174800927 eV    ::
         :: SCC energy               -62.222117466906 Eh    ::
         :: -> dispersion             -0.044794415574 Eh    ::
         :: repulsion energy           0.989677871704 Eh    ::

    * Orbital Energies and Occupations

         #    Occupation            Energy/Eh            Energy/eV
      -------------------------------------------------------------
         1        2.0000           -0.8653567             -23.5476
       ...           ...                  ...                  ...
        44        2.0000           -0.5877239             -15.9928
        45        2.0000           -0.5794603             -15.7679
        46        2.0000           -0.5713976             -15.5485
        47        2.0000           -0.5703845             -15.5210
        48        2.0000           -0.5660721             -15.4036
        49        2.0000           -0.5584081             -15.1951
        50        2.0000           -0.5528246             -15.0431
        51        2.0000           -0.5369332             -14.6107
        52        2.0000           -0.5325529             -14.4915
        53        2.0000           -0.5274688             -14.3532
        54        2.0000           -0.5238173             -14.2538
        55        2.0000           -0.5234800             -14.2446
        56        2.0000           -0.5149657             -14.0129 (HOMO)
        57                         -0.4126859             -11.2298 (LUMO)
        58                         -0.3762759             -10.2390
        59                         -0.3462353              -9.4215
        60                         -0.3401366              -9.2556
        61                         -0.3326349              -9.0515
        62                         -0.3186220              -8.6701
        63                         -0.2211278              -6.0172
        64                         -0.2065437              -5.6203
        65                         -0.1811727              -4.9300
        66                         -0.1356375              -3.6909
        67                         -0.1130388              -3.0759
       ...                                ...                  ...
       108                          0.5603920              15.2490
      -------------------------------------------------------------
                  HL-Gap            0.1022798 Eh            2.7832 eV

     #   Z          covCN         q      C6AA      α(0)
     1   8 O        0.858    -0.365    21.001     6.144
     2   6 C        2.822     0.223    23.310     7.911
     3   6 C        2.971    -0.015    28.384     8.739
     4   6 C        2.919    -0.027    28.672     8.781
     5   6 C        2.917    -0.020    28.518     8.757
     6   6 C        2.920    -0.007    28.200     8.708
     7   6 C        2.916    -0.017    28.446     8.746
     8   6 C        2.926    -0.009    28.246     8.716
     9   6 C        3.738    -0.038    21.336     6.591
    10   7 N        2.822    -0.034    21.895     6.950
    11   6 C        3.074     0.037    27.088     8.533
    12   6 C        2.911    -0.040    28.988     8.829
    13   6 C        2.925    -0.024    28.611     8.772
    14   6 C        2.925    -0.024    28.605     8.771
    15   6 C        2.911    -0.037    28.927     8.819
    16   6 C        3.085     0.038    27.052     8.526
    17   7 N        2.815    -0.041    22.033     6.971
    18   6 C        2.982     0.202    23.708     7.987
    19   7 N        2.637    -0.255    26.638     7.665
    20   6 C        3.786     0.036    19.984     6.367
    21   6 C        3.753    -0.125    22.952     6.832
    22   6 C        3.754    -0.126    22.980     6.836
    23   1 H        0.926     0.042     2.427     2.436
    24   1 H        0.926     0.058     2.221     2.330
    25   1 H        0.926     0.066     2.126     2.280
    26   1 H        0.926     0.066     2.129     2.282
    27   1 H        0.926     0.073     2.054     2.241
    28   1 H        0.924     0.088     1.895     2.153
    29   1 H        0.925     0.091     1.869     2.138
    30   1 H        0.926     0.057     2.233     2.337
    31   1 H        0.926     0.071     2.071     2.250
    32   1 H        0.926     0.072     2.059     2.244
    33   1 H        0.926     0.063     2.163     2.300
    34   1 H        0.859     0.258     0.855     1.448
    35   1 H        0.860     0.217     1.025     1.586
    36   1 H        0.924     0.076     2.017     2.221
    37   1 H        0.925     0.057     2.240     2.340
    38   1 H        0.925     0.050     2.314     2.379
    39   1 H        0.925     0.075     2.028     2.227
    40   1 H        0.925     0.075     2.031     2.229
    41   1 H        0.925     0.053     2.282     2.363
    42   1 H        0.925     0.060     2.199     2.319

Wiberg/Mayer (AO) data.
largest (>0.10) Wiberg bond orders for each atom

     #   Z sym  total        # sym  WBO       # sym  WBO       # sym  WBO
 ---------------------------------------------------------------------------
     1   8 O    2.095 --     2 C    1.772
     2   6 C    3.925 --     1 O    1.772     3 C    1.090     9 C    0.942
     3   6 C    3.986 --     4 C    1.351     8 C    1.347     2 C    1.090
     4   6 C    3.991 --     5 C    1.471     3 C    1.351    23 H    0.964
                             7 C    0.102
     5   6 C    3.991 --     4 C    1.471     6 C    1.419    24 H    0.968
     6   6 C    3.984 --     7 C    1.426     5 C    1.419    25 H    0.968
     7   6 C    3.989 --     8 C    1.465     6 C    1.426    26 H    0.967
                             4 C    0.102
     8   6 C    3.985 --     7 C    1.465     3 C    1.347    27 H    0.965
     9   6 C    3.950 --    10 N    0.975    29 H    0.963    28 H    0.955
                             2 C    0.942
    10   7 N    3.584 --    18 C    1.239    11 C    1.087     9 C    0.975
    11   6 C    3.948 --    12 C    1.368    16 C    1.285    10 N    1.087
    12   6 C    3.986 --    13 C    1.460    11 C    1.368    30 H    0.961
                            15 C    0.113
    13   6 C    3.981 --    12 C    1.460    14 C    1.410    31 H    0.967
    14   6 C    3.981 --    15 C    1.462    13 C    1.410    32 H    0.967
    15   6 C    3.986 --    14 C    1.462    16 C    1.370    33 H    0.961
                            12 C    0.113
    16   6 C    3.953 --    15 C    1.370    11 C    1.285    17 N    1.090
    17   7 N    3.591 --    18 C    1.263    16 C    1.090    20 C    0.945
    18   6 C    3.972 --    19 N    1.310    17 N    1.263    10 N    1.239
    19   7 N    3.373 --    18 C    1.310    35 H    0.919    34 H    0.862
    20   6 C    3.947 --    21 C    1.001    22 C    1.001    36 H    0.956
                            17 N    0.945
    21   6 C    3.988 --    20 C    1.001    37 H    0.984    39 H    0.979
                            38 H    0.978
    22   6 C    3.987 --    20 C    1.001    42 H    0.983    41 H    0.979
                            40 H    0.979
    23   1 H    0.998 --     4 C    0.964
    24   1 H    0.996 --     5 C    0.968
    25   1 H    0.995 --     6 C    0.968
    26   1 H    0.995 --     7 C    0.967
    27   1 H    0.995 --     8 C    0.965
    28   1 H    0.991 --     9 C    0.955
    29   1 H    0.991 --     9 C    0.963
    30   1 H    0.996 --    12 C    0.961
    31   1 H    0.994 --    13 C    0.967
    32   1 H    0.994 --    14 C    0.967
    33   1 H    0.995 --    15 C    0.961
    34   1 H    0.933 --    19 N    0.862
    35   1 H    0.952 --    19 N    0.919
    36   1 H    0.994 --    20 C    0.956
    37   1 H    0.997 --    21 C    0.984
    38   1 H    0.997 --    21 C    0.978
    39   1 H    0.994 --    21 C    0.979
    40   1 H    0.994 --    22 C    0.979
    41   1 H    0.997 --    22 C    0.979
    42   1 H    0.996 --    22 C    0.983
 ---------------------------------------------------------------------------

molecular dipole:
                 x           y           z       tot (Debye)
 q only:        4.857       1.257       2.293
   full:        4.876       1.225       2.253      14.002

           -------------------------------------------------
          | TOTAL ENERGY              -61.232439595201 Eh   |
          | GRADIENT NORM               0.000181839278 Eh/α |
          | HOMO-LUMO GAP               2.783174800927 eV   |
           -------------------------------------------------

 * finished run on 2024/12/20 at 06:55:25.480
