   * xtb version 6.7.1 (edcfbbe) compiled by 'conda@3ef47c1a292c' on 2024-11-25

   ID    Z sym.   atoms
    1    6 C      1, 3-6, 8, 9, 11, 13-15, 17, 19
    2    8 O      2, 12, 16, 18
    3    7 N      7, 10
    4    1 H      20-36

          program call               : xtb C0756.xyz --opt --namespace C0756 --charge +1
          :  Hamiltonian                  GFN2-xTB          :
 * total energy  :   -58.1595023 Eh     change       -0.1807621E-09 Eh
 * total energy  :   -58.1666636 Eh     change       -0.7161319E-02 Eh
 * total energy  :   -58.1688681 Eh     change       -0.2204537E-02 Eh
 * total energy  :   -58.1693463 Eh     change       -0.4782057E-03 Eh
 * total energy  :   -58.1699343 Eh     change       -0.5880095E-03 Eh
 * total energy  :   -58.1702783 Eh     change       -0.3439298E-03 Eh
 * total energy  :   -58.1706975 Eh     change       -0.4192274E-03 Eh
 * total energy  :   -58.1711759 Eh     change       -0.4784433E-03 Eh
 * total energy  :   -58.1716324 Eh     change       -0.4564712E-03 Eh
 * total energy  :   -58.1717880 Eh     change       -0.1555890E-03 Eh
 * total energy  :   -58.1732867 Eh     change       -0.3437451E-04 Eh
 * total energy  :   -58.1733180 Eh     change       -0.3120703E-04 Eh
 * total energy  :   -58.1733369 Eh     change       -0.1890462E-04 Eh
 * total energy  :   -58.1733819 Eh     change       -0.4500569E-04 Eh
 * total energy  :   -58.1734264 Eh     change       -0.4450552E-04 Eh
 * total energy  :   -58.1734466 Eh     change       -0.2022315E-04 Eh
 * total energy  :   -58.1734678 Eh     change       -0.2117904E-04 Eh
 * total energy  :   -58.1734844 Eh     change       -0.1662824E-04 Eh
 * total energy  :   -58.1734893 Eh     change       -0.4948552E-05 Eh
   *** GEOMETRY OPTIMIZATION CONVERGED AFTER 33 ITERATIONS ***

 final structure:
================
36
 xtb: 6.7.1 (edcfbbe)
C           -0.38814732409893        0.27607147427934        0.03158324521171
O            0.92083413478944        0.57700919830943        0.45585191547738
C            1.10785789006764        1.27234723725219        1.60872036931379
C            0.06256930684194        1.84598541712434        2.32282600195862
C            0.31632544527044        2.57522741961958        3.47576079008754
C           -0.81528888638566        3.23923305390659        4.22305506118856
N           -1.03101457620095        4.57727476198519        3.69602763305917
C           -2.06840244486386        4.97961735609907        2.92208578250147
C           -1.85055521852535        6.28296093278316        2.57412239094303
N           -0.67284041771617        6.63424817899105        3.14682581623474
C           -0.18371627674188        5.59743109711088        3.82167309499203
O           -0.04733414899620        7.83106909158585        3.08870723903854
C            1.61567945078560        2.73532139616379        3.91001327543058
C            2.68666357592662        2.16368451100215        3.22039448034488
C            2.44237017028400        1.42408793427532        2.04771469540991
O            3.52119848517406        0.94527415433744        1.37034217535182
C            3.45234303477128       -0.28145479754293        0.66434713566294
O            3.88565636564570        2.42741249104067        3.78238812201660
C            5.06358360517284        1.72539041968057        3.42764291587449
H           -0.93639179792617        1.17912886870093       -0.25533215837158
H           -0.94546039585971       -0.26882471767058        0.79880664313444
H           -0.26900646937288       -0.35974480884952       -0.84400576572805
H           -0.95186965660262        1.72796723595601        1.97995299539356
H           -1.74428241964266        2.67991522852724        4.10819695960520
H           -0.56970879112367        3.31816313706086        5.28395479296366
H           -2.88987393032631        4.33945584826638        2.67099896358644
H           -2.44211703323536        6.94943015766261        1.97910841275172
H            0.74428994124429        5.59934432940384        4.35887341127479
H           -0.54667358417300        8.45407882191020        2.53395028479018
H            1.84876877331014        3.27086894241026        4.81614727775112
H            2.89488802141413       -1.03513380187366        1.22324319053524
H            3.00500012179588       -0.15291276096014       -0.32175020300101
H            4.48794142633724       -0.60242548080833        0.55468188394223
H            4.93538306514131        0.64730842952205        3.54058024217422
H            5.37869579504618        1.95297389168578        2.40904297603324
H            5.81639476277202        2.07546535105534        4.13287795306840

          :  Hamiltonian                  GFN2-xTB          :
         :: total energy             -58.173489347719 Eh    ::
         :: gradient norm              0.000648657780 Eh/a0 ::
         :: HOMO-LUMO gap              1.481053940203 eV    ::
         :: SCC energy               -58.887480919971 Eh    ::
         :: -> dispersion             -0.033100061430 Eh    ::
         :: repulsion energy           0.713991572252 Eh    ::

    * Orbital Energies and Occupations

         #    Occupation            Energy/Eh            Energy/eV
      -------------------------------------------------------------
         1        2.0000           -0.9266928             -25.2166
       ...           ...                  ...                  ...
        39        2.0000           -0.5911266             -16.0854
        40        2.0000           -0.5831040             -15.8671
        41        2.0000           -0.5790354             -15.7564
        42        2.0000           -0.5685254             -15.4704
        43        2.0000           -0.5587272             -15.2037
        44        2.0000           -0.5564039             -15.1405
        45        2.0000           -0.5557776             -15.1235
        46        2.0000           -0.5426226             -14.7655
        47        2.0000           -0.5370760             -14.6146
        48        2.0000           -0.5336372             -14.5210
        49        2.0000           -0.5067149             -13.7884
        50        2.0000           -0.4780452             -13.0083
        51        2.0000           -0.4612308             -12.5507 (HOMO)
        52                         -0.4068031             -11.0697 (LUMO)
        53                         -0.3773668             -10.2687
        54                         -0.3302322              -8.9861
        55                         -0.3169373              -8.6243
        56                         -0.2510451              -6.8313
        57                         -0.2032470              -5.5306
        58                         -0.1362686              -3.7081
        59                         -0.0905344              -2.4636
        60                         -0.0829611              -2.2575
        61                         -0.0673083              -1.8316
        62                         -0.0582286              -1.5845
       ...                                ...                  ...
        93                          0.5480331              14.9127
      -------------------------------------------------------------
                  HL-Gap            0.0544277 Eh            1.4811 eV

     #   Z          covCN         q      C6AA      α(0)
     1   6 C        3.641     0.030    20.421     6.498
     2   8 O        1.705    -0.253    18.188     5.758
     3   6 C        2.859     0.120    25.362     8.255
     4   6 C        2.919    -0.095    30.385     9.039
     5   6 C        2.969    -0.017    28.437     8.747
     6   6 C        3.748    -0.033    21.219     6.570
     7   7 N        2.875     0.078    19.883     6.623
     8   6 C        3.086    -0.006    28.074     8.686
     9   6 C        3.045    -0.036    28.841     8.808
    10   7 N        2.902     0.219    17.652     6.240
    11   6 C        3.075     0.031    27.220     8.554
    12   8 O        1.724    -0.299    18.978     5.882
    13   6 C        2.925    -0.086    30.164     9.007
    14   6 C        2.851     0.129    25.161     8.221
    15   6 C        2.851     0.098    25.826     8.329
    16   8 O        1.704    -0.259    18.289     5.774
    17   6 C        3.636     0.029    20.462     6.508
    18   8 O        1.707    -0.245    18.067     5.739
    19   6 C        3.635     0.025    20.540     6.522
    20   1 H        0.924     0.043     2.414     2.430
    21   1 H        0.924     0.048     2.343     2.394
    22   1 H        0.925     0.077     2.008     2.216
    23   1 H        0.926     0.046     2.370     2.407
    24   1 H        0.924     0.095     1.836     2.119
    25   1 H        0.924     0.096     1.823     2.111
    26   1 H        0.926     0.117     1.638     2.001
    27   1 H        0.926     0.113     1.668     2.019
    28   1 H        0.926     0.142     1.444     1.879
    29   1 H        0.804     0.360     0.567     1.182
    30   1 H        0.926     0.059     2.216     2.328
    31   1 H        0.924     0.047     2.354     2.399
    32   1 H        0.924     0.064     2.151     2.293
    33   1 H        0.925     0.069     2.096     2.264
    34   1 H        0.924     0.054     2.265     2.354
    35   1 H        0.924     0.067     2.117     2.275
    36   1 H        0.925     0.073     2.057     2.243

Wiberg/Mayer (AO) data.
largest (>0.10) Wiberg bond orders for each atom

     #   Z sym  total        # sym  WBO       # sym  WBO       # sym  WBO
 ---------------------------------------------------------------------------
     1   6 C    3.938 --     2 O    0.978    22 H    0.977    21 H    0.976
                            20 H    0.976
     2   8 O    2.249 --     3 C    1.075     1 C    0.978
     3   6 C    3.941 --     4 C    1.375    15 C    1.290     2 O    1.075
     4   6 C    3.977 --     5 C    1.384     3 C    1.375    23 H    0.963
     5   6 C    3.970 --    13 C    1.427     4 C    1.384     6 C    0.980
     6   6 C    3.926 --     5 C    0.980    24 H    0.964    25 H    0.956
                             7 N    0.948
     7   7 N    3.720 --    11 C    1.351     8 C    1.253     6 C    0.948
     8   6 C    3.947 --     9 C    1.556     7 N    1.253    26 H    0.958
     9   6 C    3.934 --     8 C    1.556    10 N    1.220    27 H    0.959
    10   7 N    3.727 --    11 C    1.337     9 C    1.220    12 O    1.032
    11   6 C    3.930 --     7 N    1.351    10 N    1.337    28 H    0.947
    12   8 O    2.046 --    10 N    1.032    29 H    0.855
    13   6 C    3.979 --     5 C    1.427    14 C    1.340    30 H    0.964
    14   6 C    3.947 --    13 C    1.340    15 C    1.307    18 O    1.102
    15   6 C    3.942 --    14 C    1.307     3 C    1.290    16 O    1.073
    16   8 O    2.225 --    15 C    1.073    17 C    0.963
    17   6 C    3.932 --    31 H    0.981    33 H    0.977    32 H    0.975
                            16 O    0.963
    18   8 O    2.265 --    14 C    1.102    19 C    0.965
    19   6 C    3.928 --    34 H    0.979    36 H    0.978    35 H    0.975
                            18 O    0.965
    20   1 H    0.998 --     1 C    0.976
    21   1 H    0.998 --     1 C    0.976
    22   1 H    0.994 --     1 C    0.977
    23   1 H    0.998 --     4 C    0.963
    24   1 H    0.990 --     6 C    0.964
    25   1 H    0.990 --     6 C    0.956
    26   1 H    0.986 --     8 C    0.958
    27   1 H    0.987 --     9 C    0.959
    28   1 H    0.980 --    11 C    0.947
    29   1 H    0.870 --    12 O    0.855
    30   1 H    0.996 --    13 C    0.964
    31   1 H    0.998 --    17 C    0.981
    32   1 H    0.994 --    17 C    0.975
    33   1 H    0.994 --    17 C    0.977
    34   1 H    0.997 --    19 C    0.979
    35   1 H    0.994 --    19 C    0.975
    36   1 H    0.994 --    19 C    0.978
 ---------------------------------------------------------------------------

molecular dipole:
                 x           y           z       tot (Debye)
 q only:       -1.332       8.798       5.394
   full:       -1.723       8.785       5.196      26.309

           -------------------------------------------------
          | TOTAL ENERGY              -58.173489347719 Eh   |
          | GRADIENT NORM               0.000648657780 Eh/α |
          | HOMO-LUMO GAP               1.481053940203 eV   |
           -------------------------------------------------

 * finished run on 2024/12/20 at 06:55:32.147
