   * xtb version 6.7.1 (edcfbbe) compiled by 'conda@3ef47c1a292c' on 2024-11-25

   ID    Z sym.   atoms
    1    6 C      1-12, 14-19
    2   15 P      13
    3    1 H      20-59

          program call               : xtb C0751.xyz --opt --namespace C0751 --charge +1
          :  Hamiltonian                  GFN2-xTB          :
 * total energy  :   -61.0880764 Eh     change       -0.4272849E-09 Eh
 * total energy  :   -61.0935557 Eh     change       -0.5479240E-02 Eh
 * total energy  :   -61.0949515 Eh     change       -0.1395854E-02 Eh
 * total energy  :   -61.0951287 Eh     change       -0.1771915E-03 Eh
 * total energy  :   -61.0952241 Eh     change       -0.9541535E-04 Eh
 * total energy  :   -61.0953067 Eh     change       -0.8254319E-04 Eh
 * total energy  :   -61.0953943 Eh     change       -0.8763869E-04 Eh
 * total energy  :   -61.0954650 Eh     change       -0.7064122E-04 Eh
 * total energy  :   -61.0955064 Eh     change       -0.4140528E-04 Eh
 * total energy  :   -61.0955451 Eh     change       -0.3871027E-04 Eh
 * total energy  :   -61.0962653 Eh     change       -0.2353438E-04 Eh
 * total energy  :   -61.0962903 Eh     change       -0.2493397E-04 Eh
 * total energy  :   -61.0963116 Eh     change       -0.2137012E-04 Eh
 * total energy  :   -61.0963231 Eh     change       -0.1147433E-04 Eh
 * total energy  :   -61.0963333 Eh     change       -0.1018712E-04 Eh
 * total energy  :   -61.0963384 Eh     change       -0.5099070E-05 Eh
 * total energy  :   -61.0963499 Eh     change       -0.1150984E-04 Eh
 * total energy  :   -61.0963592 Eh     change       -0.9255025E-05 Eh
 * total energy  :   -61.0963639 Eh     change       -0.4698581E-05 Eh
   *** GEOMETRY OPTIMIZATION CONVERGED AFTER 47 ITERATIONS ***

 final structure:
================
59
 xtb: 6.7.1 (edcfbbe)
C            1.64505624214552       -0.76918680622562        0.12214301007745
C            1.41837609211290       -0.82515178150871        1.62819325356679
C            1.69676228212779        0.50422828762056        2.33169047091639
C            0.82070841221746        1.67301504335026        1.87565987584236
C           -0.68514845578855        1.45150895106320        2.02929301056961
C           -1.15506888376802        1.16849426780061        3.45739359948210
C           -0.85480576762715        2.27642645206603        4.46919580236139
C           -1.44078802664643        3.64635102603723        4.12039977345146
C           -2.95685038429316        3.66682453289094        3.91401324670466
C           -3.78294177522092        3.17839681598211        5.10694948830698
C           -3.57582122484436        3.96470671645054        6.40328275563404
C           -4.00265401020664        5.43574777160650        6.32133931168108
P           -5.74728411879721        5.75852241422630        6.73830871238929
C           -6.12502220547045        5.17482183568085        8.42927623677994
C           -5.06763405006044        5.57597026222693        9.45294433049084
C           -6.04725248376755        7.56537970103075        6.69689516327624
C           -5.22464225668111        8.32238238698078        5.65759966148651
C           -6.94444234688240        4.92324433342114        5.63859123449277
C           -6.85337112842937        5.36914799879017        4.18329612380883
H            0.92412895148509       -0.11453601486835       -0.36109481402338
H            1.54133660878247       -1.76157918033369       -0.31033308294615
H            2.64538278638133       -0.40336500955126       -0.09870998770681
H            0.39520930455706       -1.14743226191353        1.83061888376036
H            2.08456671696027       -1.57800926482192        2.05618983757424
H            1.58077074941389        0.36089191215036        3.40835396995498
H            2.73962618509598        0.77849340141997        2.15415691102702
H            1.11696271272004        2.56175845261541        2.43775570015013
H            1.02569309931868        1.88061704952133        0.82394371122260
H           -1.20183552598350        2.33348796351282        1.64308768768653
H           -0.98653624634055        0.61005688316677        1.40321930211767
H           -2.23104137375314        0.97815961434027        3.43309840487235
H           -0.68053050267127        0.25248229596248        3.81251718513150
H           -1.22365666221101        1.95726663448643        5.44740141121671
H            0.22629303418338        2.38982331588351        4.56144329204473
H           -1.16554436425431        4.35230001882803        4.90838645184091
H           -0.97601950781375        4.00589456488147        3.20142866717529
H           -3.25032290992806        4.68515547156404        3.64163252149578
H           -3.20469924602305        3.03394516652463        3.06130397685679
H           -4.83775723565811        3.19635443478098        4.82577554185244
H           -3.52245851512029        2.13873522790807        5.30638620467651
H           -4.11535442198845        3.46192381613124        7.21005541102027
H           -2.51630422382730        3.93191700944702        6.65846645779027
H           -3.42806717871141        6.04152620186709        7.03019733629870
H           -3.81218324365763        5.83382345530603        5.32272525083910
H           -7.09743980926599        5.60089518432156        8.69600571047058
H           -6.23780349214535        4.08771559316099        8.39945237130257
H           -4.90122420808636        6.65111165505375        9.45581695749856
H           -5.39777028790157        5.28906009373449       10.44807618373929
H           -4.12105287015057        5.07773603091811        9.25953884318308
H           -7.11738570095375        7.70191521329037        6.51343911547998
H           -5.83121628086827        7.95614764728521        7.69503652341928
H           -5.37539603767534        7.92792050107911        4.65608994695144
H           -5.52697969388831        9.36680620189668        5.65405547869628
H           -4.16372086065699        8.28580731080805        5.89101897072883
H           -6.77813581667677        3.84623544433222        5.72670659138666
H           -7.93911999074125        5.13847339275604        6.04234626275919
H           -5.85710135496306        5.20488454117022        3.77885863531869
H           -7.55580911850000        4.79598264759205        3.58296430167440
H           -7.10846937850307        6.42066717427365        4.07755281424792

          :  Hamiltonian                  GFN2-xTB          :
         :: total energy             -61.096363864164 Eh    ::
         :: gradient norm              0.000284187183 Eh/a0 ::
         :: HOMO-LUMO gap              4.865715856911 eV    ::
         :: SCC energy               -62.000721523893 Eh    ::
         :: -> dispersion             -0.050607529640 Eh    ::
         :: repulsion energy           0.904357659728 Eh    ::

    * Orbital Energies and Occupations

         #    Occupation            Energy/Eh            Energy/eV
      -------------------------------------------------------------
         1        2.0000           -0.8505336             -23.1442
       ...           ...                  ...                  ...
        46        2.0000           -0.5433540             -14.7854
        47        2.0000           -0.5380161             -14.6402
        48        2.0000           -0.5306546             -14.4398
        49        2.0000           -0.5280761             -14.3697
        50        2.0000           -0.5173874             -14.0788
        51        2.0000           -0.5136837             -13.9780
        52        2.0000           -0.5063087             -13.7774
        53        2.0000           -0.4965757             -13.5125
        54        2.0000           -0.4927614             -13.4087
        55        2.0000           -0.4890861             -13.3087
        56        2.0000           -0.4741453             -12.9022
        57        2.0000           -0.4704562             -12.8018
        58        2.0000           -0.4682929             -12.7429 (HOMO)
        59                         -0.2894811              -7.8772 (LUMO)
        60                         -0.2811503              -7.6505
        61                         -0.2710340              -7.3752
        62                         -0.1929510              -5.2505
        63                         -0.1229336              -3.3452
        64                         -0.0760598              -2.0697
        65                         -0.0465999              -1.2680
        66                         -0.0375832              -1.0227
        67                         -0.0370413              -1.0079
        68                         -0.0275842              -0.7506
        69                         -0.0255595              -0.6955
       ...                                ...                  ...
       121                          0.7601970              20.6860
      -------------------------------------------------------------
                  HL-Gap            0.1788118 Eh            4.8657 eV

     #   Z          covCN         q      C6AA      α(0)
     1   6 C        3.751    -0.103    22.520     6.768
     2   6 C        3.799    -0.052    21.517     6.605
     3   6 C        3.800    -0.058    21.613     6.619
     4   6 C        3.800    -0.058    21.612     6.619
     5   6 C        3.800    -0.057    21.608     6.618
     6   6 C        3.800    -0.058    21.624     6.621
     7   6 C        3.800    -0.059    21.639     6.623
     8   6 C        3.800    -0.060    21.661     6.627
     9   6 C        3.800    -0.060    21.653     6.625
    10   6 C        3.800    -0.066    21.760     6.642
    11   6 C        3.850    -0.063    21.673     6.622
    12   6 C        3.750    -0.070    21.910     6.676
    13  15 P        3.965     0.181   152.418    22.177
    14   6 C        3.749    -0.073    21.959     6.683
    15   6 C        3.818    -0.117    22.713     6.783
    16   6 C        3.749    -0.071    21.929     6.679
    17   6 C        3.804    -0.118    22.748     6.790
    18   6 C        3.749    -0.068    21.873     6.670
    19   6 C        3.814    -0.115    22.687     6.779
    20   1 H        0.925     0.033     2.539     2.492
    21   1 H        0.925     0.034     2.531     2.488
    22   1 H        0.925     0.036     2.507     2.476
    23   1 H        0.924     0.029     2.601     2.522
    24   1 H        0.924     0.030     2.593     2.518
    25   1 H        0.924     0.027     2.634     2.538
    26   1 H        0.924     0.032     2.562     2.503
    27   1 H        0.924     0.026     2.646     2.544
    28   1 H        0.924     0.035     2.513     2.479
    29   1 H        0.924     0.024     2.675     2.558
    30   1 H        0.924     0.037     2.495     2.470
    31   1 H        0.924     0.023     2.687     2.563
    32   1 H        0.924     0.039     2.465     2.455
    33   1 H        0.924     0.023     2.687     2.563
    34   1 H        0.924     0.041     2.437     2.441
    35   1 H        0.924     0.023     2.692     2.566
    36   1 H        0.924     0.044     2.395     2.420
    37   1 H        0.924     0.017     2.786     2.610
    38   1 H        0.924     0.050     2.323     2.383
    39   1 H        0.924     0.031     2.573     2.508
    40   1 H        0.925     0.058     2.220     2.330
    41   1 H        0.924     0.046     2.369     2.407
    42   1 H        0.924     0.070     2.085     2.258
    43   1 H        0.929     0.092     1.859     2.132
    44   1 H        0.927     0.103     1.758     2.073
    45   1 H        0.927     0.089     1.888     2.149
    46   1 H        0.926     0.089     1.891     2.150
    47   1 H        0.925     0.059     2.206     2.323
    48   1 H        0.925     0.077     2.006     2.215
    49   1 H        0.925     0.066     2.135     2.285
    50   1 H        0.927     0.090     1.881     2.145
    51   1 H        0.926     0.089     1.884     2.147
    52   1 H        0.925     0.063     2.169     2.303
    53   1 H        0.925     0.076     2.018     2.221
    54   1 H        0.925     0.062     2.171     2.304
    55   1 H        0.926     0.092     1.863     2.134
    56   1 H        0.927     0.089     1.892     2.151
    57   1 H        0.925     0.065     2.144     2.290
    58   1 H        0.925     0.075     2.028     2.227
    59   1 H        0.925     0.063     2.170     2.303

Wiberg/Mayer (AO) data.
largest (>0.10) Wiberg bond orders for each atom

     #   Z sym  total        # sym  WBO       # sym  WBO       # sym  WBO
 ---------------------------------------------------------------------------
     1   6 C    3.997 --     2 C    1.020    22 H    0.987    21 H    0.987
                            20 H    0.986
     2   6 C    3.998 --     1 C    1.020     3 C    1.008    24 H    0.978
                            23 H    0.976
     3   6 C    3.997 --     2 C    1.008     4 C    1.008    26 H    0.977
                            25 H    0.976
     4   6 C    3.997 --     5 C    1.008     3 C    1.008    27 H    0.975
                            28 H    0.975
     5   6 C    3.997 --     4 C    1.008     6 C    1.008    29 H    0.975
                            30 H    0.974
     6   6 C    3.997 --     5 C    1.008     7 C    1.007    31 H    0.975
                            32 H    0.974
     7   6 C    3.997 --     6 C    1.007     8 C    1.007    33 H    0.976
                            34 H    0.974
     8   6 C    3.996 --     7 C    1.007     9 C    1.007    35 H    0.975
                            36 H    0.973
     9   6 C    3.995 --     8 C    1.007    10 C    1.007    38 H    0.972
                            37 H    0.971
    10   6 C    3.993 --     9 C    1.007    11 C    1.006    40 H    0.970
                            39 H    0.969
    11   6 C    3.986 --    10 C    1.006    12 C    0.982    42 H    0.967
                            41 H    0.966
    12   6 C    3.984 --    13 P    1.015    11 C    0.982    43 H    0.927
                            44 H    0.924
    13  15 P    4.566 --    12 C    1.015    14 C    1.010    18 C    1.007
                            16 C    1.006
    14   6 C    3.990 --    13 P    1.010    15 C    1.003    46 H    0.937
                            45 H    0.934
    15   6 C    3.983 --    14 C    1.003    49 H    0.980    48 H    0.977
                            47 H    0.977
    16   6 C    3.989 --    13 P    1.006    17 C    1.002    51 H    0.936
                            50 H    0.936
    17   6 C    3.985 --    16 C    1.002    54 H    0.981    52 H    0.978
                            53 H    0.978
    18   6 C    3.989 --    13 P    1.007    19 C    1.002    56 H    0.933
                            55 H    0.933
    19   6 C    3.983 --    18 C    1.002    59 H    0.978    58 H    0.978
                            57 H    0.977
    20   1 H    0.999 --     1 C    0.986
    21   1 H    0.999 --     1 C    0.987
    22   1 H    0.999 --     1 C    0.987
    23   1 H    0.999 --     2 C    0.976
    24   1 H    0.999 --     2 C    0.978
    25   1 H    0.999 --     3 C    0.976
    26   1 H    0.999 --     3 C    0.977
    27   1 H    0.999 --     4 C    0.975
    28   1 H    0.999 --     4 C    0.975
    29   1 H    0.999 --     5 C    0.975
    30   1 H    0.999 --     5 C    0.974
    31   1 H    0.999 --     6 C    0.975
    32   1 H    0.998 --     6 C    0.974
    33   1 H    0.999 --     7 C    0.976
    34   1 H    0.998 --     7 C    0.974
    35   1 H    0.999 --     8 C    0.975
    36   1 H    0.998 --     8 C    0.973
    37   1 H    1.000 --     9 C    0.971
    38   1 H    0.997 --     9 C    0.972
    39   1 H    0.999 --    10 C    0.969
    40   1 H    0.996 --    10 C    0.970
    41   1 H    0.998 --    11 C    0.966
    42   1 H    0.995 --    11 C    0.967
    43   1 H    0.991 --    12 C    0.927
    44   1 H    0.989 --    12 C    0.924
    45   1 H    0.992 --    14 C    0.934
    46   1 H    0.992 --    14 C    0.937
    47   1 H    0.996 --    15 C    0.977
    48   1 H    0.993 --    15 C    0.977
    49   1 H    0.996 --    15 C    0.980
    50   1 H    0.992 --    16 C    0.936
    51   1 H    0.992 --    16 C    0.936
    52   1 H    0.996 --    17 C    0.978
    53   1 H    0.994 --    17 C    0.978
    54   1 H    0.996 --    17 C    0.981
    55   1 H    0.991 --    18 C    0.933
    56   1 H    0.992 --    18 C    0.933
    57   1 H    0.996 --    19 C    0.977
    58   1 H    0.994 --    19 C    0.978
    59   1 H    0.996 --    19 C    0.978
 ---------------------------------------------------------------------------

molecular dipole:
                 x           y           z       tot (Debye)
 q only:      -10.204      10.574      12.257
   full:      -10.347      10.619      12.376      49.089

           -------------------------------------------------
          | TOTAL ENERGY              -61.096363864164 Eh   |
          | GRADIENT NORM               0.000284187183 Eh/α |
          | HOMO-LUMO GAP               4.865715856911 eV   |
           -------------------------------------------------

 * finished run on 2024/12/20 at 06:55:23.490
