   * xtb version 6.7.1 (edcfbbe) compiled by 'conda@3ef47c1a292c' on 2024-11-25

   ID    Z sym.   atoms
    1    6 C      1, 3, 4, 6-9, 11, 14, 15, 17, 18
    2    7 N      2, 5, 13
    3   16 S      10, 12
    4    8 O      16
    5    1 H      19-38

          program call               : xtb C0750.xyz --opt --namespace C0750 --charge +1
          :  Hamiltonian                  GFN2-xTB          :
 * total energy  :   -54.8472443 Eh     change       -0.7028547E-09 Eh
 * total energy  :   -54.8600651 Eh     change       -0.1282085E-01 Eh
 * total energy  :   -54.8653440 Eh     change       -0.5278916E-02 Eh
 * total energy  :   -54.8671458 Eh     change       -0.1801719E-02 Eh
 * total energy  :   -54.8682023 Eh     change       -0.1056519E-02 Eh
 * total energy  :   -54.8688284 Eh     change       -0.6261119E-03 Eh
 * total energy  :   -54.8694882 Eh     change       -0.6598166E-03 Eh
 * total energy  :   -54.8701820 Eh     change       -0.6937954E-03 Eh
 * total energy  :   -54.8708905 Eh     change       -0.7084659E-03 Eh
 * total energy  :   -54.8714525 Eh     change       -0.5620545E-03 Eh
 * total energy  :   -54.8846218 Eh     change       -0.2197932E-04 Eh
 * total energy  :   -54.8846426 Eh     change       -0.2079730E-04 Eh
 * total energy  :   -54.8846582 Eh     change       -0.1561960E-04 Eh
 * total energy  :   -54.8846838 Eh     change       -0.2554832E-04 Eh
 * total energy  :   -54.8846949 Eh     change       -0.1109943E-04 Eh
 * total energy  :   -54.8847124 Eh     change       -0.1747033E-04 Eh
 * total energy  :   -54.8847233 Eh     change       -0.1091109E-04 Eh
 * total energy  :   -54.8847375 Eh     change       -0.1424192E-04 Eh
 * total energy  :   -54.8847418 Eh     change       -0.4334532E-05 Eh
   *** GEOMETRY OPTIMIZATION CONVERGED AFTER 87 ITERATIONS ***

 final structure:
================
38
 xtb: 6.7.1 (edcfbbe)
C            1.28613117346243        0.16351782063940       -0.04022456543034
N            0.61529364557975       -0.04253819286227        1.21338354347684
C           -0.57093532865851       -0.68464804695939        1.38038830361910
C           -0.90268123797338       -0.58270407973445        2.69639860555426
N            0.08527619260322        0.12146562650614        3.31323272808268
C            0.99169860107405        0.44015542728435        2.39271741540635
C            0.09365777443335        0.45761404089625        4.72139415403795
C            0.76183244537073        1.79491682517283        5.03819980591056
C            0.17191584467341        2.98185614831918        4.28674325489268
S           -1.62625197238260        3.15504445082486        4.53258756124107
C           -2.26467328303690        3.04111595092534        2.86952018694822
S           -1.30541189692054        2.59491063687622        1.59725634853318
N           -3.56156592734825        3.29364329841857        2.74287462584279
C           -4.22743138887911        3.32330436781701        1.45369378844615
C           -4.70321104605207        4.75537397142710        1.17287694271590
O           -5.54841585306494        5.21153258039542        2.19836057028764
C           -4.89715349561383        5.19756766706789        3.44068857019936
C           -4.43114774585878        3.77582296083402        3.79656188853490
H            0.84782727333981        1.02208235651549       -0.55290489229425
H            1.17307562046401       -0.71627169371984       -0.67002408827570
H            2.34403458277555        0.35613568008382        0.12748123350506
H           -1.09490505001332       -1.14871229491364        0.57049441175242
H           -1.75965449934956       -0.95212779928435        3.22116821884787
H            1.89212110335662        0.99578008011464        2.56363505634347
H           -0.94763434789876        0.48895592499444        5.05195603601558
H            0.60412667778916       -0.33834605541946        5.27340359582368
H            0.64836043139317        1.95712499705238        6.11132115864574
H            1.83211358962216        1.75212725996602        4.82812490513749
H            0.61856901955302        3.90624161750698        4.65019897316957
H            0.31562092195881        2.90793953318835        3.20523755818626
H           -5.09197728815134        2.65435485486747        1.49822186277641
H           -3.54572633580879        2.98759158426093        0.67272281209858
H           -3.82903076030916        5.41673861085018        1.07346522379881
H           -5.28586104971307        4.78537936999072        0.25187405888825
H           -5.61825585869496        5.55395943409606        4.17665903361466
H           -4.02624433983052        5.87124983996256        3.42722432293607
H           -5.30193495643548        3.11465180448316        3.84833660952186
H           -3.92158123545099        3.77406344154931        4.75851018120053

          :  Hamiltonian                  GFN2-xTB          :
         :: total energy             -54.884741841972 Eh    ::
         :: gradient norm              0.000975157407 Eh/a0 ::
         :: HOMO-LUMO gap              2.120402821207 eV    ::
         :: SCC energy               -55.545654464657 Eh    ::
         :: -> dispersion             -0.040888700161 Eh    ::
         :: repulsion energy           0.660912622685 Eh    ::

    * Orbital Energies and Occupations

         #    Occupation            Energy/Eh            Energy/eV
      -------------------------------------------------------------
         1        2.0000           -0.8808384             -23.9688
       ...           ...                  ...                  ...
        38        2.0000           -0.5932206             -16.1424
        39        2.0000           -0.5865375             -15.9605
        40        2.0000           -0.5840884             -15.8939
        41        2.0000           -0.5812399             -15.8163
        42        2.0000           -0.5742055             -15.6249
        43        2.0000           -0.5722914             -15.5728
        44        2.0000           -0.5636545             -15.3378
        45        2.0000           -0.5523453             -15.0301
        46        2.0000           -0.5454848             -14.8434
        47        2.0000           -0.5174510             -14.0806
        48        2.0000           -0.4922919             -13.3959
        49        2.0000           -0.4801534             -13.0656
        50        2.0000           -0.4696878             -12.7809 (HOMO)
        51                         -0.3917645             -10.6605 (LUMO)
        52                         -0.3705906             -10.0843
        53                         -0.3558115              -9.6821
        54                         -0.3238633              -8.8128
        55                         -0.2825759              -7.6893
        56                         -0.2458793              -6.6907
        57                         -0.1741256              -4.7382
        58                         -0.1492183              -4.0604
        59                         -0.1355694              -3.6890
        60                         -0.1196183              -3.2550
        61                         -0.1181851              -3.2160
       ...                                ...                  ...
       102                          0.5247819              14.2800
      -------------------------------------------------------------
                  HL-Gap            0.0779234 Eh            2.1204 eV

     #   Z          covCN         q      C6AA      α(0)
     1   6 C        3.693    -0.086    22.332     6.761
     2   7 N        2.871     0.089    19.693     6.591
     3   6 C        3.075    -0.002    27.986     8.674
     4   6 C        3.081    -0.003    28.003     8.675
     5   7 N        2.867     0.076    19.922     6.629
     6   6 C        3.105     0.052    26.699     8.466
     7   6 C        3.741    -0.025    21.101     6.554
     8   6 C        3.825    -0.071    21.832     6.649
     9   6 C        3.795    -0.019    20.919     6.513
    10  16 S        2.157    -0.153   147.521    20.442
    11   6 C        2.874     0.158    24.578     8.127
    12  16 S        1.175    -0.468   160.069    21.391
    13   7 N        2.856    -0.039    21.994     6.965
    14   6 C        3.760    -0.009    20.790     6.500
    15   6 C        3.721     0.074    19.454     6.299
    16   8 O        1.702    -0.289    18.807     5.855
    17   6 C        3.721     0.074    19.451     6.299
    18   6 C        3.758    -0.016    20.904     6.519
    19   1 H        0.924     0.113     1.670     2.021
    20   1 H        0.925     0.104     1.749     2.068
    21   1 H        0.925     0.097     1.810     2.104
    22   1 H        0.926     0.108     1.716     2.048
    23   1 H        0.926     0.101     1.775     2.083
    24   1 H        0.926     0.112     1.680     2.027
    25   1 H        0.924     0.098     1.801     2.099
    26   1 H        0.924     0.088     1.895     2.152
    27   1 H        0.924     0.083     1.948     2.183
    28   1 H        0.924     0.063     2.166     2.302
    29   1 H        0.925     0.073     2.051     2.239
    30   1 H        0.925     0.081     1.968     2.194
    31   1 H        0.924     0.068     2.104     2.269
    32   1 H        0.925     0.080     1.977     2.199
    33   1 H        0.923     0.040     2.445     2.446
    34   1 H        0.924     0.076     2.020     2.223
    35   1 H        0.924     0.077     2.010     2.217
    36   1 H        0.923     0.040     2.453     2.449
    37   1 H        0.924     0.076     2.026     2.226
    38   1 H        0.925     0.077     2.006     2.215

Wiberg/Mayer (AO) data.
largest (>0.10) Wiberg bond orders for each atom

     #   Z sym  total        # sym  WBO       # sym  WBO       # sym  WBO
 ---------------------------------------------------------------------------
     1   6 C    3.934 --     2 N    0.991    21 H    0.974    20 H    0.970
                            19 H    0.956
     2   7 N    3.728 --     6 C    1.363     3 C    1.232     1 C    0.991
     3   6 C    3.950 --     4 C    1.589     2 N    1.232    22 H    0.961
     4   6 C    3.951 --     3 C    1.589     5 N    1.230    23 H    0.962
     5   7 N    3.719 --     6 C    1.358     4 C    1.230     7 C    0.970
     6   6 C    3.948 --     2 N    1.363     5 N    1.358    24 H    0.953
     7   6 C    3.943 --     8 C    1.002     5 N    0.970    25 H    0.960
                            26 H    0.953
     8   6 C    3.988 --     9 C    1.013     7 C    1.002    27 H    0.967
                            28 H    0.966
     9   6 C    3.967 --     8 C    1.013    10 S    0.985    29 H    0.969
                            30 H    0.941
    10  16 S    2.360 --    11 C    1.053     9 C    0.985    12 S    0.144
    11   6 C    3.951 --    12 S    1.438    13 N    1.362    10 S    1.053
    12  16 S    1.878 --    11 C    1.438    13 N    0.161    10 S    0.144
    13   7 N    3.585 --    11 C    1.362    18 C    0.982    14 C    0.976
                            12 S    0.161
    14   6 C    3.959 --    15 C    0.979    13 N    0.976    32 H    0.962
                            31 H    0.962
    15   6 C    3.955 --    16 O    0.994    14 C    0.979    34 H    0.965
                            33 H    0.965
    16   8 O    2.107 --    17 C    0.999    15 C    0.994
    17   6 C    3.956 --    16 O    0.999    18 C    0.977    35 H    0.965
                            36 H    0.965
    18   6 C    3.964 --    13 N    0.982    17 C    0.977    37 H    0.960
                            38 H    0.955
    19   1 H    0.987 --     1 C    0.956
    20   1 H    0.989 --     1 C    0.970
    21   1 H    0.990 --     1 C    0.974
    22   1 H    0.988 --     3 C    0.961
    23   1 H    0.989 --     4 C    0.962
    24   1 H    0.987 --     6 C    0.953
    25   1 H    0.990 --     7 C    0.960
    26   1 H    0.992 --     7 C    0.953
    27   1 H    0.993 --     8 C    0.967
    28   1 H    0.996 --     8 C    0.966
    29   1 H    0.994 --     9 C    0.969
    30   1 H    0.993 --     9 C    0.941
    31   1 H    0.995 --    14 C    0.962
    32   1 H    0.994 --    14 C    0.962
    33   1 H    0.998 --    15 C    0.965
    34   1 H    0.993 --    15 C    0.965
    35   1 H    0.993 --    17 C    0.965
    36   1 H    0.998 --    17 C    0.965
    37   1 H    0.994 --    18 C    0.960
    38   1 H    0.994 --    18 C    0.955
 ---------------------------------------------------------------------------

molecular dipole:
                 x           y           z       tot (Debye)
 q only:       -0.629       1.108       5.145
   full:       -0.517       1.317       5.160      13.600

           -------------------------------------------------
          | TOTAL ENERGY              -54.884741841972 Eh   |
          | GRADIENT NORM               0.000975157407 Eh/α |
          | HOMO-LUMO GAP               2.120402821207 eV   |
           -------------------------------------------------

 * finished run on 2024/12/20 at 06:55:20.450
