   * xtb version 6.7.1 (edcfbbe) compiled by 'conda@3ef47c1a292c' on 2024-11-25

   ID    Z sym.   atoms
    1    6 C      1-3, 6-16, 18-22
    2    8 O      4, 5
    3    7 N      17
    4    1 H      23-54

          program call               : xtb C0753.xyz --opt --namespace C0753 --charge +1
          :  Hamiltonian                  GFN2-xTB          :
 * total energy  :   -67.6842599 Eh     change       -0.9884857E-08 Eh
 * total energy  :   -67.6892340 Eh     change       -0.4974098E-02 Eh
 * total energy  :   -67.6899511 Eh     change       -0.7171386E-03 Eh
 * total energy  :   -67.6901019 Eh     change       -0.1507870E-03 Eh
 * total energy  :   -67.6902512 Eh     change       -0.1492679E-03 Eh
 * total energy  :   -67.6903649 Eh     change       -0.1137339E-03 Eh
 * total energy  :   -67.6904901 Eh     change       -0.1251907E-03 Eh
 * total energy  :   -67.6905914 Eh     change       -0.1013214E-03 Eh
 * total energy  :   -67.6906512 Eh     change       -0.5977771E-04 Eh
 * total energy  :   -67.6907068 Eh     change       -0.5557535E-04 Eh
 * total energy  :   -67.6921208 Eh     change       -0.1452732E-04 Eh
 * total energy  :   -67.6921131 Eh     change        0.7720177E-05 Eh
 * total energy  :   -67.6921330 Eh     change       -0.1990540E-04 Eh
 * total energy  :   -67.6921393 Eh     change       -0.6365109E-05 Eh
 * total energy  :   -67.6921452 Eh     change       -0.5899144E-05 Eh
 * total energy  :   -67.6921533 Eh     change       -0.8073856E-05 Eh
 * total energy  :   -67.6921576 Eh     change       -0.4291271E-05 Eh
 * total energy  :   -67.6921642 Eh     change       -0.6560657E-05 Eh
 * total energy  :   -67.6921681 Eh     change       -0.3983441E-05 Eh
   *** GEOMETRY OPTIMIZATION CONVERGED AFTER 63 ITERATIONS ***

 final structure:
================
54
 xtb: 6.7.1 (edcfbbe)
C            0.44589746892295        0.40690205120796       -0.25163011139934
C            1.32708350821013        1.49956093832152       -0.85863560660190
C            1.67493547969757        1.14858085151197       -2.28629366753571
O            1.19837229821892        1.67547970590933       -3.25994315728014
O            2.57299347998566        0.16455264301667       -2.32773708831315
C            2.97718358486471       -0.33327307555942       -3.60176371114558
C            2.37150292532758       -1.70927363783073       -3.87685022766411
C            0.84427635150587       -1.71284421241338       -3.97401899466043
C            0.25785352814737       -0.82764978530112       -5.07606471214389
C            0.74654635354396       -1.14096112925623       -6.49061232805267
C            0.41157281264031       -2.54831925582953       -6.99027752904394
C           -1.08289105053974       -2.87410860602758       -7.03743440930091
C           -1.92744274964845       -1.91237570173667       -7.87784309424053
C           -1.47844726849083       -1.76670739165369       -9.33415031974433
C           -1.50442033944164       -3.06057294236002      -10.14641829689041
C           -2.91525767962969       -3.62299584569711      -10.38033956178247
N           -3.67647029730294       -2.73763700709493      -11.24077967296358
C           -3.53759014421776       -2.83203272835930      -12.56941180419276
C           -4.17799400113013       -1.95681667761696      -13.41978140618206
C           -4.97660078786564       -0.95200294516551      -12.88570940019553
C           -5.10575311002175       -0.86811124282174      -11.50573302745268
C           -4.44101462360253       -1.77731127360861      -10.70799708358254
H           -0.47954361482199        0.30717932792758       -0.81601760263675
H            0.19687582366617        0.66018288070933        0.77550270350361
H            0.96860500352195       -0.54689127962831       -0.25756996757292
H            0.80235032708909        2.45477123806288       -0.85704135564519
H            2.25024472165595        1.58690711684418       -0.28544283222557
H            2.69058190790500        0.38850574928585       -4.37178036055773
H            4.06725435522697       -0.40987937373546       -3.56298207236589
H            2.81250559231420       -2.08929804787068       -4.79916075394115
H            2.66654271686768       -2.37877490655742       -3.06616175502100
H            0.51745002902503       -2.74547641219516       -4.11576702101490
H            0.43327497827817       -1.37516242184816       -3.01976176309102
H           -0.82983890000356       -0.91906435916584       -5.03667245112614
H            0.49011939410284        0.21517294326414       -4.85620826724699
H            0.31924340310781       -0.40025424421669       -7.17010941123121
H            1.82973758071194       -1.01623942919314       -6.53318069879926
H            0.84649183868182       -2.67507403148249       -7.98483851422769
H            0.89224153894929       -3.28132078471959       -6.34084236308752
H           -1.20387612666824       -3.89504262931662       -7.40890193844947
H           -1.48001428987077       -2.86160338622902       -6.02173033988876
H           -2.96811189504893       -2.24613409083023       -7.82966724441629
H           -1.89397457464687       -0.92351088451674       -7.42001678233828
H           -2.09475157301972       -1.00616303728375       -9.82502214240903
H           -0.45546821383083       -1.39133826571624       -9.34406198499341
H           -1.02727867366942       -2.88874820931162      -11.11392517876769
H           -0.92908232529311       -3.82505878270616       -9.62625262852154
H           -2.84406765739228       -4.60245114247312      -10.85663934857838
H           -3.43355643603901       -3.73320133896816       -9.42757202139492
H           -2.90632072969630       -3.62443075885196      -12.94398253227461
H           -4.05265778092363       -2.06075367902134      -14.48549413269489
H           -5.48715732093511       -0.25431632511582      -13.53025489650463
H           -5.71635322071983       -0.10594628856079      -11.04885426148794
H           -4.52529161768078       -1.74996787821891       -9.63183487062278

          :  Hamiltonian                  GFN2-xTB          :
         :: total energy             -67.692168139809 Eh    ::
         :: gradient norm              0.000606013694 Eh/a0 ::
         :: HOMO-LUMO gap              0.239987007247 eV    ::
         :: SCC energy               -68.656526591375 Eh    ::
         :: -> dispersion             -0.046813103897 Eh    ::
         :: repulsion energy           0.964358451566 Eh    ::

    * Orbital Energies and Occupations

         #    Occupation            Energy/Eh            Energy/eV
      -------------------------------------------------------------
         1        2.0000           -0.8753286             -23.8189
       ...           ...                  ...                  ...
        50        2.0000           -0.5388001             -14.6615
        51        2.0000           -0.5312205             -14.4552
        52        2.0000           -0.5242947             -14.2668
        53        2.0000           -0.5224062             -14.2154
        54        2.0000           -0.5172823             -14.0760
        55        2.0000           -0.5150206             -14.0144
        56        2.0000           -0.5087519             -13.8438
        57        2.0000           -0.4993622             -13.5883
        58        2.0000           -0.4940731             -13.4444
        59        2.0000           -0.4899368             -13.3319
        60        2.0000           -0.4870125             -13.2523
        61        2.0000           -0.4831228             -13.1464
        62        1.9809           -0.4631290             -12.6024 (HOMO)
        63        0.0191           -0.4543096             -12.3624 (LUMO)
        64                         -0.4239858             -11.5372
        65                         -0.3035542              -8.2601
        66                         -0.2804316              -7.6309
        67                         -0.1644769              -4.4756
        68                         -0.0794518              -2.1620
        69                         -0.0621616              -1.6915
        70                         -0.0463492              -1.2612
        71                         -0.0443712              -1.2074
        72                         -0.0349825              -0.9519
        73                         -0.0247912              -0.6746
       ...                                ...                  ...
       120                          0.5990486              16.3009
      -------------------------------------------------------------
                  HL-Gap            0.0088194 Eh            0.2400 eV

     #   Z          covCN         q      C6AA      α(0)
     1   6 C        3.754    -0.100    22.465     6.759
     2   6 C        3.802    -0.087    22.166     6.703
     3   6 C        2.715     0.362    20.858     7.476
     4   8 O        0.856    -0.417    22.023     6.292
     5   8 O        1.704    -0.258    18.268     5.771
     6   6 C        3.697     0.072    19.545     6.324
     7   6 C        3.799    -0.065    21.755     6.641
     8   6 C        3.800    -0.054    21.546     6.609
     9   6 C        3.800    -0.067    21.777     6.644
    10   6 C        3.800    -0.060    21.663     6.627
    11   6 C        3.800    -0.061    21.677     6.629
    12   6 C        3.800    -0.062    21.684     6.630
    13   6 C        3.800    -0.062    21.695     6.632
    14   6 C        3.800    -0.066    21.773     6.644
    15   6 C        3.801    -0.069    21.818     6.650
    16   6 C        3.759    -0.036    21.271     6.575
    17   7 N        2.750     0.113    19.311     6.527
    18   6 C        2.893     0.031    27.298     8.566
    19   6 C        2.915    -0.011    28.283     8.721
    20   6 C        2.925     0.012    27.754     8.639
    21   6 C        2.915    -0.011    28.299     8.723
    22   6 C        2.891     0.033    27.255     8.559
    23   1 H        0.925     0.043     2.406     2.426
    24   1 H        0.925     0.054     2.267     2.354
    25   1 H        0.925     0.050     2.322     2.383
    26   1 H        0.925     0.068     2.112     2.273
    27   1 H        0.925     0.068     2.109     2.271
    28   1 H        0.924     0.062     2.172     2.305
    29   1 H        0.924     0.053     2.282     2.363
    30   1 H        0.924     0.043     2.405     2.425
    31   1 H        0.924     0.049     2.329     2.386
    32   1 H        0.924     0.032     2.560     2.502
    33   1 H        0.924     0.036     2.499     2.472
    34   1 H        0.924     0.029     2.607     2.525
    35   1 H        0.924     0.061     2.183     2.310
    36   1 H        0.924     0.028     2.609     2.526
    37   1 H        0.924     0.036     2.509     2.477
    38   1 H        0.924     0.025     2.665     2.553
    39   1 H        0.924     0.041     2.431     2.438
    40   1 H        0.924     0.025     2.665     2.553
    41   1 H        0.924     0.047     2.362     2.403
    42   1 H        0.924     0.017     2.781     2.608
    43   1 H        0.924     0.053     2.278     2.360
    44   1 H        0.924     0.023     2.694     2.567
    45   1 H        0.925     0.068     2.109     2.271
    46   1 H        0.924     0.050     2.319     2.382
    47   1 H        0.925     0.084     1.933     2.174
    48   1 H        0.924     0.087     1.904     2.158
    49   1 H        0.925     0.096     1.823     2.112
    50   1 H        0.926     0.107     1.724     2.054
    51   1 H        0.926     0.106     1.730     2.057
    52   1 H        0.926     0.105     1.738     2.062
    53   1 H        0.926     0.106     1.729     2.056
    54   1 H        0.926     0.111     1.687     2.031

Wiberg/Mayer (AO) data.
largest (>0.10) Wiberg bond orders for each atom

     #   Z sym  total        # sym  WBO       # sym  WBO       # sym  WBO
 ---------------------------------------------------------------------------
     1   6 C    3.991 --     2 C    0.997    23 H    0.988    25 H    0.987
                            24 H    0.983
     2   6 C    3.987 --     1 C    0.997    26 H    0.974     3 C    0.968
                            27 H    0.963
     3   6 C    3.911 --     4 O    1.735     5 O    1.147     2 C    0.968
     4   8 O    2.026 --     3 C    1.735     5 O    0.173
     5   8 O    2.320 --     3 C    1.147     6 C    0.940     4 O    0.173
     6   6 C    3.926 --     7 C    0.998    29 H    0.969    28 H    0.964
                             5 O    0.940
     7   6 C    3.994 --     8 C    1.008     6 C    0.998    31 H    0.975
                            30 H    0.971
     8   6 C    3.997 --     7 C    1.008     9 C    1.008    33 H    0.976
                            32 H    0.974
     9   6 C    3.994 --    10 C    1.008     8 C    1.008    34 H    0.974
                            35 H    0.965
    10   6 C    3.996 --     9 C    1.008    11 C    1.007    36 H    0.974
                            37 H    0.974
    11   6 C    3.996 --    12 C    1.008    10 C    1.007    38 H    0.975
                            39 H    0.974
    12   6 C    3.995 --    11 C    1.008    13 C    1.007    40 H    0.975
                            41 H    0.973
    13   6 C    3.995 --    14 C    1.007    12 C    1.007    42 H    0.972
                            43 H    0.972
    14   6 C    3.992 --    15 C    1.010    13 C    1.007    44 H    0.971
                            45 H    0.965
    15   6 C    3.980 --    14 C    1.010    46 H    0.974    16 C    0.971
                            47 H    0.960
    16   6 C    3.933 --    15 C    0.971    17 N    0.966    48 H    0.963
                            49 H    0.959
    17   7 N    3.758 --    22 C    1.323    18 C    1.319    16 C    0.966
    18   6 C    3.953 --    19 C    1.470    17 N    1.319    50 H    0.955
    19   6 C    3.980 --    18 C    1.470    20 C    1.414    51 H    0.960
    20   6 C    3.958 --    21 C    1.424    19 C    1.414    52 H    0.962
    21   6 C    3.980 --    22 C    1.458    20 C    1.424    53 H    0.959
    22   6 C    3.951 --    21 C    1.458    17 N    1.323    54 H    0.952
    23   1 H    0.998 --     1 C    0.988
    24   1 H    0.996 --     1 C    0.983
    25   1 H    0.997 --     1 C    0.987
    26   1 H    0.995 --     2 C    0.974
    27   1 H    0.995 --     2 C    0.963
    28   1 H    0.996 --     6 C    0.964
    29   1 H    0.997 --     6 C    0.969
    30   1 H    0.997 --     7 C    0.971
    31   1 H    0.997 --     7 C    0.975
    32   1 H    0.999 --     8 C    0.974
    33   1 H    0.998 --     8 C    0.976
    34   1 H    0.999 --     9 C    0.974
    35   1 H    0.996 --     9 C    0.965
    36   1 H    0.999 --    10 C    0.974
    37   1 H    0.999 --    10 C    0.974
    38   1 H    0.999 --    11 C    0.975
    39   1 H    0.998 --    11 C    0.974
    40   1 H    0.999 --    12 C    0.975
    41   1 H    0.998 --    12 C    0.973
    42   1 H    1.000 --    13 C    0.972
    43   1 H    0.997 --    13 C    0.972
    44   1 H    0.999 --    14 C    0.971
    45   1 H    0.994 --    14 C    0.965
    46   1 H    0.997 --    15 C    0.974
    47   1 H    0.991 --    15 C    0.960
    48   1 H    0.992 --    16 C    0.963
    49   1 H    0.990 --    16 C    0.959
    50   1 H    0.989 --    18 C    0.955
    51   1 H    0.988 --    19 C    0.960
    52   1 H    0.989 --    20 C    0.962
    53   1 H    0.988 --    21 C    0.959
    54   1 H    0.988 --    22 C    0.952
 ---------------------------------------------------------------------------

molecular dipole:
                 x           y           z       tot (Debye)
 q only:       -6.307      -4.775     -20.437
   full:       -6.275      -4.838     -20.447      55.737

           -------------------------------------------------
          | TOTAL ENERGY              -67.692168139809 Eh   |
          | GRADIENT NORM               0.000606013694 Eh/α |
          | HOMO-LUMO GAP               0.239987007247 eV   |
           -------------------------------------------------

 * finished run on 2024/12/20 at 06:55:28.457
