   * xtb version 6.7.1 (edcfbbe) compiled by 'conda@3ef47c1a292c' on 2024-11-25

   ID    Z sym.   atoms
    1    6 C      1-4, 6-23
    2   15 P      5
    3    1 H      24-47

          program call               : xtb C0755.xyz --opt --namespace C0755 --charge +1
          :  Hamiltonian                  GFN2-xTB          :
 * total energy  :   -61.4414570 Eh     change       -0.6852545E-09 Eh
 * total energy  :   -61.4455766 Eh     change       -0.4119607E-02 Eh
 * total energy  :   -61.4464854 Eh     change       -0.9087909E-03 Eh
 * total energy  :   -61.4467481 Eh     change       -0.2627450E-03 Eh
 * total energy  :   -61.4469509 Eh     change       -0.2027584E-03 Eh
 * total energy  :   -61.4470643 Eh     change       -0.1134268E-03 Eh
 * total energy  :   -61.4471760 Eh     change       -0.1116691E-03 Eh
 * total energy  :   -61.4472764 Eh     change       -0.1004269E-03 Eh
 * total energy  :   -61.4473589 Eh     change       -0.8249073E-04 Eh
 * total energy  :   -61.4474283 Eh     change       -0.6940199E-04 Eh
 * total energy  :   -61.4476910 Eh     change       -0.2032463E-04 Eh
 * total energy  :   -61.4477059 Eh     change       -0.1486809E-04 Eh
 * total energy  :   -61.4477193 Eh     change       -0.1338023E-04 Eh
 * total energy  :   -61.4477294 Eh     change       -0.1016467E-04 Eh
 * total energy  :   -61.4477401 Eh     change       -0.1069572E-04 Eh
 * total energy  :   -61.4477454 Eh     change       -0.5249210E-05 Eh
 * total energy  :   -61.4477514 Eh     change       -0.6029910E-05 Eh
 * total energy  :   -61.4477581 Eh     change       -0.6630763E-05 Eh
 * total energy  :   -61.4477619 Eh     change       -0.3892147E-05 Eh
   *** GEOMETRY OPTIMIZATION CONVERGED AFTER 25 ITERATIONS ***

 final structure:
================
47
 xtb: 6.7.1 (edcfbbe)
C            1.69117040181442       -0.46953654166642       -0.16525830649385
C            1.03877023678278       -1.65788623988025        0.53010105707988
C            1.27548656756146       -1.67997902364884        2.04036013667660
C            0.55691950088446       -0.56824194421080        2.80371340831851
P           -1.27489570422037       -0.66750934841822        2.84153513398415
C           -1.81573448806777       -2.32104031595542        3.32869347455253
C           -2.43734056924098       -2.51998394017926        4.55893785989963
C           -2.83234123413956       -3.79321707551164        4.92997848749124
C           -2.61270721572749       -4.86638023376340        4.08147424141207
C           -2.00426467230737       -4.66789941995319        2.85128660769094
C           -1.60636051752785       -3.40016960894198        2.46873359730943
C           -1.82100849309752        0.53815140766811        4.07203921204244
C           -2.84755842883440        1.42982891720783        3.77287412125819
C           -3.26524902362316        2.34066531826397        4.72736830432933
C           -2.67037673590474        2.36091651860357        5.97852955033692
C           -1.65718323057019        1.46420881815231        6.28305086863034
C           -1.23050458025265        0.55222451314798        5.33586346235225
C           -1.98577155568384       -0.19687920195417        1.25006076275143
C           -1.55923455306497        0.99708594457228        0.66902913911559
C           -2.08851171029001        1.39626067127495       -0.54324308156906
C           -3.04667151327686        0.61495971424990       -1.17250796240090
C           -3.48775933581217       -0.55883864450862       -0.58283463207618
C           -2.96367332561343       -0.96903355765056        0.63105054821943
H            1.24906890577618        0.47300352118878        0.14774735703839
H            1.56302070819485       -0.55350920982401       -1.24094424804388
H            2.75677778459010       -0.44140146257181        0.04804689327236
H           -0.03550102367340       -1.65039849828825        0.32229772518872
H            1.45193109723416       -2.57628864310653        0.10928357019895
H            0.97371271856812       -2.64816858941568        2.44752619950668
H            2.34628723528199       -1.57128473360175        2.22712944991990
H            0.87668346406629       -0.58264160864791        3.85064745781845
H            0.81168098612393        0.41340501708439        2.39395883783875
H           -2.61686915110721       -1.68391070168080        5.21924864743124
H           -3.31392342037739       -3.94584352714241        5.88324334396617
H           -2.92042546249074       -5.85757761035133        4.37549569972983
H           -1.84073302038129       -5.50223807016971        2.18691954904263
H           -1.14603280741077       -3.24916025392683        1.50345730112160
H           -3.31490106123787        1.41180786281976        2.79867055292126
H           -4.05740201905177        3.03442566079959        4.49271619731181
H           -2.99790711502013        3.07317005572206        6.71944576867733
H           -1.19957771628689        1.47466117365537        7.26012205976039
H           -0.44891428712193       -0.15273034459577        5.58340263781254
H           -0.82801062595475        1.61422918067458        1.17316908631839
H           -1.75633124480423        2.31707003117741       -0.99693225988601
H           -3.45501612448289        0.92693963633033       -2.12088725800163
H           -4.24321308615887       -1.15753693970917       -1.06741439391647
H           -3.31148455406186       -1.88109867332078        1.09468383406147

          :  Hamiltonian                  GFN2-xTB          :
         :: total energy             -61.447761945198 Eh    ::
         :: gradient norm              0.000258731182 Eh/a0 ::
         :: HOMO-LUMO gap              4.084983029531 eV    ::
         :: SCC energy               -62.575957659251 Eh    ::
         :: -> dispersion             -0.057095651262 Eh    ::
         :: repulsion energy           1.128195714053 Eh    ::

    * Orbital Energies and Occupations

         #    Occupation            Energy/Eh            Energy/eV
      -------------------------------------------------------------
         1        2.0000           -0.8328706             -22.6636
       ...           ...                  ...                  ...
        46        2.0000           -0.5524433             -15.0327
        47        2.0000           -0.5520796             -15.0229
        48        2.0000           -0.5498224             -14.9614
        49        2.0000           -0.5479148             -14.9095
        50        2.0000           -0.5450716             -14.8322
        51        2.0000           -0.5435744             -14.7914
        52        2.0000           -0.5410981             -14.7240
        53        2.0000           -0.5374637             -14.6251
        54        2.0000           -0.5363252             -14.5942
        55        2.0000           -0.5354176             -14.5695
        56        2.0000           -0.5350072             -14.5583
        57        2.0000           -0.5344577             -14.5433
        58        2.0000           -0.5298892             -14.4190 (HOMO)
        59                         -0.3797688             -10.3340 (LUMO)
        60                         -0.3739449             -10.1756
        61                         -0.3713970             -10.1062
        62                         -0.3547906              -9.6543
        63                         -0.3532296              -9.6119
        64                         -0.3529301              -9.6037
        65                         -0.2741809              -7.4608
        66                         -0.2629626              -7.1556
        67                         -0.2619201              -7.1272
        68                         -0.2239634              -6.0944
        69                         -0.2154552              -5.8628
       ...                                ...                  ...
       121                          0.8468026              23.0427
      -------------------------------------------------------------
                  HL-Gap            0.1501204 Eh            4.0850 eV

     #   Z          covCN         q      C6AA      α(0)
     1   6 C        3.752    -0.110    22.671     6.790
     2   6 C        3.800    -0.056    21.578     6.614
     3   6 C        3.842    -0.062    21.658     6.620
     4   6 C        3.750    -0.061    21.735     6.649
     5  15 P        4.261     0.147   153.849    22.281
     6   6 C        2.920     0.002    27.974     8.673
     7   6 C        2.998    -0.023    28.557     8.766
     8   6 C        2.919    -0.018    28.460     8.748
     9   6 C        2.919    -0.012    28.318     8.726
    10   6 C        2.919    -0.020    28.502     8.755
    11   6 C        3.000    -0.025    28.603     8.773
    12   6 C        2.920    -0.004    28.118     8.696
    13   6 C        2.998    -0.022    28.533     8.762
    14   6 C        2.919    -0.018    28.456     8.748
    15   6 C        2.920    -0.012    28.319     8.727
    16   6 C        2.918    -0.019    28.481     8.751
    17   6 C        3.001    -0.024    28.595     8.772
    18   6 C        2.921     0.003    27.948     8.669
    19   6 C        3.019    -0.021    28.508     8.758
    20   6 C        2.918    -0.018    28.468     8.750
    21   6 C        2.920    -0.013    28.337     8.729
    22   6 C        2.919    -0.019    28.472     8.750
    23   6 C        2.987    -0.023    28.582     8.770
    24   1 H        0.925     0.033     2.550     2.497
    25   1 H        0.925     0.050     2.325     2.385
    26   1 H        0.925     0.051     2.312     2.378
    27   1 H        0.924     0.031     2.566     2.505
    28   1 H        0.924     0.052     2.296     2.370
    29   1 H        0.924     0.051     2.314     2.379
    30   1 H        0.924     0.066     2.127     2.281
    31   1 H        0.927     0.085     1.927     2.171
    32   1 H        0.927     0.092     1.861     2.133
    33   1 H        0.926     0.054     2.275     2.359
    34   1 H        0.926     0.065     2.139     2.287
    35   1 H        0.926     0.069     2.101     2.267
    36   1 H        0.926     0.065     2.141     2.288
    37   1 H        0.926     0.059     2.209     2.324
    38   1 H        0.926     0.052     2.298     2.370
    39   1 H        0.926     0.066     2.135     2.285
    40   1 H        0.926     0.069     2.096     2.264
    41   1 H        0.926     0.066     2.134     2.284
    42   1 H        0.925     0.051     2.306     2.375
    43   1 H        0.925     0.050     2.321     2.382
    44   1 H        0.926     0.065     2.142     2.289
    45   1 H        0.926     0.068     2.106     2.269
    46   1 H        0.926     0.065     2.142     2.289
    47   1 H        0.926     0.054     2.274     2.358

Wiberg/Mayer (AO) data.
largest (>0.10) Wiberg bond orders for each atom

     #   Z sym  total        # sym  WBO       # sym  WBO       # sym  WBO
 ---------------------------------------------------------------------------
     1   6 C    3.994 --     2 C    1.020    25 H    0.985    26 H    0.985
                            24 H    0.983
     2   6 C    3.995 --     1 C    1.020     3 C    1.007    28 H    0.975
                            27 H    0.959
     3   6 C    3.985 --     2 C    1.007     4 C    0.989    29 H    0.967
                            30 H    0.967
     4   6 C    3.979 --     5 P    1.002     3 C    0.989    31 H    0.927
                            32 H    0.925
     5  15 P    4.591 --     4 C    1.002    12 C    0.994     6 C    0.993
                            18 C    0.988
     6   6 C    3.973 --     7 C    1.380    11 C    1.367     5 P    0.993
                             9 C    0.102
     7   6 C    3.989 --     8 C    1.444     6 C    1.380    33 H    0.956
                            10 C    0.105
     8   6 C    3.988 --     7 C    1.444     9 C    1.437    34 H    0.966
                            11 C    0.107
     9   6 C    3.979 --     8 C    1.437    10 C    1.429    35 H    0.968
                             6 C    0.102
    10   6 C    3.987 --    11 C    1.452     9 C    1.429    36 H    0.966
                             7 C    0.105
    11   6 C    3.989 --    10 C    1.452     6 C    1.367    37 H    0.954
                             8 C    0.107
    12   6 C    3.975 --    13 C    1.383    17 C    1.371     5 P    0.994
                            15 C    0.103
    13   6 C    3.989 --    14 C    1.444    12 C    1.383    38 H    0.957
                            16 C    0.105
    14   6 C    3.989 --    13 C    1.444    15 C    1.439    39 H    0.966
                            17 C    0.108
    15   6 C    3.980 --    14 C    1.439    16 C    1.428    40 H    0.968
                            12 C    0.103
    16   6 C    3.987 --    17 C    1.454    15 C    1.428    41 H    0.966
                            13 C    0.105
    17   6 C    3.990 --    16 C    1.454    12 C    1.371    42 H    0.956
                            14 C    0.108
    18   6 C    3.976 --    23 C    1.384    19 C    1.368     5 P    0.988
                            21 C    0.103
    19   6 C    3.990 --    20 C    1.455    18 C    1.368    43 H    0.955
                            22 C    0.108
    20   6 C    3.987 --    19 C    1.455    21 C    1.427    44 H    0.966
                            23 C    0.105
    21   6 C    3.979 --    22 C    1.439    20 C    1.427    45 H    0.968
                            18 C    0.103
    22   6 C    3.989 --    23 C    1.442    21 C    1.439    46 H    0.966
                            19 C    0.108
    23   6 C    3.990 --    22 C    1.442    18 C    1.384    47 H    0.957
                            20 C    0.105
    24   1 H    0.999 --     1 C    0.983
    25   1 H    0.998 --     1 C    0.985
    26   1 H    0.997 --     1 C    0.985
    27   1 H    0.999 --     2 C    0.959
    28   1 H    0.997 --     2 C    0.975
    29   1 H    0.997 --     3 C    0.967
    30   1 H    0.994 --     3 C    0.967
    31   1 H    0.992 --     4 C    0.927
    32   1 H    0.991 --     4 C    0.925
    33   1 H    0.997 --     7 C    0.956
    34   1 H    0.995 --     8 C    0.966
    35   1 H    0.995 --     9 C    0.968
    36   1 H    0.995 --    10 C    0.966
    37   1 H    0.996 --    11 C    0.954
    38   1 H    0.997 --    13 C    0.957
    39   1 H    0.995 --    14 C    0.966
    40   1 H    0.995 --    15 C    0.968
    41   1 H    0.995 --    16 C    0.966
    42   1 H    0.997 --    17 C    0.956
    43   1 H    0.997 --    19 C    0.955
    44   1 H    0.995 --    20 C    0.966
    45   1 H    0.995 --    21 C    0.968
    46   1 H    0.995 --    22 C    0.966
    47   1 H    0.997 --    23 C    0.957
 ---------------------------------------------------------------------------

molecular dipole:
                 x           y           z       tot (Debye)
 q only:       -2.876      -1.332       5.190
   full:       -2.873      -1.294       5.269      15.604

           -------------------------------------------------
          | TOTAL ENERGY              -61.447761945198 Eh   |
          | GRADIENT NORM               0.000258731182 Eh/α |
          | HOMO-LUMO GAP               4.084983029531 eV   |
           -------------------------------------------------

 * finished run on 2024/12/20 at 06:55:30.912
