   * xtb version 6.7.1 (edcfbbe) compiled by 'conda@3ef47c1a292c' on 2024-11-25

   ID    Z sym.   atoms
    1    6 C      1, 2, 4, 6, 7, 9, 10
    2    8 O      3
    3    7 N      5, 8
    4    1 H      11-27

          program call               : xtb C0754.xyz --opt --namespace C0754 --charge +1
          :  Hamiltonian                  GFN2-xTB          :
 * total energy  :   -33.1766586 Eh     change       -0.1147527E-09 Eh
 * total energy  :   -33.1809913 Eh     change       -0.4332630E-02 Eh
 * total energy  :   -33.1822945 Eh     change       -0.1303240E-02 Eh
 * total energy  :   -33.1830548 Eh     change       -0.7602793E-03 Eh
 * total energy  :   -33.1842323 Eh     change       -0.1177481E-02 Eh
 * total energy  :   -33.1853875 Eh     change       -0.1155203E-02 Eh
 * total energy  :   -33.1865475 Eh     change       -0.1160048E-02 Eh
 * total energy  :   -33.1877448 Eh     change       -0.1197322E-02 Eh
 * total energy  :   -33.1886965 Eh     change       -0.9516564E-03 Eh
 * total energy  :   -33.1893707 Eh     change       -0.6742201E-03 Eh
 * total energy  :   -33.1908874 Eh     change       -0.9239336E-05 Eh
 * total energy  :   -33.1908945 Eh     change       -0.7191897E-05 Eh
 * total energy  :   -33.1909015 Eh     change       -0.6912426E-05 Eh
 * total energy  :   -33.1909078 Eh     change       -0.6340563E-05 Eh
 * total energy  :   -33.1909137 Eh     change       -0.5871298E-05 Eh
 * total energy  :   -33.1909189 Eh     change       -0.5260192E-05 Eh
 * total energy  :   -33.1909241 Eh     change       -0.5216139E-05 Eh
 * total energy  :   -33.1909293 Eh     change       -0.5180842E-05 Eh
 * total energy  :   -33.1909339 Eh     change       -0.4565843E-05 Eh
   *** GEOMETRY OPTIMIZATION CONVERGED AFTER 38 ITERATIONS ***

 final structure:
================
27
 xtb: 6.7.1 (edcfbbe)
C            0.73869823244315        0.73906120382375        0.07031788397841
C            0.45571793562310       -0.21105395232780        1.22128996027438
O            1.14343665977580        0.16820061090808        2.43359996781797
C            2.43563974202485        0.43810253226878        2.48080005070963
N            3.34697579387929       -0.27649838405956        1.81706919109208
C            4.59133632385958        0.27360980642353        1.31275215054836
C            3.13732191746670       -1.67429716874162        1.48891273384184
N            2.75790737375857        1.45805013783478        3.26819120312185
C            1.74056828691165        2.37828508270894        3.74071151984013
C            4.04089758383662        1.60214912291850        3.92699725756466
H            0.49986571298884        1.76339645269742        0.34676837688931
H            0.11410267181640        0.46098501725115       -0.77338182577358
H            1.77877597970425        0.69331312376831       -0.24519837701803
H           -0.59411042453251       -0.15661338783938        1.51579019039228
H            0.68530526970737       -1.24167492550933        0.94481593436494
H            5.45536113297910       -0.11778119233065        1.85133896353281
H            4.68968324256962       -0.01847566001628        0.26540856663228
H            4.58468666524287        1.35772347957335        1.36501245885558
H            2.36925428531296       -2.10404433162876        2.12755449560858
H            2.87304382754809       -1.80939856849280        0.43762137401545
H            4.06992743205055       -2.20787365887914        1.67538215510087
H            1.37416284211797        2.07998287360214        4.72415408313409
H            2.17916987138309        3.37240243671775        3.81162091560459
H            0.89966069822395        2.40238202957246        3.05304624785389
H            4.61862540141767        0.68562269539586        3.86415773305552
H            4.61288343748015        2.42982944192817        3.50514535333539
H            3.86099210441118        1.81845518243133        4.98050143562737

          :  Hamiltonian                  GFN2-xTB          :
         :: total energy             -33.190933890591 Eh    ::
         :: gradient norm              0.000248409603 Eh/a0 ::
         :: HOMO-LUMO gap              3.932570223246 eV    ::
         :: SCC energy               -33.614616335556 Eh    ::
         :: -> dispersion             -0.019120443168 Eh    ::
         :: repulsion energy           0.423682444965 Eh    ::

    * Orbital Energies and Occupations

         #    Occupation            Energy/Eh            Energy/eV
      -------------------------------------------------------------
         1        2.0000           -0.9051439             -24.6302
       ...           ...                  ...                  ...
        18        2.0000           -0.6723671             -18.2960
        19        2.0000           -0.6471535             -17.6099
        20        2.0000           -0.6390535             -17.3895
        21        2.0000           -0.6335177             -17.2389
        22        2.0000           -0.6323538             -17.2072
        23        2.0000           -0.6254953             -17.0206
        24        2.0000           -0.6233070             -16.9610
        25        2.0000           -0.6192149             -16.8497
        26        2.0000           -0.6152999             -16.7432
        27        2.0000           -0.6035742             -16.4241
        28        2.0000           -0.5859920             -15.9457
        29        2.0000           -0.5768850             -15.6978
        30        2.0000           -0.5454002             -14.8411 (HOMO)
        31                         -0.4008809             -10.9085 (LUMO)
        32                         -0.1980372              -5.3889
        33                         -0.1662308              -4.5234
        34                         -0.1365510              -3.7157
        35                         -0.0805876              -2.1929
        36                         -0.0501664              -1.3651
        37                         -0.0384954              -1.0475
        38                         -0.0287869              -0.7833
        39                         -0.0143329              -0.3900
        40                         -0.0112157              -0.3052
        41                          0.0156933               0.4270
       ...                                ...                  ...
        57                          0.3403385               9.2611
      -------------------------------------------------------------
                  HL-Gap            0.1445193 Eh            3.9326 eV

     #   Z          covCN         q      C6AA      α(0)
     1   6 C        3.750    -0.126    22.974     6.836
     2   6 C        3.681     0.059    19.786     6.371
     3   8 O        1.705    -0.239    17.961     5.722
     4   6 C        2.724     0.275    22.347     7.739
     5   7 N        2.732    -0.059    22.391     7.028
     6   6 C        3.699    -0.073    22.069     6.719
     7   6 C        3.701    -0.064    21.903     6.692
     8   7 N        2.735    -0.027    21.775     6.931
     9   6 C        3.705    -0.074    22.074     6.717
    10   6 C        3.700    -0.080    22.189     6.737
    11   1 H        0.925     0.064     2.154     2.295
    12   1 H        0.925     0.080     1.980     2.201
    13   1 H        0.925     0.052     2.298     2.371
    14   1 H        0.924     0.095     1.827     2.114
    15   1 H        0.924     0.069     2.101     2.267
    16   1 H        0.924     0.081     1.964     2.192
    17   1 H        0.924     0.091     1.870     2.139
    18   1 H        0.925     0.080     1.975     2.198
    19   1 H        0.925     0.081     1.969     2.194
    20   1 H        0.924     0.079     1.985     2.203
    21   1 H        0.924     0.090     1.874     2.141
    22   1 H        0.924     0.090     1.880     2.144
    23   1 H        0.925     0.092     1.856     2.131
    24   1 H        0.925     0.092     1.864     2.135
    25   1 H        0.925     0.084     1.937     2.177
    26   1 H        0.924     0.088     1.902     2.157
    27   1 H        0.924     0.100     1.789     2.092

Wiberg/Mayer (AO) data.
largest (>0.10) Wiberg bond orders for each atom

     #   Z sym  total        # sym  WBO       # sym  WBO       # sym  WBO
 ---------------------------------------------------------------------------
     1   6 C    3.987 --     2 C    1.018    13 H    0.984    11 H    0.984
                            12 H    0.976
     2   6 C    3.895 --     1 C    1.018    14 H    0.965    15 H    0.963
                             3 O    0.900
     3   8 O    2.308 --     4 C    1.158     2 C    0.900
     4   6 C    3.957 --     8 N    1.346     5 N    1.299     3 O    1.158
     5   7 N    3.521 --     4 C    1.299     7 C    0.984     6 C    0.983
                             8 N    0.118
     6   6 C    3.947 --     5 N    0.983    18 H    0.978    16 H    0.971
                            17 H    0.968
     7   6 C    3.948 --     5 N    0.984    19 H    0.978    21 H    0.969
                            20 H    0.968
     8   7 N    3.578 --     4 C    1.346    10 C    0.984     9 C    0.983
                             5 N    0.118
     9   6 C    3.940 --     8 N    0.983    24 H    0.974    23 H    0.973
                            22 H    0.966
    10   6 C    3.942 --     8 N    0.984    25 H    0.976    26 H    0.968
                            27 H    0.967
    11   1 H    0.996 --     1 C    0.984
    12   1 H    0.994 --     1 C    0.976
    13   1 H    0.997 --     1 C    0.984
    14   1 H    0.991 --     2 C    0.965
    15   1 H    0.995 --     2 C    0.963
    16   1 H    0.993 --     6 C    0.971
    17   1 H    0.991 --     6 C    0.968
    18   1 H    0.994 --     6 C    0.978
    19   1 H    0.993 --     7 C    0.978
    20   1 H    0.993 --     7 C    0.968
    21   1 H    0.991 --     7 C    0.969
    22   1 H    0.991 --     9 C    0.966
    23   1 H    0.991 --     9 C    0.973
    24   1 H    0.992 --     9 C    0.974
    25   1 H    0.993 --    10 C    0.976
    26   1 H    0.991 --    10 C    0.968
    27   1 H    0.990 --    10 C    0.967
 ---------------------------------------------------------------------------

molecular dipole:
                 x           y           z       tot (Debye)
 q only:        5.298       1.086       4.100
   full:        5.335       0.982       4.066      17.231

           -------------------------------------------------
          | TOTAL ENERGY              -33.190933890591 Eh   |
          | GRADIENT NORM               0.000248409603 Eh/α |
          | HOMO-LUMO GAP               3.932570223246 eV   |
           -------------------------------------------------

 * finished run on 2024/12/20 at 06:55:29.138
