   * xtb version 6.7.1 (edcfbbe) compiled by 'conda@3ef47c1a292c' on 2024-11-25

   ID    Z sym.   atoms
    1    6 C      1, 2, 4, 5, 7-15, 17, 19-32
    2    7 N      3, 6
    3    8 O      16, 18
    4    1 H      33-59

          program call               : xtb C0768.xyz --opt --namespace C0768 --charge +1
          :  Hamiltonian                  GFN2-xTB          :
 * total energy  :   -87.3337740 Eh     change       -0.1142467E-08 Eh
 * total energy  :   -87.3468054 Eh     change       -0.1303143E-01 Eh
 * total energy  :   -87.3495466 Eh     change       -0.2741224E-02 Eh
 * total energy  :   -87.3504849 Eh     change       -0.9382689E-03 Eh
 * total energy  :   -87.3513377 Eh     change       -0.8527821E-03 Eh
 * total energy  :   -87.3521887 Eh     change       -0.8509898E-03 Eh
 * total energy  :   -87.3530418 Eh     change       -0.8531179E-03 Eh
 * total energy  :   -87.3539460 Eh     change       -0.9041960E-03 Eh
 * total energy  :   -87.3547895 Eh     change       -0.8435675E-03 Eh
 * total energy  :   -87.3553835 Eh     change       -0.5939291E-03 Eh
 * total energy  :   -87.3595750 Eh     change       -0.6936973E-05 Eh
 * total energy  :   -87.3595815 Eh     change       -0.6507926E-05 Eh
 * total energy  :   -87.3595921 Eh     change       -0.1062808E-04 Eh
 * total energy  :   -87.3596077 Eh     change       -0.1560759E-04 Eh
 * total energy  :   -87.3596145 Eh     change       -0.6780040E-05 Eh
 * total energy  :   -87.3596221 Eh     change       -0.7554598E-05 Eh
 * total energy  :   -87.3596195 Eh     change        0.2523949E-05 Eh
 * total energy  :   -87.3596249 Eh     change       -0.5398832E-05 Eh
 * total energy  :   -87.3596274 Eh     change       -0.2511203E-05 Eh
   *** GEOMETRY OPTIMIZATION CONVERGED AFTER 48 ITERATIONS ***

 final structure:
================
59
 xtb: 6.7.1 (edcfbbe)
C            0.02976455083037       -0.29351256988265       -0.93154154099063
C            0.42131423795423        0.54856450038674        0.21553528169757
N            0.95637524908436        1.77802882698872        0.19783542481726
C            1.13818238240142        2.19013450797720        1.49139037207040
C            0.70756093204932        1.18828981944102        2.29707195349263
N            0.26356550864190        0.18149444531467        1.49146162285040
C           -0.35404841857065       -1.04706530427600        1.94008926088778
C           -1.83077271746143       -1.07836871506195        1.61103371123461
C           -2.64013636116063        0.00812706509030        1.92105303734962
C           -3.99270446161323       -0.02707602198548        1.63151818906576
C           -4.54707022223472       -1.14876614807294        1.03716120036589
C           -3.74548939321444       -2.23537412781634        0.73092282154211
C           -2.39008029992972       -2.19883902788152        1.01105802796471
C            1.32162283852279        2.58847126622573       -0.93829881452491
C            2.85519425672074        2.63464703394195       -1.14848304935312
O            3.45760827808744        3.04870227725212        0.05657475318749
C            4.10968472564839        2.04124884297064        0.67596904490788
O            4.50135893539948        2.17612482208085        1.79623031328636
C            4.20538161495785        0.81383779886458       -0.22570451495015
C            3.49565757167544        1.28712891255051       -1.50909960290201
C            5.67102494943811        0.41623372510375       -0.45051702717092
C            6.05377770991259       -0.18821107413287       -1.64243730994913
C            7.36249632854707       -0.59387603474778       -1.83569750011340
C            8.30467954693590       -0.41209445169567       -0.83924082244373
C            7.92370083058022        0.16608017624801        0.35825543939444
C            6.61453571529143        0.56947781955811        0.55645989025164
C            3.58055251701978       -0.42484394374225        0.41035556505015
C            3.22794142515970       -1.50040367929076       -0.40058918218176
C            2.74009015590379       -2.67333224784487        0.14886004716017
C            2.60487875750362       -2.79687441964921        1.52158911399153
C            2.96875720996383       -1.73845414014620        2.33602833312108
C            3.45547466299935       -0.56350335675254        1.78749368343604
H           -1.00152289171450       -0.62609496926056       -0.80976401888332
H            0.66221915882591       -1.18233576525718       -0.97158470252841
H            0.11510875030476        0.23871086293308       -1.87349647577687
H            1.55905838757569        3.14436447785642        1.73412027475715
H            0.68765654186139        1.12307524268440        3.36514989074999
H            0.15661732585061       -1.89399621001970        1.47443333424989
H           -0.20855561089288       -1.11129656504205        3.02129743626411
H           -2.21578085455291        0.88133702196220        2.39660562224164
H           -4.61479366796153        0.81921285651307        1.87762909626021
H           -5.60253546643900       -1.17703122628309        0.81752958599885
H           -4.17335162718494       -3.11320285106368        0.27285027506886
H           -1.76699531120783       -3.04917488298673        0.77508544935050
H            0.83975467619142        2.21736888166491       -1.84236852852644
H            0.97644409707651        3.60774943881024       -0.74664040413455
H            3.05416812274018        3.40042689912022       -1.90515928056469
H            4.22303476929676        1.44480315248053       -2.30394806039729
H            2.74789936407728        0.58015163739489       -1.86120664717724
H            5.34079141739773       -0.36125626823698       -2.43478729557817
H            7.64135518378278       -1.05690312926928       -2.76993382713699
H            9.32512570099048       -0.72622150362029       -0.99304015319437
H            8.64514873010440        0.30362521422981        1.14860629219661
H            6.33852348047722        1.01137857974740        1.49981443334066
H            3.36844032960003       -1.44809801065747       -1.46961742938016
H            2.48811270715895       -3.50058181853066       -0.49801661197712
H            2.24461934373643       -3.71867767977208        1.95215031681461
H            2.89498264881260       -1.83198790966550        3.40874577450270
H            3.76307567706175        0.23424794728036        2.44372793101329

          :  Hamiltonian                  GFN2-xTB          :
         :: total energy             -87.359627451074 Eh    ::
         :: gradient norm              0.000227775237 Eh/a0 ::
         :: HOMO-LUMO gap              2.567550123014 eV    ::
         :: SCC energy               -88.791149572645 Eh    ::
         :: -> dispersion             -0.079004862569 Eh    ::
         :: repulsion energy           1.431522121571 Eh    ::

    * Orbital Energies and Occupations

         #    Occupation            Energy/Eh            Energy/eV
      -------------------------------------------------------------
         1        2.0000           -0.8798626             -23.9423
       ...           ...                  ...                  ...
        68        2.0000           -0.5409755             -14.7207
        69        2.0000           -0.5381190             -14.6430
        70        2.0000           -0.5351810             -14.5630
        71        2.0000           -0.5341023             -14.5337
        72        2.0000           -0.5205926             -14.1660
        73        2.0000           -0.5188068             -14.1175
        74        2.0000           -0.5180471             -14.0968
        75        2.0000           -0.5170142             -14.0687
        76        2.0000           -0.5159080             -14.0386
        77        2.0000           -0.5043602             -13.7243
        78        2.0000           -0.4974154             -13.5354
        79        2.0000           -0.4870317             -13.2528
        80        2.0000           -0.4835712             -13.1586 (HOMO)
        81                         -0.3892155             -10.5911 (LUMO)
        82                         -0.3533600              -9.6154
        83                         -0.3450065              -9.3881
        84                         -0.3414837              -9.2922
        85                         -0.3390532              -9.2261
        86                         -0.3368581              -9.1664
        87                         -0.3348506              -9.1117
        88                         -0.3055927              -8.3156
        89                         -0.3047113              -8.2916
        90                         -0.2126556              -5.7867
        91                         -0.2078494              -5.6559
       ...                                ...                  ...
       155                          0.5820686              15.8389
      -------------------------------------------------------------
                  HL-Gap            0.0943557 Eh            2.5676 eV

     #   Z          covCN         q      C6AA      α(0)
     1   6 C        3.754    -0.135    23.160     6.862
     2   6 C        3.096     0.107    25.524     8.280
     3   7 N        2.871     0.037    20.603     6.742
     4   6 C        3.049    -0.006    28.129     8.698
     5   6 C        3.047    -0.006    28.131     8.699
     6   7 N        2.876     0.041    20.524     6.729
     7   6 C        3.748    -0.027    21.124     6.555
     8   6 C        2.971    -0.003    28.098     8.695
     9   6 C        2.922    -0.039    28.968     8.826
    10   6 C        2.919    -0.023    28.587     8.768
    11   6 C        2.920    -0.022    28.550     8.762
    12   6 C        2.919    -0.023    28.574     8.766
    13   6 C        2.923    -0.039    28.962     8.825
    14   6 C        3.740    -0.030    21.192     6.568
    15   6 C        3.791     0.101    18.931     6.196
    16   8 O        1.707    -0.260    18.309     5.777
    17   6 C        2.767     0.354    20.998     7.505
    18   8 O        0.856    -0.362    20.932     6.134
    19   6 C        3.916    -0.017    20.825     6.486
    20   6 C        3.820    -0.084    22.088     6.688
    21   6 C        2.983     0.007    27.867     8.659
    22   6 C        2.923    -0.039    28.967     8.826
    23   6 C        2.921    -0.026    28.664     8.780
    24   6 C        2.919    -0.024    28.615     8.772
    25   6 C        2.921    -0.023    28.573     8.766
    26   6 C        2.923    -0.039    28.960     8.825
    27   6 C        2.981     0.003    27.946     8.672
    28   6 C        2.924    -0.044    29.103     8.847
    29   6 C        2.919    -0.035    28.883     8.813
    30   6 C        2.918    -0.036    28.886     8.813
    31   6 C        2.920    -0.032    28.798     8.800
    32   6 C        2.922    -0.048    29.193     8.860
    33   1 H        0.924     0.102     1.768     2.079
    34   1 H        0.924     0.101     1.773     2.082
    35   1 H        0.925     0.084     1.935     2.176
    36   1 H        0.926     0.116     1.649     2.008
    37   1 H        0.927     0.104     1.753     2.070
    38   1 H        0.924     0.083     1.944     2.180
    39   1 H        0.924     0.090     1.880     2.144
    40   1 H        0.926     0.031     2.571     2.507
    41   1 H        0.926     0.054     2.269     2.356
    42   1 H        0.926     0.059     2.215     2.327
    43   1 H        0.926     0.057     2.232     2.336
    44   1 H        0.926     0.042     2.420     2.433
    45   1 H        0.925     0.085     1.930     2.173
    46   1 H        0.924     0.100     1.781     2.087
    47   1 H        0.924     0.079     1.994     2.208
    48   1 H        0.925     0.074     2.039     2.233
    49   1 H        0.925     0.052     2.291     2.367
    50   1 H        0.926     0.029     2.600     2.522
    51   1 H        0.926     0.045     2.378     2.411
    52   1 H        0.926     0.050     2.321     2.383
    53   1 H        0.926     0.050     2.316     2.380
    54   1 H        0.926     0.060     2.203     2.321
    55   1 H        0.926     0.038     2.481     2.463
    56   1 H        0.926     0.042     2.420     2.433
    57   1 H        0.926     0.045     2.384     2.415
    58   1 H        0.926     0.045     2.389     2.417
    59   1 H        0.926     0.058     2.224     2.332

Wiberg/Mayer (AO) data.
largest (>0.10) Wiberg bond orders for each atom

     #   Z sym  total        # sym  WBO       # sym  WBO       # sym  WBO
 ---------------------------------------------------------------------------
     1   6 C    3.978 --     2 C    1.047    35 H    0.970    33 H    0.949
                            34 H    0.942
     2   6 C    3.951 --     6 N    1.330     3 N    1.315     1 C    1.047
     3   7 N    3.685 --     2 C    1.315     4 C    1.199    14 C    0.985
     4   6 C    3.945 --     5 C    1.612     3 N    1.199    36 H    0.958
     5   6 C    3.949 --     4 C    1.612     6 N    1.208    37 H    0.961
     6   7 N    3.694 --     2 C    1.330     5 C    1.208     7 C    0.965
     7   6 C    3.938 --     8 C    0.982     6 N    0.965    39 H    0.957
                            38 H    0.952
     8   6 C    3.979 --    13 C    1.413     9 C    1.412     7 C    0.982
                            11 C    0.109
     9   6 C    3.992 --    10 C    1.446     8 C    1.412    40 H    0.969
                            12 C    0.112
    10   6 C    3.991 --     9 C    1.446    11 C    1.437    41 H    0.969
                            13 C    0.110
    11   6 C    3.989 --    12 C    1.441    10 C    1.437    42 H    0.969
                             8 C    0.109
    12   6 C    3.990 --    11 C    1.441    13 C    1.440    43 H    0.969
                             9 C    0.112
    13   6 C    3.990 --    12 C    1.440     8 C    1.413    44 H    0.968
                            10 C    0.110
    14   6 C    3.950 --     3 N    0.985    15 C    0.961    45 H    0.961
                            46 H    0.959
    15   6 C    3.934 --    20 C    0.983    16 O    0.965    14 C    0.961
                            47 H    0.956
    16   8 O    2.300 --    17 C    1.085    15 C    0.965    18 O    0.153
    17   6 C    3.906 --    18 O    1.789    16 O    1.085    19 C    0.946
    18   8 O    2.092 --    17 C    1.789    16 O    0.153
    19   6 C    3.987 --    20 C    0.985    27 C    0.954    17 C    0.946
                            21 C    0.934
    20   6 C    3.988 --    19 C    0.985    15 C    0.983    49 H    0.970
                            48 H    0.968
    21   6 C    3.977 --    26 C    1.417    22 C    1.409    19 C    0.934
                            24 C    0.108
    22   6 C    3.990 --    23 C    1.442    21 C    1.409    50 H    0.964
                            25 C    0.111
    23   6 C    3.990 --    22 C    1.442    24 C    1.438    51 H    0.970
                            26 C    0.111
    24   6 C    3.988 --    25 C    1.441    23 C    1.438    52 H    0.970
                            21 C    0.108
    25   6 C    3.990 --    24 C    1.441    26 C    1.440    53 H    0.969
                            22 C    0.111
    26   6 C    3.989 --    25 C    1.440    21 C    1.417    54 H    0.961
                            23 C    0.111
    27   6 C    3.982 --    32 C    1.414    28 C    1.402    19 C    0.954
                            30 C    0.108
    28   6 C    3.991 --    29 C    1.444    27 C    1.402    55 H    0.963
                            31 C    0.111
    29   6 C    3.990 --    28 C    1.444    30 C    1.432    56 H    0.970
                            32 C    0.109
    30   6 C    3.987 --    31 C    1.439    29 C    1.432    57 H    0.970
                            27 C    0.108
    31   6 C    3.991 --    32 C    1.439    30 C    1.439    58 H    0.970
                            28 C    0.111
    32   6 C    3.988 --    31 C    1.439    27 C    1.414    59 H    0.961
                            29 C    0.109
    33   1 H    0.989 --     1 C    0.949
    34   1 H    0.990 --     1 C    0.942
    35   1 H    0.992 --     1 C    0.970
    36   1 H    0.986 --     4 C    0.958
    37   1 H    0.989 --     5 C    0.961
    38   1 H    0.993 --     7 C    0.952
    39   1 H    0.992 --     7 C    0.957
    40   1 H    0.999 --     9 C    0.969
    41   1 H    0.997 --    10 C    0.969
    42   1 H    0.996 --    11 C    0.969
    43   1 H    0.996 --    12 C    0.969
    44   1 H    0.998 --    13 C    0.968
    45   1 H    0.992 --    14 C    0.961
    46   1 H    0.989 --    14 C    0.959
    47   1 H    0.993 --    15 C    0.956
    48   1 H    0.994 --    20 C    0.968
    49   1 H    0.997 --    20 C    0.970
    50   1 H    0.999 --    22 C    0.964
    51   1 H    0.997 --    23 C    0.970
    52   1 H    0.996 --    24 C    0.970
    53   1 H    0.997 --    25 C    0.969
    54   1 H    0.996 --    26 C    0.961
    55   1 H    0.999 --    28 C    0.963
    56   1 H    0.997 --    29 C    0.970
    57   1 H    0.997 --    30 C    0.970
    58   1 H    0.998 --    31 C    0.970
    59   1 H    0.997 --    32 C    0.961
 ---------------------------------------------------------------------------

molecular dipole:
                 x           y           z       tot (Debye)
 q only:        0.644       0.294      -0.197
   full:        0.743       0.307      -0.346       2.224

           -------------------------------------------------
          | TOTAL ENERGY              -87.359627451074 Eh   |
          | GRADIENT NORM               0.000227775237 Eh/α |
          | HOMO-LUMO GAP               2.567550123014 eV   |
           -------------------------------------------------

 * finished run on 2024/12/20 at 06:57:13.074
