   * xtb version 6.7.1 (edcfbbe) compiled by 'conda@3ef47c1a292c' on 2024-11-25

   ID    Z sym.   atoms
    1    6 C      1-6, 8-25
    2   15 P      7
    3    1 H      26-45

          program call               : xtb C0767.xyz --opt --namespace C0767 --charge +1
          :  Hamiltonian                  GFN2-xTB          :
 * total energy  :   -63.6650685 Eh     change       -0.1503238E-08 Eh
 * total energy  :   -63.6694124 Eh     change       -0.4343962E-02 Eh
 * total energy  :   -63.6703265 Eh     change       -0.9140142E-03 Eh
 * total energy  :   -63.6704906 Eh     change       -0.1641737E-03 Eh
 * total energy  :   -63.6705907 Eh     change       -0.1000546E-03 Eh
 * total energy  :   -63.6706658 Eh     change       -0.7513612E-04 Eh
 * total energy  :   -63.6707767 Eh     change       -0.1108974E-03 Eh
 * total energy  :   -63.6709475 Eh     change       -0.1707648E-03 Eh
 * total energy  :   -63.6711486 Eh     change       -0.2010941E-03 Eh
 * total energy  :   -63.6713447 Eh     change       -0.1960758E-03 Eh
 * total energy  :   -63.6719408 Eh     change       -0.1018609E-04 Eh
 * total energy  :   -63.6719500 Eh     change       -0.9190358E-05 Eh
 * total energy  :   -63.6719629 Eh     change       -0.1294141E-04 Eh
 * total energy  :   -63.6719698 Eh     change       -0.6811412E-05 Eh
 * total energy  :   -63.6719941 Eh     change       -0.2433263E-04 Eh
 * total energy  :   -63.6720349 Eh     change       -0.4082627E-04 Eh
 * total energy  :   -63.6720520 Eh     change       -0.1708251E-04 Eh
 * total energy  :   -63.6720707 Eh     change       -0.1868287E-04 Eh
 * total energy  :   -63.6720737 Eh     change       -0.2983580E-05 Eh
   *** GEOMETRY OPTIMIZATION CONVERGED AFTER 29 ITERATIONS ***

 final structure:
================
45
 xtb: 6.7.1 (edcfbbe)
C            1.41633112204079       -0.26005062018338        0.23300850995396
C            0.96722286413731        1.00881724310557        0.59869455213686
C           -0.38487915966573        1.29220488646618        0.55287129920001
C           -1.28482262455259        0.31805870271657        0.14656836643883
C           -0.83663494124605       -0.94295789517094       -0.21261648549493
C            0.51478844589760       -1.23879985816221       -0.17217726842981
P            3.19013756598938       -0.58572706334130        0.26660262312762
C            3.97816571463725        0.12341455922213       -1.19291423406808
C            5.25099714974125       -0.32598537784393       -1.54500077344429
C            5.88486861889994        0.21760356309794       -2.64647166923534
C            5.25470126415961        1.20104763698476       -3.39461047036505
C            3.98876782251261        1.64359844720770       -3.04481752321240
C            3.34412775428901        1.10847247445189       -1.94319592814048
C            3.86891421409522        0.15233005908001        1.76593302966731
C            5.09371456387822        0.81187322597711        1.75008469699780
C            5.59640703839228        1.33907392296788        2.92694661474469
C            4.88444922067646        1.20879565866602        4.10888088286412
C            3.66219191355820        0.55287101163923        4.12239887204735
C            3.14897709645548        0.02265949902261        2.95368853675424
C            3.49219100649248       -2.36380600573006        0.25875599232271
C            3.81212161085907       -3.04278488665278        1.43012176857354
C            4.00409686640233       -4.41292123810354        1.39006338530240
C            3.87598193663721       -5.09962015312971        0.19310613767635
C            3.56048630193613       -4.42044546372208       -0.97473569228161
C            3.36859780956165       -3.05190064612362       -0.94840033612563
H            1.67631620406687        1.75920893565056        0.92285321139320
H           -0.73767818704645        2.27184069478505        0.83577517661031
H           -2.33955606030329        0.54269076429407        0.11369508379858
H           -1.54029140679397       -1.69930980711548       -0.52354676956385
H            0.86743416617719       -2.22310178742987       -0.44518407440836
H            5.73005528341284       -1.10056126820236       -0.96111510100688
H            6.86884846911312       -0.12729815679560       -2.92387575430649
H            5.75160661253524        1.62063710012105       -4.25537643018622
H            3.50017320128230        2.40487838099488       -3.63207870970526
H            2.35421804703154        1.44602825241341       -1.67124874988438
H            5.64247211719155        0.91699145442586        0.82488287738225
H            6.54459277777207        1.85363196601197        2.92019373897440
H            5.28080789152443        1.62255971041180        5.02299867221248
H            3.10879473993316        0.45650604241302        5.04362760856596
H            2.19250786127646       -0.48341979336763        2.95223422562155
H            3.91625423477908       -2.50247741500640        2.36041170695336
H            4.25512621352843       -4.94430395915168        2.29491359735514
H            4.02582385684557       -6.16775292206243        0.16816258089655
H            3.46583202157031       -4.95766937084943       -1.90571620101423
H            3.13154078031504       -2.51142050398513       -1.85555157670010

          :  Hamiltonian                  GFN2-xTB          :
         :: total energy             -63.672073667904 Eh    ::
         :: gradient norm              0.000781167705 Eh/a0 ::
         :: HOMO-LUMO gap              4.057469802605 eV    ::
         :: SCC energy               -64.907112881460 Eh    ::
         :: -> dispersion             -0.058759007718 Eh    ::
         :: repulsion energy           1.235039213556 Eh    ::

    * Orbital Energies and Occupations

         #    Occupation            Energy/Eh            Energy/eV
      -------------------------------------------------------------
         1        2.0000           -0.8303566             -22.5952
       ...           ...                  ...                  ...
        48        2.0000           -0.5506590             -14.9842
        49        2.0000           -0.5484288             -14.9235
        50        2.0000           -0.5462333             -14.8638
        51        2.0000           -0.5461919             -14.8626
        52        2.0000           -0.5442846             -14.8107
        53        2.0000           -0.5368887             -14.6095
        54        2.0000           -0.5357117             -14.5775
        55        2.0000           -0.5347602             -14.5516
        56        2.0000           -0.5339409             -14.5293
        57        2.0000           -0.5334346             -14.5155
        58        2.0000           -0.5334225             -14.5152
        59        2.0000           -0.5298029             -14.4167
        60        2.0000           -0.5297646             -14.4156 (HOMO)
        61                         -0.3806553             -10.3582 (LUMO)
        62                         -0.3742493             -10.1838
        63                         -0.3740921             -10.1796
        64                         -0.3638663              -9.9013
        65                         -0.3534425              -9.6177
        66                         -0.3520875              -9.5808
        67                         -0.3507495              -9.5444
        68                         -0.3507190              -9.5435
        69                         -0.2630879              -7.1590
        70                         -0.2629409              -7.1550
        71                         -0.2614935              -7.1156
       ...                                ...                  ...
       125                          0.8127626              22.1164
      -------------------------------------------------------------
                  HL-Gap            0.1491093 Eh            4.0575 eV

     #   Z          covCN         q      C6AA      α(0)
     1   6 C        2.922     0.004    27.934     8.667
     2   6 C        3.015    -0.021    28.518     8.760
     3   6 C        2.919    -0.019    28.478     8.751
     4   6 C        2.920    -0.012    28.325     8.728
     5   6 C        2.919    -0.018    28.459     8.748
     6   6 C        2.993    -0.021    28.532     8.762
     7  15 P        4.413     0.131   154.522    22.330
     8   6 C        2.922     0.004    27.932     8.667
     9   6 C        3.015    -0.021    28.518     8.760
    10   6 C        2.919    -0.019    28.477     8.751
    11   6 C        2.920    -0.012    28.324     8.727
    12   6 C        2.919    -0.018    28.459     8.748
    13   6 C        2.992    -0.021    28.529     8.762
    14   6 C        2.922     0.004    27.931     8.667
    15   6 C        2.992    -0.021    28.528     8.761
    16   6 C        2.919    -0.018    28.458     8.748
    17   6 C        2.920    -0.012    28.325     8.727
    18   6 C        2.919    -0.019    28.478     8.751
    19   6 C        3.015    -0.021    28.518     8.760
    20   6 C        2.922     0.004    27.935     8.667
    21   6 C        2.992    -0.021    28.528     8.761
    22   6 C        2.919    -0.018    28.458     8.748
    23   6 C        2.920    -0.012    28.325     8.728
    24   6 C        2.919    -0.019    28.478     8.751
    25   6 C        3.016    -0.021    28.518     8.760
    26   1 H        0.925     0.053     2.288     2.365
    27   1 H        0.926     0.065     2.141     2.288
    28   1 H        0.926     0.068     2.103     2.268
    29   1 H        0.926     0.065     2.138     2.287
    30   1 H        0.926     0.054     2.276     2.359
    31   1 H        0.925     0.053     2.287     2.365
    32   1 H        0.926     0.065     2.140     2.288
    33   1 H        0.926     0.068     2.102     2.267
    34   1 H        0.926     0.065     2.137     2.286
    35   1 H        0.926     0.054     2.276     2.359
    36   1 H        0.926     0.054     2.275     2.359
    37   1 H        0.926     0.065     2.137     2.286
    38   1 H        0.926     0.068     2.102     2.267
    39   1 H        0.926     0.065     2.140     2.288
    40   1 H        0.925     0.053     2.287     2.365
    41   1 H        0.926     0.053     2.277     2.360
    42   1 H        0.926     0.065     2.138     2.286
    43   1 H        0.926     0.068     2.102     2.267
    44   1 H        0.926     0.065     2.141     2.288
    45   1 H        0.925     0.053     2.288     2.365

Wiberg/Mayer (AO) data.
largest (>0.10) Wiberg bond orders for each atom

     #   Z sym  total        # sym  WBO       # sym  WBO       # sym  WBO
 ---------------------------------------------------------------------------
     1   6 C    3.972 --     6 C    1.382     2 C    1.367     7 P    0.993
                             4 C    0.102
     2   6 C    3.990 --     3 C    1.454     1 C    1.367    26 H    0.957
                             5 C    0.108
     3   6 C    3.987 --     2 C    1.454     4 C    1.429    27 H    0.966
                             6 C    0.105
     4   6 C    3.980 --     5 C    1.438     3 C    1.429    28 H    0.968
                             1 C    0.102
     5   6 C    3.989 --     6 C    1.443     4 C    1.438    29 H    0.966
                             2 C    0.108
     6   6 C    3.989 --     5 C    1.443     1 C    1.382    30 H    0.957
                             3 C    0.105
     7  15 P    4.618 --    20 C    0.993    14 C    0.993     1 C    0.993
                             8 C    0.993
     8   6 C    3.972 --    13 C    1.382     9 C    1.367     7 P    0.993
                            11 C    0.102
     9   6 C    3.990 --    10 C    1.454     8 C    1.367    31 H    0.957
                            12 C    0.108
    10   6 C    3.987 --     9 C    1.454    11 C    1.429    32 H    0.966
                            13 C    0.105
    11   6 C    3.980 --    12 C    1.438    10 C    1.429    33 H    0.968
                             8 C    0.102
    12   6 C    3.989 --    13 C    1.443    11 C    1.438    34 H    0.966
                             9 C    0.108
    13   6 C    3.989 --    12 C    1.443     8 C    1.382    35 H    0.957
                            10 C    0.105
    14   6 C    3.972 --    15 C    1.382    19 C    1.367     7 P    0.993
                            17 C    0.102
    15   6 C    3.989 --    16 C    1.443    14 C    1.382    36 H    0.957
                            18 C    0.105
    16   6 C    3.988 --    15 C    1.443    17 C    1.438    37 H    0.966
                            19 C    0.108
    17   6 C    3.980 --    16 C    1.438    18 C    1.429    38 H    0.968
                            14 C    0.102
    18   6 C    3.987 --    19 C    1.454    17 C    1.429    39 H    0.966
                            15 C    0.105
    19   6 C    3.990 --    18 C    1.454    14 C    1.367    40 H    0.957
                            16 C    0.108
    20   6 C    3.972 --    21 C    1.382    25 C    1.366     7 P    0.993
                            23 C    0.102
    21   6 C    3.989 --    22 C    1.443    20 C    1.382    41 H    0.957
                            24 C    0.105
    22   6 C    3.988 --    21 C    1.443    23 C    1.438    42 H    0.966
                            25 C    0.108
    23   6 C    3.980 --    22 C    1.438    24 C    1.428    43 H    0.968
                            20 C    0.102
    24   6 C    3.987 --    25 C    1.454    23 C    1.428    44 H    0.966
                            21 C    0.105
    25   6 C    3.990 --    24 C    1.454    20 C    1.366    45 H    0.956
                            22 C    0.108
    26   1 H    0.997 --     2 C    0.957
    27   1 H    0.995 --     3 C    0.966
    28   1 H    0.995 --     4 C    0.968
    29   1 H    0.995 --     5 C    0.966
    30   1 H    0.997 --     6 C    0.957
    31   1 H    0.997 --     9 C    0.957
    32   1 H    0.995 --    10 C    0.966
    33   1 H    0.995 --    11 C    0.968
    34   1 H    0.995 --    12 C    0.966
    35   1 H    0.997 --    13 C    0.957
    36   1 H    0.997 --    15 C    0.957
    37   1 H    0.995 --    16 C    0.966
    38   1 H    0.995 --    17 C    0.968
    39   1 H    0.995 --    18 C    0.966
    40   1 H    0.997 --    19 C    0.957
    41   1 H    0.997 --    21 C    0.957
    42   1 H    0.995 --    22 C    0.966
    43   1 H    0.995 --    23 C    0.968
    44   1 H    0.995 --    24 C    0.966
    45   1 H    0.997 --    25 C    0.956
 ---------------------------------------------------------------------------

molecular dipole:
                 x           y           z       tot (Debye)
 q only:        6.022      -1.115       0.500
   full:        6.022      -1.115       0.500      15.618

           -------------------------------------------------
          | TOTAL ENERGY              -63.672073667904 Eh   |
          | GRADIENT NORM               0.000781167705 Eh/α |
          | HOMO-LUMO GAP               4.057469802605 eV   |
           -------------------------------------------------

 * finished run on 2024/12/20 at 06:57:09.237
