   * xtb version 6.7.1 (edcfbbe) compiled by 'conda@3ef47c1a292c' on 2024-11-25

   ID    Z sym.   atoms
    1    6 C      1, 3-5
    2   15 P      2
    3    1 H      6-17

          program call               : xtb C0761.xyz --opt --namespace C0761 --charge +1
          :  Hamiltonian                  GFN2-xTB          :
 * total energy  :   -16.7982658 Eh     change       -0.1108447E-11 Eh
 * total energy  :   -16.8013570 Eh     change       -0.3091261E-02 Eh
 * total energy  :   -16.8022657 Eh     change       -0.9086398E-03 Eh
 * total energy  :   -16.8022822 Eh     change       -0.1654666E-04 Eh
 * total energy  :   -16.8022823 Eh     change       -0.9176297E-07 Eh
   *** GEOMETRY OPTIMIZATION CONVERGED AFTER 5 ITERATIONS ***

 final structure:
================
17
 xtb: 6.7.1 (edcfbbe)
C            0.92340767686482       -0.02051702000141       -0.04962715458950
P            0.32081739277641       -0.31828915591354        1.62857384539477
C            0.92335588051897        0.98623065488973        2.72553985836852
C           -1.48698143824125       -0.31803848572453        1.62856977842060
C            0.92348824759356       -1.92049341128145        2.20981385754121
H            0.56304111605635        0.94393555705349       -0.40543465167716
H            0.56352405497058       -0.80394887338336       -0.71547728603778
H            2.01271582417514       -0.01912476281578       -0.05585992985048
H            0.56301567526112        1.95447545324057        2.38015270972907
H            0.56332935928849        0.81193753635184        3.73877350034589
H            2.01266163500679        0.99132103984702        2.72958098234648
H           -1.85631101873532       -1.10234622961004        0.96895104338577
H           -1.85612821468104       -0.49697822934838        2.63770145281083
H           -1.85577285918711        0.64552710519990        1.27905433767867
H            0.56355456593209       -2.71093981162002        1.55233880184010
H            2.01280079164624       -1.92625938850330        2.21201331295030
H            0.56338131075414       -2.10559197838074        3.22109554134270

          :  Hamiltonian                  GFN2-xTB          :
         :: total energy             -16.802282290886 Eh    ::
         :: gradient norm              0.000109838427 Eh/a0 ::
         :: HOMO-LUMO gap              9.388740632225 eV    ::
         :: SCC energy               -17.057965519607 Eh    ::
         :: -> dispersion             -0.009216649016 Eh    ::
         :: repulsion energy           0.255683228721 Eh    ::

    * Orbital Energies and Occupations

         #    Occupation            Energy/Eh            Energy/eV
      -------------------------------------------------------------
         1        2.0000           -0.8692711             -23.6541
       ...           ...                  ...                  ...
         4        2.0000           -0.7724458             -21.0193
         5        2.0000           -0.7359275             -20.0256
         6        2.0000           -0.6805981             -18.5200
         7        2.0000           -0.6805932             -18.5199
         8        2.0000           -0.6805906             -18.5198
         9        2.0000           -0.6583101             -17.9135
        10        2.0000           -0.6583057             -17.9134
        11        2.0000           -0.6463784             -17.5889
        12        2.0000           -0.6463770             -17.5888
        13        2.0000           -0.6463748             -17.5888
        14        2.0000           -0.6250229             -17.0077
        15        2.0000           -0.6250198             -17.0077
        16        2.0000           -0.6250179             -17.0076 (HOMO)
        17                         -0.2799880              -7.6189 (LUMO)
        18                         -0.2799726              -7.6184
        19                         -0.2799443              -7.6177
        20                         -0.1878567              -5.1118
        21                         -0.0704151              -1.9161
        22                         -0.0704017              -1.9157
        23                         -0.0179840              -0.4894
        24                         -0.0042735              -0.1163
        25                         -0.0042529              -0.1157
        26                         -0.0042383              -0.1153
        27                          0.0259729               0.7068
       ...                                ...                  ...
        37                          0.7030529              19.1310
      -------------------------------------------------------------
                  HL-Gap            0.3450299 Eh            9.3887 eV

     #   Z          covCN         q      C6AA      α(0)
     1   6 C        3.701    -0.140    23.366     6.913
     2  15 P        3.731     0.198   151.743    22.128
     3   6 C        3.701    -0.140    23.366     6.913
     4   6 C        3.701    -0.140    23.366     6.913
     5   6 C        3.701    -0.140    23.366     6.913
     6   1 H        0.927     0.113     1.667     2.019
     7   1 H        0.927     0.113     1.667     2.019
     8   1 H        0.927     0.113     1.667     2.019
     9   1 H        0.927     0.113     1.667     2.019
    10   1 H        0.927     0.113     1.667     2.019
    11   1 H        0.927     0.113     1.667     2.019
    12   1 H        0.927     0.113     1.667     2.019
    13   1 H        0.927     0.113     1.667     2.019
    14   1 H        0.927     0.113     1.667     2.019
    15   1 H        0.927     0.113     1.667     2.019
    16   1 H        0.927     0.113     1.667     2.019
    17   1 H        0.927     0.113     1.667     2.019

Wiberg/Mayer (AO) data.
largest (>0.10) Wiberg bond orders for each atom

     #   Z sym  total        # sym  WBO       # sym  WBO       # sym  WBO
 ---------------------------------------------------------------------------
     1   6 C    3.985 --     2 P    1.057     8 H    0.940     7 H    0.940
                             6 H    0.940
     2  15 P    4.669 --     5 C    1.057     4 C    1.057     1 C    1.057
                             3 C    1.057
     3   6 C    3.985 --     2 P    1.057    11 H    0.940    10 H    0.940
                             9 H    0.940
     4   6 C    3.985 --     2 P    1.057    12 H    0.940    13 H    0.940
                            14 H    0.940
     5   6 C    3.985 --     2 P    1.057    15 H    0.940    17 H    0.940
                            16 H    0.940
     6   1 H    0.987 --     1 C    0.940
     7   1 H    0.987 --     1 C    0.940
     8   1 H    0.987 --     1 C    0.940
     9   1 H    0.987 --     3 C    0.940
    10   1 H    0.987 --     3 C    0.940
    11   1 H    0.987 --     3 C    0.940
    12   1 H    0.987 --     4 C    0.940
    13   1 H    0.987 --     4 C    0.940
    14   1 H    0.987 --     4 C    0.940
    15   1 H    0.987 --     5 C    0.940
    16   1 H    0.987 --     5 C    0.940
    17   1 H    0.987 --     5 C    0.940
 ---------------------------------------------------------------------------

molecular dipole:
                 x           y           z       tot (Debye)
 q only:        0.606      -0.601       3.078
   full:        0.606      -0.601       3.078       8.118

           -------------------------------------------------
          | TOTAL ENERGY              -16.802282290886 Eh   |
          | GRADIENT NORM               0.000109838427 Eh/α |
          | HOMO-LUMO GAP               9.388740632225 eV   |
           -------------------------------------------------

 * finished run on 2024/12/20 at 06:55:33.666
