   * xtb version 6.7.1 (edcfbbe) compiled by 'conda@3ef47c1a292c' on 2024-11-25

   ID    Z sym.   atoms
    1    8 O      1, 12
    2    7 N      2, 9
    3    6 C      3-8, 10, 11
    4    1 H      13-23

          program call               : xtb C0764.xyz --opt --namespace C0764 --charge +1
          :  Hamiltonian                  GFN2-xTB          :
 * total energy  :   -36.2288201 Eh     change       -0.7270131E-09 Eh
 * total energy  :   -36.2357384 Eh     change       -0.6918277E-02 Eh
 * total energy  :   -36.2374900 Eh     change       -0.1751616E-02 Eh
 * total energy  :   -36.2378580 Eh     change       -0.3680029E-03 Eh
 * total energy  :   -36.2379382 Eh     change       -0.8020676E-04 Eh
 * total energy  :   -36.2379662 Eh     change       -0.2799264E-04 Eh
 * total energy  :   -36.2379758 Eh     change       -0.9576442E-05 Eh
 * total energy  :   -36.2379819 Eh     change       -0.6102666E-05 Eh
 * total energy  :   -36.2379866 Eh     change       -0.4662395E-05 Eh
   *** GEOMETRY OPTIMIZATION CONVERGED AFTER 9 ITERATIONS ***

 final structure:
================
23
 xtb: 6.7.1 (edcfbbe)
O           -0.00451288748103       -1.04323531233989       -1.26150318032188
N           -0.20222171916358        0.31062773091783       -1.34006135599834
C           -1.07678095168193        0.82666083417386       -0.59368926969469
C           -1.88111125397496        0.13548434334016        0.44684266364062
C           -1.52479884771061        0.29958778475747        1.78025877025193
C           -2.21479517068625       -0.37880350003304        2.77026781547777
C           -3.26891286339090       -1.20722202043204        2.40176025167051
C           -3.59968125466404       -1.31669424448666        1.07006602582449
N           -2.91276450440396       -0.66265979757028        0.12237631165669
C           -3.31279124982715       -0.85635915627743       -1.26319948792953
C           -2.95390992499518       -2.26711065134220       -1.74881508318334
O           -3.77677327611990       -3.18155547895956       -1.06521666926005
H            0.74772934582667       -1.22459501380349       -1.84843083164348
H           -1.17408757793915        1.90068363434477       -0.67296049712904
H           -0.69927819240629        0.95051593714630        2.02289379215144
H           -1.93862334646124       -0.26266535894560        3.80635044013983
H           -3.83343847142591       -1.75427884009078        3.13881013563071
H           -4.40583956078691       -1.94902317713153        0.72788032820460
H           -4.39727036377471       -0.73930359362201       -1.32972255283820
H           -2.82598253429519       -0.11194654220801       -1.89322955845533
H           -3.13006043641559       -2.30217008555754       -2.83024795180331
H           -1.89256838567435       -2.47096668675661       -1.55347255081559
H           -3.66795657254781       -4.06292080512374       -1.43667754557573

          :  Hamiltonian                  GFN2-xTB          :
         :: total energy             -36.237986556424 Eh    ::
         :: gradient norm              0.000756624511 Eh/a0 ::
         :: HOMO-LUMO gap              2.559259343197 eV    ::
         :: SCC energy               -36.712915762611 Eh    ::
         :: -> dispersion             -0.019287616915 Eh    ::
         :: repulsion energy           0.474929206186 Eh    ::

    * Orbital Energies and Occupations

         #    Occupation            Energy/Eh            Energy/eV
      -------------------------------------------------------------
         1        2.0000           -0.8734596             -23.7680
       ...           ...                  ...                  ...
        20        2.0000           -0.6730413             -18.3144
        21        2.0000           -0.6703179             -18.2403
        22        2.0000           -0.6572853             -17.8856
        23        2.0000           -0.6512820             -17.7223
        24        2.0000           -0.6363218             -17.3152
        25        2.0000           -0.6291984             -17.1214
        26        2.0000           -0.6229281             -16.9507
        27        2.0000           -0.6159257             -16.7602
        28        2.0000           -0.6020351             -16.3822
        29        2.0000           -0.5998831             -16.3237
        30        2.0000           -0.5771210             -15.7043
        31        2.0000           -0.5544013             -15.0860
        32        2.0000           -0.5466645             -14.8755 (HOMO)
        33                         -0.4526135             -12.3162 (LUMO)
        34                         -0.4237719             -11.5314
        35                         -0.3979139             -10.8278
        36                         -0.3013190              -8.1993
        37                         -0.1765793              -4.8050
        38                         -0.1721612              -4.6847
        39                         -0.1001575              -2.7254
        40                         -0.0837838              -2.2799
        41                         -0.0569607              -1.5500
        42                         -0.0266347              -0.7248
        43                         -0.0235048              -0.6396
       ...                                ...                  ...
        59                          0.4563491              12.4179
      -------------------------------------------------------------
                  HL-Gap            0.0940511 Eh            2.5593 eV

     #   Z          covCN         q      C6AA      α(0)
     1   8 O        1.728    -0.328    19.483     5.960
     2   7 N        1.830    -0.047    22.874     7.087
     3   6 C        2.829     0.032    27.282     8.559
     4   6 C        2.933     0.082    26.173     8.390
     5   6 C        2.922    -0.018    28.455     8.748
     6   6 C        2.923     0.012    27.748     8.638
     7   6 C        2.916    -0.012    28.325     8.727
     8   6 C        2.891     0.035    27.218     8.554
     9   7 N        2.751     0.105    19.437     6.548
    10   6 C        3.758    -0.032    21.192     6.563
    11   6 C        3.674     0.073    19.580     6.341
    12   8 O        1.656    -0.438    21.598     6.274
    13   1 H        0.804     0.343     0.605     1.222
    14   1 H        0.925     0.107     1.723     2.052
    15   1 H        0.926     0.101     1.774     2.083
    16   1 H        0.926     0.106     1.735     2.060
    17   1 H        0.926     0.108     1.714     2.047
    18   1 H        0.926     0.136     1.492     1.910
    19   1 H        0.924     0.108     1.715     2.048
    20   1 H        0.925     0.091     1.872     2.140
    21   1 H        0.924     0.064     2.158     2.297
    22   1 H        0.923     0.060     2.203     2.321
    23   1 H        0.805     0.314     0.679     1.295

Wiberg/Mayer (AO) data.
largest (>0.10) Wiberg bond orders for each atom

     #   Z sym  total        # sym  WBO       # sym  WBO       # sym  WBO
 ---------------------------------------------------------------------------
     1   8 O    2.120 --     2 N    1.074    13 H    0.872     3 C    0.127
     2   7 N    3.047 --     3 C    1.860     1 O    1.074
     3   6 C    3.977 --     2 N    1.860     4 C    1.001    14 H    0.931
                             1 O    0.127
     4   6 C    3.960 --     5 C    1.405     9 N    1.300     3 C    1.001
     5   6 C    3.983 --     6 C    1.443     4 C    1.405    15 H    0.960
     6   6 C    3.971 --     5 C    1.443     7 C    1.406    16 H    0.960
     7   6 C    3.982 --     8 C    1.474     6 C    1.406    17 H    0.959
     8   6 C    3.948 --     7 C    1.474     9 N    1.315    18 H    0.944
     9   7 N    3.759 --     8 C    1.315     4 C    1.300    10 C    0.967
    10   6 C    3.943 --    11 C    0.983     9 N    0.967    20 H    0.962
                            19 H    0.955
    11   6 C    3.956 --    12 O    1.007    10 C    0.983    21 H    0.963
                            22 H    0.962
    12   8 O    1.958 --    11 C    1.007    23 H    0.885
    13   1 H    0.882 --     1 O    0.872
    14   1 H    0.989 --     3 C    0.931
    15   1 H    0.990 --     5 C    0.960
    16   1 H    0.988 --     6 C    0.960
    17   1 H    0.987 --     7 C    0.959
    18   1 H    0.982 --     8 C    0.944
    19   1 H    0.988 --    10 C    0.955
    20   1 H    0.991 --    10 C    0.962
    21   1 H    0.995 --    11 C    0.963
    22   1 H    0.996 --    11 C    0.962
    23   1 H    0.901 --    12 O    0.885
 ---------------------------------------------------------------------------

molecular dipole:
                 x           y           z       tot (Debye)
 q only:       -4.491      -1.424       0.367
   full:       -4.451      -1.570       0.338      12.027

           -------------------------------------------------
          | TOTAL ENERGY              -36.237986556424 Eh   |
          | GRADIENT NORM               0.000756624511 Eh/α |
          | HOMO-LUMO GAP               2.559259343197 eV   |
           -------------------------------------------------

 * finished run on 2024/12/20 at 06:55:38.273
