   * xtb version 6.7.1 (edcfbbe) compiled by 'conda@3ef47c1a292c' on 2024-11-25

   ID    Z sym.   atoms
    1    6 C      1-3, 5-9
    2    7 N      4
    3    8 O      10
    4    1 H      11-20

          program call               : xtb C0763.xyz --opt --namespace C0763 --charge +1
          :  Hamiltonian                  GFN2-xTB          :
 * total energy  :   -28.7708692 Eh     change       -0.7806662E-09 Eh
 * total energy  :   -28.7741976 Eh     change       -0.3328464E-02 Eh
 * total energy  :   -28.7749048 Eh     change       -0.7072073E-03 Eh
 * total energy  :   -28.7749739 Eh     change       -0.6902622E-04 Eh
 * total energy  :   -28.7750100 Eh     change       -0.3608781E-04 Eh
 * total energy  :   -28.7750197 Eh     change       -0.9721618E-05 Eh
 * total energy  :   -28.7750300 Eh     change       -0.1029498E-04 Eh
 * total energy  :   -28.7750339 Eh     change       -0.3942236E-05 Eh
   *** GEOMETRY OPTIMIZATION CONVERGED AFTER 8 ITERATIONS ***

 final structure:
================
20
 xtb: 6.7.1 (edcfbbe)
C            0.97041977606194        0.07744632296336        0.23698275935051
C            0.21707404366973        0.93793435669997        0.89282149307489
C           -1.29044803518343        0.93742394474083        0.83151389566779
N           -1.84330387800052        0.73345130177090        2.16569964744514
C           -1.86122795095450       -0.49924652701989        2.67420359041527
C           -2.32366169813574       -0.72565400468962        3.95909336354371
C           -2.76609293136513        0.33231766240548        4.72537794807469
C           -2.73652179757938        1.62902567346340        4.18494745101947
C           -2.25836174415130        1.78248065796927        2.88296569599204
O           -3.16249098033489        2.63466992541486        4.93122617694728
H            0.55224373690359       -0.68983823531085       -0.39365384248503
H            2.04380971400063        0.12033380841441        0.28558221827356
H            0.65250883050152        1.70913671610790        1.51226366545142
H           -1.64821035579948        1.89279601976164        0.44044916762334
H           -1.63604698180857        0.13651482492639        0.17516827734498
H           -1.50044025879839       -1.29962465076239        2.04728105587788
H           -2.33489406452905       -1.72997378399688        4.35027969646399
H           -3.13562036657455        0.19762888198932        5.72953203752109
H           -2.21365084323699        2.75611064919808        2.41409024009848
H           -3.11907421468545        3.49997645595384        4.50028546229956

          :  Hamiltonian                  GFN2-xTB          :
         :: total energy             -28.775033911773 Eh    ::
         :: gradient norm              0.000614952514 Eh/a0 ::
         :: HOMO-LUMO gap              2.817333937241 eV    ::
         :: SCC energy               -29.232431586015 Eh    ::
         :: -> dispersion             -0.014574822208 Eh    ::
         :: repulsion energy           0.457397674242 Eh    ::

    * Orbital Energies and Occupations

         #    Occupation            Energy/Eh            Energy/eV
      -------------------------------------------------------------
         1        2.0000           -0.8939003             -24.3243
       ...           ...                  ...                  ...
        14        2.0000           -0.7027149             -19.1218
        15        2.0000           -0.6893406             -18.7579
        16        2.0000           -0.6835781             -18.6011
        17        2.0000           -0.6782652             -18.4565
        18        2.0000           -0.6608177             -17.9818
        19        2.0000           -0.6417640             -17.4633
        20        2.0000           -0.6408168             -17.4375
        21        2.0000           -0.6235814             -16.9685
        22        2.0000           -0.6203973             -16.8819
        23        2.0000           -0.6094975             -16.5853
        24        2.0000           -0.5862746             -15.9533
        25        2.0000           -0.5785082             -15.7420
        26        2.0000           -0.5618314             -15.2882 (HOMO)
        27                         -0.4582963             -12.4709 (LUMO)
        28                         -0.4187471             -11.3947
        29                         -0.3593784              -9.7792
        30                         -0.3028242              -8.2403
        31                         -0.1707121              -4.6453
        32                         -0.1018619              -2.7718
        33                         -0.0687375              -1.8704
        34                         -0.0498598              -1.3568
        35                         -0.0429454              -1.1686
        36                         -0.0187678              -0.5107
        37                         -0.0106236              -0.2891
       ...                                ...                  ...
        50                          0.4750518              12.9268
      -------------------------------------------------------------
                  HL-Gap            0.1035351 Eh            2.8173 eV

     #   Z          covCN         q      C6AA      α(0)
     1   6 C        2.837    -0.076    29.883     8.958
     2   6 C        2.886    -0.040    28.992     8.828
     3   6 C        3.764    -0.035    21.239     6.569
     4   7 N        2.750     0.112    19.315     6.527
     5   6 C        2.892     0.018    27.597     8.613
     6   6 C        2.914    -0.012    28.319     8.726
     7   6 C        2.923    -0.016    28.402     8.740
     8   6 C        2.839     0.178    24.179     8.058
     9   6 C        2.887    -0.018    28.448     8.744
    10   8 O        1.661    -0.314    19.260     5.925
    11   1 H        0.926     0.072     2.068     2.249
    12   1 H        0.926     0.087     1.911     2.162
    13   1 H        0.926     0.061     2.187     2.313
    14   1 H        0.924     0.095     1.827     2.114
    15   1 H        0.924     0.100     1.783     2.088
    16   1 H        0.926     0.112     1.683     2.028
    17   1 H        0.926     0.114     1.664     2.017
    18   1 H        0.926     0.122     1.595     1.975
    19   1 H        0.925     0.099     1.790     2.092
    20   1 H        0.805     0.340     0.613     1.230

Wiberg/Mayer (AO) data.
largest (>0.10) Wiberg bond orders for each atom

     #   Z sym  total        # sym  WBO       # sym  WBO       # sym  WBO
 ---------------------------------------------------------------------------
     1   6 C    3.979 --     2 C    1.987    11 H    0.971    12 H    0.967
     2   6 C    3.979 --     1 C    1.987     3 C    0.987    13 H    0.963
     3   6 C    3.932 --     2 C    0.987    15 H    0.957    14 H    0.955
                             4 N    0.953
     4   7 N    3.767 --     5 C    1.339     9 C    1.326     3 C    0.953
     5   6 C    3.958 --     6 C    1.421     4 N    1.339    16 H    0.954
     6   6 C    3.981 --     7 C    1.474     5 C    1.421    17 H    0.958
     7   6 C    3.973 --     6 C    1.474     8 C    1.306    18 H    0.956
     8   6 C    3.953 --     9 C    1.355     7 C    1.306    10 O    1.176
     9   6 C    3.959 --     8 C    1.355     4 N    1.326    19 H    0.953
    10   8 O    2.240 --     8 C    1.176    20 H    0.862
    11   1 H    0.995 --     1 C    0.971
    12   1 H    0.990 --     1 C    0.967
    13   1 H    0.996 --     2 C    0.963
    14   1 H    0.991 --     3 C    0.955
    15   1 H    0.990 --     3 C    0.957
    16   1 H    0.987 --     5 C    0.954
    17   1 H    0.987 --     6 C    0.958
    18   1 H    0.985 --     7 C    0.956
    19   1 H    0.990 --     9 C    0.953
    20   1 H    0.885 --    10 O    0.862
 ---------------------------------------------------------------------------

molecular dipole:
                 x           y           z       tot (Debye)
 q only:       -3.441       1.579       4.862
   full:       -3.468       1.774       4.689      15.495

           -------------------------------------------------
          | TOTAL ENERGY              -28.775033911773 Eh   |
          | GRADIENT NORM               0.000614952514 Eh/α |
          | HOMO-LUMO GAP               2.817333937241 eV   |
           -------------------------------------------------

 * finished run on 2024/12/20 at 06:55:37.812
