   * xtb version 6.7.1 (edcfbbe) compiled by 'conda@3ef47c1a292c' on 2024-11-25

   ID    Z sym.   atoms
    1    6 C      1, 2, 4, 5, 7-10
    2    7 N      3, 6
    3    1 H      11-25

          program call               : xtb C0760.xyz --opt --namespace C0760 --charge +1
          :  Hamiltonian                  GFN2-xTB          :
 * total energy  :   -30.2671055 Eh     change       -0.3013188E-08 Eh
 * total energy  :   -30.2706830 Eh     change       -0.3577501E-02 Eh
 * total energy  :   -30.2714220 Eh     change       -0.7389095E-03 Eh
 * total energy  :   -30.2715243 Eh     change       -0.1023404E-03 Eh
 * total energy  :   -30.2715800 Eh     change       -0.5574139E-04 Eh
 * total energy  :   -30.2715967 Eh     change       -0.1662508E-04 Eh
 * total energy  :   -30.2716097 Eh     change       -0.1300177E-04 Eh
 * total energy  :   -30.2716184 Eh     change       -0.8784399E-05 Eh
 * total energy  :   -30.2716237 Eh     change       -0.5296589E-05 Eh
 * total energy  :   -30.2716268 Eh     change       -0.3033355E-05 Eh
   *** GEOMETRY OPTIMIZATION CONVERGED AFTER 10 ITERATIONS ***

 final structure:
================
25
 xtb: 6.7.1 (edcfbbe)
C            1.40565529050720        0.10207302904107       -0.08907136358845
C            0.66636919180755       -1.18414979157388       -0.41849445394174
N            0.96597114839680       -2.26268873088539        0.50839753828997
C            1.52087382335177       -2.12956710398568        1.74814828356006
C            1.61245398230158       -3.37279896398026        2.28696717454513
N            1.11068462794380       -4.25047021252901        1.37250273274179
C            0.72346773893710       -3.56269487915572        0.29042349762037
C            0.08749041469241       -4.14996936436171       -0.91384245689555
C           -1.44365530347666       -4.07826776995681       -0.83014635660684
C            1.02963990228000       -5.67719958823795        1.55126918409070
H            1.05516883082933        0.53912398017694        0.84176013792468
H            1.22008406831492        0.82129169369617       -0.88176475739440
H            2.47801432886205       -0.06605140032537       -0.02999570140166
H           -0.41300474006186       -1.00298909589242       -0.40335833943358
H            0.94052535383537       -1.51767424299411       -1.42284017125604
H            1.80873994909727       -1.18639973400632        2.16056163883925
H            1.99181248856945       -3.68533111632639        3.23778411961703
H            0.42241495819140       -3.61638459175657       -1.80496018422239
H            0.39508173552517       -5.19133204262501       -1.01209072381484
H           -1.78744248907127       -3.04892610589325       -0.78644113118631
H           -1.87415188817836       -4.54281136049968       -1.71157442736518
H           -1.81249572163376       -4.60257408411756        0.04727995029948
H            0.00843062088363       -6.02632106733321        1.40076573974305
H            1.68674321503399       -6.19067881062306        0.84777247542066
H            1.34058847306124       -5.92600864585487        2.56314759441479

          :  Hamiltonian                  GFN2-xTB          :
         :: total energy             -30.271626774533 Eh    ::
         :: gradient norm              0.000193602611 Eh/a0 ::
         :: HOMO-LUMO gap              4.664561048571 eV    ::
         :: SCC energy               -30.736709106082 Eh    ::
         :: -> dispersion             -0.018035595731 Eh    ::
         :: repulsion energy           0.465082331549 Eh    ::

    * Orbital Energies and Occupations

         #    Occupation            Energy/Eh            Energy/eV
      -------------------------------------------------------------
         1        2.0000           -0.8862892             -24.1172
       ...           ...                  ...                  ...
        16        2.0000           -0.6680316             -18.1781
        17        2.0000           -0.6525465             -17.7567
        18        2.0000           -0.6495643             -17.6755
        19        2.0000           -0.6477852             -17.6271
        20        2.0000           -0.6336296             -17.2419
        21        2.0000           -0.6300720             -17.1451
        22        2.0000           -0.6223512             -16.9350
        23        2.0000           -0.6074479             -16.5295
        24        2.0000           -0.6001136             -16.3299
        25        2.0000           -0.5945132             -16.1775
        26        2.0000           -0.5922369             -16.1156
        27        2.0000           -0.5816956             -15.8287
        28        2.0000           -0.5671831             -15.4338 (HOMO)
        29                         -0.3957636             -10.7693 (LUMO)
        30                         -0.3604127              -9.8073
        31                         -0.1869359              -5.0868
        32                         -0.1304813              -3.5506
        33                         -0.0685069              -1.8642
        34                         -0.0647351              -1.7615
        35                         -0.0466970              -1.2707
        36                         -0.0344896              -0.9385
        37                         -0.0259716              -0.7067
        38                         -0.0106477              -0.2897
        39                         -0.0030075              -0.0818
       ...                                ...                  ...
        55                          0.4763718              12.9627
      -------------------------------------------------------------
                  HL-Gap            0.1714195 Eh            4.6646 eV

     #   Z          covCN         q      C6AA      α(0)
     1   6 C        3.752    -0.126    22.974     6.835
     2   6 C        3.739    -0.015    20.916     6.526
     3   7 N        2.868     0.039    20.555     6.734
     4   6 C        3.051    -0.009    28.183     8.707
     5   6 C        3.052    -0.012    28.258     8.718
     6   7 N        2.869     0.049    20.381     6.705
     7   6 C        3.111     0.096    25.727     8.310
     8   6 C        3.803    -0.073    21.894     6.662
     9   6 C        3.753    -0.115    22.754     6.802
    10   6 C        3.692    -0.079    22.208     6.743
    11   1 H        0.925     0.067     2.117     2.275
    12   1 H        0.925     0.082     1.960     2.189
    13   1 H        0.925     0.067     2.118     2.276
    14   1 H        0.924     0.084     1.934     2.175
    15   1 H        0.924     0.082     1.956     2.187
    16   1 H        0.927     0.108     1.714     2.047
    17   1 H        0.926     0.102     1.767     2.079
    18   1 H        0.924     0.081     1.971     2.196
    19   1 H        0.924     0.083     1.949     2.183
    20   1 H        0.925     0.056     2.247     2.344
    21   1 H        0.925     0.079     1.991     2.207
    22   1 H        0.925     0.056     2.244     2.343
    23   1 H        0.925     0.098     1.807     2.102
    24   1 H        0.924     0.096     1.822     2.111
    25   1 H        0.925     0.102     1.764     2.077

Wiberg/Mayer (AO) data.
largest (>0.10) Wiberg bond orders for each atom

     #   Z sym  total        # sym  WBO       # sym  WBO       # sym  WBO
 ---------------------------------------------------------------------------
     1   6 C    3.982 --     2 C    1.019    13 H    0.983    11 H    0.982
                            12 H    0.976
     2   6 C    3.944 --     1 C    1.019     3 N    0.964    15 H    0.958
                            14 H    0.954
     3   7 N    3.695 --     7 C    1.328     4 C    1.216     2 C    0.964
     4   6 C    3.948 --     5 C    1.600     3 N    1.216    16 H    0.959
     5   6 C    3.948 --     4 C    1.600     6 N    1.214    17 H    0.961
     6   7 N    3.698 --     7 C    1.324     5 C    1.214    10 C    0.991
     7   6 C    3.947 --     3 N    1.328     6 N    1.324     8 C    1.028
     8   6 C    3.982 --     7 C    1.028     9 C    0.983    19 H    0.962
                            18 H    0.955
     9   6 C    3.984 --    22 H    0.986    20 H    0.985     8 C    0.983
                            21 H    0.979
    10   6 C    3.938 --     6 N    0.991    25 H    0.974    23 H    0.967
                            24 H    0.963
    11   1 H    0.995 --     1 C    0.982
    12   1 H    0.993 --     1 C    0.976
    13   1 H    0.995 --     1 C    0.983
    14   1 H    0.993 --     2 C    0.954
    15   1 H    0.993 --     2 C    0.958
    16   1 H    0.988 --     4 C    0.959
    17   1 H    0.990 --     5 C    0.961
    18   1 H    0.993 --     8 C    0.955
    19   1 H    0.993 --     8 C    0.962
    20   1 H    0.997 --     9 C    0.985
    21   1 H    0.993 --     9 C    0.979
    22   1 H    0.997 --     9 C    0.986
    23   1 H    0.990 --    10 C    0.967
    24   1 H    0.991 --    10 C    0.963
    25   1 H    0.989 --    10 C    0.974
 ---------------------------------------------------------------------------

molecular dipole:
                 x           y           z       tot (Debye)
 q only:        1.542      -6.179       1.131
   full:        1.572      -6.220       1.158      16.570

           -------------------------------------------------
          | TOTAL ENERGY              -30.271626774533 Eh   |
          | GRADIENT NORM               0.000193602611 Eh/α |
          | HOMO-LUMO GAP               4.664561048571 eV   |
           -------------------------------------------------

 * finished run on 2024/12/20 at 06:55:33.584
