   * xtb version 6.7.1 (edcfbbe) compiled by 'conda@3ef47c1a292c' on 2024-11-25

   ID    Z sym.   atoms
    1    6 C      1-8, 10-18
    2    7 N      9
    3    1 H      19-40

          program call               : xtb C0766.xyz --opt --namespace C0766 --charge +1
          :  Hamiltonian                  GFN2-xTB          :
 * total energy  :   -50.1241832 Eh     change       -0.1591047E-09 Eh
 * total energy  :   -50.1313416 Eh     change       -0.7158435E-02 Eh
 * total energy  :   -50.1330580 Eh     change       -0.1716387E-02 Eh
 * total energy  :   -50.1332841 Eh     change       -0.2261482E-03 Eh
 * total energy  :   -50.1334100 Eh     change       -0.1258880E-03 Eh
 * total energy  :   -50.1334581 Eh     change       -0.4805216E-04 Eh
 * total energy  :   -50.1335224 Eh     change       -0.6436103E-04 Eh
 * total energy  :   -50.1335489 Eh     change       -0.2649368E-04 Eh
 * total energy  :   -50.1335787 Eh     change       -0.2972030E-04 Eh
 * total energy  :   -50.1336247 Eh     change       -0.4600706E-04 Eh
 * total energy  :   -50.1343984 Eh     change       -0.1101557E-04 Eh
 * total energy  :   -50.1344120 Eh     change       -0.1366308E-04 Eh
 * total energy  :   -50.1344305 Eh     change       -0.1842514E-04 Eh
 * total energy  :   -50.1344526 Eh     change       -0.2215738E-04 Eh
 * total energy  :   -50.1344732 Eh     change       -0.2059191E-04 Eh
 * total energy  :   -50.1344865 Eh     change       -0.1327524E-04 Eh
 * total energy  :   -50.1344803 Eh     change        0.6208910E-05 Eh
 * total energy  :   -50.1344952 Eh     change       -0.1498220E-04 Eh
 * total energy  :   -50.1344997 Eh     change       -0.4425750E-05 Eh
   *** GEOMETRY OPTIMIZATION CONVERGED AFTER 33 ITERATIONS ***

 final structure:
================
40
 xtb: 6.7.1 (edcfbbe)
C            0.94791309463002        0.01804589442794       -0.21639644155882
C            0.30591719539493        0.47509425871292       -1.52992619607024
C            0.76266946473127       -0.40001427131115       -2.65334380966548
C            0.05077793608614       -1.53867766267675       -3.01345348707289
C            0.49889565642904       -2.37413925797793       -4.01805733991831
C            1.68435807243782       -2.09563376925573       -4.69039220178016
C            2.40288215959758       -0.96146981547179       -4.34282870407981
C            1.94144270993417       -0.13052537394591       -3.33573849354706
N            2.13174300885834       -3.01639485033535       -5.76744678756227
C            1.10857836008143       -2.96005388691106       -6.87377835445280
C            1.42490061920098       -3.84420362432400       -8.05032435970924
C            0.98853579522558       -5.16541682027351       -8.07616711660904
C            1.27371385871508       -5.97624133156073       -9.16073880302076
C            1.99142245123814       -5.47459584973707      -10.23365394663201
C            2.41123827415100       -4.15486097155192      -10.22593118639532
C            2.12842874042551       -3.34311568562405       -9.14161364696151
C            2.24800799330978       -4.38279874998397       -5.21846103556377
C            3.44909276671769       -2.64958369767775       -6.31681264879421
H            0.66509015339899       -1.00679202055691        0.01101087660223
H            0.62022421414309        0.65596135162682        0.59899456835027
H            2.03183269372452        0.07049907083723       -0.28283202583457
H           -0.77930223995818        0.42531229289163       -1.43574351118628
H            0.58948063394972        1.50969747245423       -1.72623007919496
H           -0.87070694712787       -1.77652242351533       -2.50482990308866
H           -0.09788178807994       -3.23952312972225       -4.26056770355817
H            3.32399408657323       -0.69189281470717       -4.82966206933818
H            2.51589595307958        0.74687757118695       -3.08179532773151
H            0.14471366962061       -3.24458482070188       -6.45043429433918
H            1.04802893587129       -1.91609125203344       -7.19078825873325
H            0.40627936293834       -5.56089361334400       -7.25654860037000
H            0.92777600433531       -6.99780554397503       -9.16988643613330
H            2.21102711603025       -6.10640107758386      -11.07948866681243
H            2.95413949981007       -3.75330337284749      -11.06696200460152
H            2.44153032433281       -2.30921964056112       -9.15498855705638
H            1.28614516839764       -4.74388642394923       -4.86554478307391
H            2.61523091431922       -5.05969571644621       -5.98787546636595
H            2.94422869597544       -4.37599003660207       -4.38124440414376
H            3.41163987390086       -1.66184870024903       -6.77085453394377
H            4.20058174163020       -2.66528877242270       -5.52988620433229
H            3.72778377596974       -3.37060293430418       -7.08375805571780

          :  Hamiltonian                  GFN2-xTB          :
         :: total energy             -50.134499676062 Eh    ::
         :: gradient norm              0.000393763810 Eh/a0 ::
         :: HOMO-LUMO gap              4.292535602739 eV    ::
         :: SCC energy               -51.012881744859 Eh    ::
         :: -> dispersion             -0.038934964287 Eh    ::
         :: repulsion energy           0.878382068797 Eh    ::

    * Orbital Energies and Occupations

         #    Occupation            Energy/Eh            Energy/eV
      -------------------------------------------------------------
         1        2.0000           -0.8482253             -23.0814
       ...           ...                  ...                  ...
        35        2.0000           -0.5948006             -16.1853
        36        2.0000           -0.5882477             -16.0070
        37        2.0000           -0.5845872             -15.9074
        38        2.0000           -0.5682428             -15.4627
        39        2.0000           -0.5552389             -15.1088
        40        2.0000           -0.5444833             -14.8161
        41        2.0000           -0.5421786             -14.7534
        42        2.0000           -0.5393929             -14.6776
        43        2.0000           -0.5364820             -14.5984
        44        2.0000           -0.5303983             -14.4329
        45        2.0000           -0.5279860             -14.3672
        46        2.0000           -0.5246907             -14.2776
        47        2.0000           -0.5238229             -14.2539 (HOMO)
        48                         -0.3660751              -9.9614 (LUMO)
        49                         -0.3592024              -9.7744
        50                         -0.3516293              -9.5683
        51                         -0.3429499              -9.3321
        52                         -0.2359603              -6.4208
        53                         -0.2287567              -6.2248
        54                         -0.1989338              -5.4133
        55                         -0.1425423              -3.8788
        56                         -0.1253364              -3.4106
        57                         -0.1165169              -3.1706
        58                         -0.0541302              -1.4730
       ...                                ...                  ...
        94                          0.5425324              14.7631
      -------------------------------------------------------------
                  HL-Gap            0.1577478 Eh            4.2925 eV

     #   Z          covCN         q      C6AA      α(0)
     1   6 C        3.755    -0.104    22.548     6.771
     2   6 C        3.807    -0.065    21.740     6.637
     3   6 C        2.969     0.035    27.225     8.559
     4   6 C        2.926    -0.029    28.724     8.789
     5   6 C        2.920    -0.041    29.024     8.835
     6   6 C        2.931     0.022    27.517     8.603
     7   6 C        2.918    -0.043    29.074     8.842
     8   6 C        2.928    -0.029    28.736     8.791
     9   7 N        3.623     0.121    19.166     6.502
    10   6 C        3.766    -0.034    21.216     6.565
    11   6 C        2.967    -0.007    28.199     8.710
    12   6 C        2.923    -0.038    28.956     8.824
    13   6 C        2.919    -0.023    28.571     8.765
    14   6 C        2.920    -0.019    28.473     8.750
    15   6 C        2.918    -0.022    28.564     8.764
    16   6 C        2.923    -0.038    28.946     8.823
    17   6 C        3.723    -0.083    22.204     6.729
    18   6 C        3.721    -0.085    22.240     6.735
    19   1 H        0.925     0.044     2.401     2.423
    20   1 H        0.925     0.059     2.213     2.327
    21   1 H        0.925     0.044     2.399     2.422
    22   1 H        0.924     0.057     2.238     2.339
    23   1 H        0.924     0.058     2.228     2.334
    24   1 H        0.926     0.067     2.121     2.277
    25   1 H        0.926     0.048     2.346     2.395
    26   1 H        0.926     0.058     2.221     2.330
    27   1 H        0.926     0.067     2.116     2.275
    28   1 H        0.924     0.083     1.946     2.181
    29   1 H        0.924     0.079     1.986     2.204
    30   1 H        0.926     0.040     2.452     2.449
    31   1 H        0.926     0.058     2.228     2.334
    32   1 H        0.926     0.061     2.188     2.313
    33   1 H        0.926     0.058     2.224     2.332
    34   1 H        0.926     0.041     2.441     2.443
    35   1 H        0.925     0.094     1.838     2.120
    36   1 H        0.925     0.095     1.831     2.116
    37   1 H        0.925     0.091     1.866     2.136
    38   1 H        0.925     0.094     1.842     2.122
    39   1 H        0.925     0.094     1.844     2.124
    40   1 H        0.925     0.096     1.823     2.112

Wiberg/Mayer (AO) data.
largest (>0.10) Wiberg bond orders for each atom

     #   Z sym  total        # sym  WBO       # sym  WBO       # sym  WBO
 ---------------------------------------------------------------------------
     1   6 C    3.992 --     2 C    0.991    19 H    0.988    21 H    0.988
                            20 H    0.983
     2   6 C    3.993 --     3 C    1.022     1 C    0.991    22 H    0.971
                            23 H    0.969
     3   6 C    3.982 --     8 C    1.407     4 C    1.394     2 C    1.022
                             6 C    0.102
     4   6 C    3.988 --     5 C    1.456     3 C    1.394    24 H    0.966
                             7 C    0.103
     5   6 C    3.989 --     4 C    1.456     6 C    1.399    25 H    0.960
                             8 C    0.106
     6   6 C    3.917 --     7 C    1.417     5 C    1.399     9 N    0.907
                             3 C    0.102
     7   6 C    3.988 --     8 C    1.439     6 C    1.417    26 H    0.962
                             4 C    0.103
     8   6 C    3.988 --     7 C    1.439     3 C    1.407    27 H    0.966
                             5 C    0.106
     9   7 N    3.804 --    18 C    0.963    17 C    0.957     6 C    0.907
                            10 C    0.905
    10   6 C    3.931 --    11 C    1.005    29 H    0.967    28 H    0.963
                             9 N    0.905
    11   6 C    3.978 --    12 C    1.408    16 C    1.407    10 C    1.005
                            14 C    0.109
    12   6 C    3.991 --    13 C    1.445    11 C    1.408    30 H    0.968
                            15 C    0.109
    13   6 C    3.990 --    12 C    1.445    14 C    1.438    31 H    0.969
                            16 C    0.109
    14   6 C    3.988 --    13 C    1.438    15 C    1.437    32 H    0.969
                            11 C    0.109
    15   6 C    3.990 --    16 C    1.445    14 C    1.437    33 H    0.969
                            12 C    0.109
    16   6 C    3.990 --    15 C    1.445    11 C    1.407    34 H    0.968
                            13 C    0.109
    17   6 C    3.932 --    37 H    0.977    35 H    0.972    36 H    0.971
                             9 N    0.957
    18   6 C    3.933 --    39 H    0.975    38 H    0.974    40 H    0.969
                             9 N    0.963
    19   1 H    0.998 --     1 C    0.988
    20   1 H    0.995 --     1 C    0.983
    21   1 H    0.998 --     1 C    0.988
    22   1 H    0.996 --     2 C    0.971
    23   1 H    0.996 --     2 C    0.969
    24   1 H    0.995 --     4 C    0.966
    25   1 H    0.997 --     5 C    0.960
    26   1 H    0.996 --     7 C    0.962
    27   1 H    0.995 --     8 C    0.966
    28   1 H    0.993 --    10 C    0.963
    29   1 H    0.993 --    10 C    0.967
    30   1 H    0.998 --    12 C    0.968
    31   1 H    0.996 --    13 C    0.969
    32   1 H    0.996 --    14 C    0.969
    33   1 H    0.996 --    15 C    0.969
    34   1 H    0.998 --    16 C    0.968
    35   1 H    0.991 --    17 C    0.972
    36   1 H    0.990 --    17 C    0.971
    37   1 H    0.991 --    17 C    0.977
    38   1 H    0.991 --    18 C    0.974
    39   1 H    0.991 --    18 C    0.975
    40   1 H    0.990 --    18 C    0.969
 ---------------------------------------------------------------------------

molecular dipole:
                 x           y           z       tot (Debye)
 q only:        3.733      -5.360     -10.532
   full:        3.717      -5.383     -10.589      31.638

           -------------------------------------------------
          | TOTAL ENERGY              -50.134499676062 Eh   |
          | GRADIENT NORM               0.000393763810 Eh/α |
          | HOMO-LUMO GAP               4.292535602739 eV   |
           -------------------------------------------------

 * finished run on 2024/12/20 at 06:57:07.321
