   * xtb version 6.7.1 (edcfbbe) compiled by 'conda@3ef47c1a292c' on 2024-11-25

   ID    Z sym.   atoms
    1    6 C      1, 2, 4-6, 9, 12, 15, 19, 20, 22, 24-26
    2    7 N      3, 21, 23, 27
    3    9 F      7, 8, 10, 11, 13, 14, 16-18
    4    1 H      28-41

          program call               : xtb C0762.xyz --opt --namespace C0762 --charge +1
          :  Hamiltonian                  GFN2-xTB          :
 * total energy  :   -90.9908336 Eh     change       -0.1683873E-08 Eh
 * total energy  :   -91.0060835 Eh     change       -0.1524990E-01 Eh
 * total energy  :   -91.0103241 Eh     change       -0.4240596E-02 Eh
 * total energy  :   -91.0110860 Eh     change       -0.7618943E-03 Eh
 * total energy  :   -91.0116706 Eh     change       -0.5845688E-03 Eh
 * total energy  :   -91.0120419 Eh     change       -0.3713419E-03 Eh
 * total energy  :   -91.0123814 Eh     change       -0.3394781E-03 Eh
 * total energy  :   -91.0126935 Eh     change       -0.3121342E-03 Eh
 * total energy  :   -91.0129245 Eh     change       -0.2309757E-03 Eh
 * total energy  :   -91.0131110 Eh     change       -0.1864401E-03 Eh
 * total energy  :   -91.0210733 Eh     change       -0.1587950E-03 Eh
 * total energy  :   -91.0211036 Eh     change       -0.3030707E-04 Eh
 * total energy  :   -91.0211310 Eh     change       -0.2734725E-04 Eh
 * total energy  :   -91.0211482 Eh     change       -0.1722710E-04 Eh
 * total energy  :   -91.0211569 Eh     change       -0.8657101E-05 Eh
 * total energy  :   -91.0211691 Eh     change       -0.1227404E-04 Eh
 * total energy  :   -91.0211748 Eh     change       -0.5698612E-05 Eh
 * total energy  :   -91.0211785 Eh     change       -0.3659823E-05 Eh
 * total energy  :   -91.0211814 Eh     change       -0.2939126E-05 Eh
   *** GEOMETRY OPTIMIZATION CONVERGED AFTER 113 ITERATIONS ***

 final structure:
================
41
 xtb: 6.7.1 (edcfbbe)
C           -0.03159787800853       -0.21384561844643        1.17393039626863
C            0.24764318269415        1.02239147734369        0.43093048181109
N           -0.24564304753017        1.41749286605865       -0.75107301315124
C           -1.08862752308402        0.67803775995763       -1.66342363348909
C           -0.32945603215886        0.14476686638796       -2.88750616180405
C            0.63479672013042       -1.01287902075756       -2.58381150154801
F            0.28644263356906       -1.64959383403663       -1.43858210320261
F            0.57917959577292       -1.93372719538407       -3.56039052471637
C            2.12670222336973       -0.56188963276228       -2.45755282311720
F            2.57962329945479       -0.21596631835659       -3.66709230156059
F            2.18786575741131        0.56192796073539       -1.69405511495732
C            3.05111692367066       -1.61587382811199       -1.77766231224163
F            2.82273561153776       -1.53334203202642       -0.44498066750775
F            2.75015403059517       -2.85623457412810       -2.16153186667629
C            4.56677730590859       -1.33607377375472       -2.03232251791356
F            4.88900225712545       -1.57835414516412       -3.29012631861582
F            4.83802984297389       -0.05782190896242       -1.76156398705364
F            5.30824381425770       -2.09062960483507       -1.24076033970525
C            0.24052470632028        2.66955416362244       -1.03467806169433
C            1.04461937276728        3.03309195635156       -0.00954490616006
N            1.04598593281470        1.99963687040566        0.88610222918526
C            1.74796042879950        1.98784120947159        2.16303445612091
N            0.87706734636326        2.37632938558087        3.22588370766872
C            0.85602093996622        3.53545137540791        3.93136574687162
C           -0.17961026581961        3.43863878119926        4.82208966887503
C           -0.74647098296513        2.17607190287658        4.57809075015358
N           -0.10554147386715        1.55009129281387        3.61679818565167
H           -0.86734019581237       -0.76381493091822        0.75615462489499
H           -0.25097475674962        0.04809321517192        2.21643645547883
H            0.83732208134712       -0.87277709775387        1.16684123743933
H           -1.56427380932642       -0.14687644877798       -1.13074873874873
H           -1.86928769149814        1.35226826169086       -2.02520574742775
H           -1.06558804870433       -0.24949959589178       -3.59224177789559
H            0.22102281854790        0.94371325478884       -3.38749030762565
H           -0.02484115382460        3.19837960035594       -1.92651446570023
H            1.60850998298144        3.92987459583005        0.14286115158619
H            2.11915557421097        0.97182415844600        2.34058343434654
H            2.58758839635681        2.68486152872305        2.10281621942371
H            1.57160238163692        4.31277439974073        3.76118717846015
H           -0.48911537461180        4.15946854606900        5.54835771094090
H           -1.58165492663816        1.71352813108371        5.06256555731611

          :  Hamiltonian                  GFN2-xTB          :
         :: total energy             -91.021181441707 Eh    ::
         :: gradient norm              0.000713679724 Eh/a0 ::
         :: HOMO-LUMO gap              3.155395823746 eV    ::
         :: SCC energy               -91.747734958042 Eh    ::
         :: -> dispersion             -0.042680930182 Eh    ::
         :: repulsion energy           0.726553516336 Eh    ::

    * Orbital Energies and Occupations

         #    Occupation            Energy/Eh            Energy/eV
      -------------------------------------------------------------
         1        2.0000           -1.0374556             -28.2306
       ...           ...                  ...                  ...
        64        2.0000           -0.6394278             -17.3997
        65        2.0000           -0.6378316             -17.3563
        66        2.0000           -0.6322685             -17.2049
        67        2.0000           -0.6238676             -16.9763
        68        2.0000           -0.6234161             -16.9640
        69        2.0000           -0.6118173             -16.6484
        70        2.0000           -0.6078076             -16.5393
        71        2.0000           -0.5869751             -15.9724
        72        2.0000           -0.5759421             -15.6722
        73        2.0000           -0.5737497             -15.6125
        74        2.0000           -0.5308265             -14.4445
        75        2.0000           -0.5221298             -14.2079
        76        2.0000           -0.5211029             -14.1799 (HOMO)
        77                         -0.4051442             -11.0245 (LUMO)
        78                         -0.3727743             -10.1437
        79                         -0.3430964              -9.3361
        80                         -0.2752348              -7.4895
        81                         -0.2314284              -6.2975
        82                         -0.2212845              -6.0215
        83                         -0.2013399              -5.4787
        84                         -0.1580323              -4.3003
        85                         -0.1484313              -4.0390
        86                         -0.1450481              -3.9470
        87                         -0.1369165              -3.7257
       ...                                ...                  ...
       122                          0.5633760              15.3302
      -------------------------------------------------------------
                  HL-Gap            0.1159587 Eh            3.1554 eV

     #   Z          covCN         q      C6AA      α(0)
     1   6 C        3.754    -0.164    23.739     6.948
     2   6 C        3.076     0.122    25.249     8.238
     3   7 N        2.871     0.036    20.613     6.743
     4   6 C        3.740    -0.024    21.088     6.552
     5   6 C        3.801    -0.092    22.248     6.716
     6   6 C        3.516     0.324    16.881     6.065
     7   9 F        0.788    -0.204    11.273     3.966
     8   9 F        0.789    -0.180    11.026     3.922
     9   6 C        3.517     0.314    16.999     6.084
    10   9 F        0.789    -0.172    10.950     3.909
    11   9 F        0.789    -0.208    11.323     3.975
    12   6 C        3.517     0.317    16.961     6.078
    13   9 F        0.789    -0.183    11.063     3.929
    14   9 F        0.788    -0.155    10.776     3.878
    15   6 C        3.327     0.491    17.340     6.615
    16   9 F        0.791    -0.152    10.754     3.874
    17   9 F        0.791    -0.173    10.963     3.911
    18   9 F        0.791    -0.148    10.710     3.866
    19   6 C        3.044    -0.010    28.235     8.715
    20   6 C        3.032    -0.004    28.100     8.695
    21   7 N        2.881     0.031    20.703     6.758
    22   6 C        3.681     0.027    20.321     6.456
    23   7 N        3.040     0.067    20.072     6.654
    24   6 C        3.020    -0.011    28.270     8.722
    25   6 C        3.021    -0.057    29.402     8.894
    26   6 C        3.114     0.040    26.959     8.505
    27   7 N        2.003    -0.240    27.061     7.715
    28   1 H        0.925     0.101     1.777     2.085
    29   1 H        0.924     0.146     1.419     1.863
    30   1 H        0.924     0.118     1.630     1.996
    31   1 H        0.924     0.110     1.701     2.039
    32   1 H        0.924     0.109     1.705     2.042
    33   1 H        0.924     0.124     1.582     1.967
    34   1 H        0.924     0.096     1.821     2.110
    35   1 H        0.927     0.107     1.726     2.054
    36   1 H        0.927     0.109     1.706     2.043
    37   1 H        0.924     0.112     1.677     2.025
    38   1 H        0.924     0.106     1.731     2.057
    39   1 H        0.927     0.053     2.277     2.360
    40   1 H        0.927     0.060     2.194     2.316
    41   1 H        0.926     0.059     2.213     2.326

Wiberg/Mayer (AO) data.
largest (>0.10) Wiberg bond orders for each atom

     #   Z sym  total        # sym  WBO       # sym  WBO       # sym  WBO
 ---------------------------------------------------------------------------
     1   6 C    3.961 --     2 C    1.062    28 H    0.964    30 H    0.931
                            29 H    0.915
     2   6 C    3.946 --     3 N    1.323    21 N    1.317     1 C    1.062
     3   7 N    3.680 --     2 C    1.323    19 C    1.184     4 C    0.982
     4   6 C    3.948 --     5 C    0.996     3 N    0.982    32 H    0.957
                            31 H    0.957
     5   6 C    3.971 --     4 C    0.996    34 H    0.966     6 C    0.959
                            33 H    0.956
     6   6 C    3.866 --     8 F    0.974     5 C    0.959     7 F    0.951
                             9 C    0.905
     7   9 F    1.064 --     6 C    0.951
     8   9 F    1.089 --     6 C    0.974
     9   6 C    3.869 --    10 F    0.985    11 F    0.946    12 C    0.911
                             6 C    0.905
    10   9 F    1.098 --     9 C    0.985
    11   9 F    1.054 --     9 C    0.946
    12   6 C    3.890 --    14 F    0.994    13 F    0.961     9 C    0.911
                            15 C    0.886
    13   9 F    1.075 --    12 C    0.961
    14   9 F    1.113 --    12 C    0.994
    15   6 C    3.882 --    18 F    0.988    16 F    0.987    17 F    0.964
                            12 C    0.886
    16   9 F    1.125 --    15 C    0.987
    17   9 F    1.098 --    15 C    0.964
    18   9 F    1.128 --    15 C    0.988
    19   6 C    3.947 --    20 C    1.634     3 N    1.184    35 H    0.961
    20   6 C    3.949 --    19 C    1.634    21 N    1.196    36 H    0.960
    21   7 N    3.679 --     2 C    1.317    20 C    1.196    22 C    0.957
    22   6 C    3.944 --    23 N    1.011    38 H    0.958    21 N    0.957
                            37 H    0.949
    23   7 N    3.632 --    24 C    1.234    27 N    1.163    22 C    1.011
    24   6 C    3.955 --    25 C    1.547    23 N    1.234    39 H    0.967
                            27 N    0.165
    25   6 C    3.983 --    24 C    1.547    26 C    1.342    40 H    0.971
    26   6 C    3.977 --    27 N    1.535    25 C    1.342    41 H    0.967
    27   7 N    2.984 --    26 C    1.535    23 N    1.163    24 C    0.165
    28   1 H    0.989 --     1 C    0.964
    29   1 H    0.979 --     1 C    0.915
    30   1 H    0.986 --     1 C    0.931
    31   1 H    0.988 --     4 C    0.957
    32   1 H    0.987 --     4 C    0.957
    33   1 H    0.984 --     5 C    0.956
    34   1 H    0.991 --     5 C    0.966
    35   1 H    0.988 --    19 C    0.961
    36   1 H    0.987 --    20 C    0.960
    37   1 H    0.987 --    22 C    0.949
    38   1 H    0.988 --    22 C    0.958
    39   1 H    0.997 --    24 C    0.967
    40   1 H    0.996 --    25 C    0.971
    41   1 H    0.996 --    26 C    0.967
 ---------------------------------------------------------------------------

molecular dipole:
                 x           y           z       tot (Debye)
 q only:        0.111       3.529       0.281
   full:        0.310       3.906       0.272       9.982

           -------------------------------------------------
          | TOTAL ENERGY              -91.021181441707 Eh   |
          | GRADIENT NORM               0.000713679724 Eh/α |
          | HOMO-LUMO GAP               3.155395823746 eV   |
           -------------------------------------------------

 * finished run on 2024/12/20 at 06:55:37.381
