   * xtb version 6.7.1 (edcfbbe) compiled by 'conda@3ef47c1a292c' on 2024-11-25

   ID    Z sym.   atoms
    1    6 C      1-6, 8-13, 15-19, 21, 23, 24, 26-30, 32-44, 46-53, 55-60,
                  62-67
    2    8 O      7, 14, 31, 45, 54, 61
    3    7 N      20, 22, 25
    4    1 H      68-161

          program call               : xtb C0765.xyz --opt --namespace C0765 --charge +1
          :  Hamiltonian                  GFN2-xTB          :
 * total energy  :  -205.0047419 Eh     change       -0.2710351E-08 Eh
 * total energy  :  -205.0269866 Eh     change       -0.2224463E-01 Eh
 * total energy  :  -205.0326403 Eh     change       -0.5653702E-02 Eh
 * total energy  :  -205.0343265 Eh     change       -0.1686208E-02 Eh
 * total energy  :  -205.0362022 Eh     change       -0.1875706E-02 Eh
 * total energy  :  -205.0374576 Eh     change       -0.1255460E-02 Eh
 * total energy  :  -205.0385343 Eh     change       -0.1076632E-02 Eh
 * total energy  :  -205.0396461 Eh     change       -0.1111788E-02 Eh
 * total energy  :  -205.0407751 Eh     change       -0.1128987E-02 Eh
 * total energy  :  -205.0418934 Eh     change       -0.1118385E-02 Eh
 * total energy  :  -205.0702898 Eh     change       -0.3477592E-04 Eh
 * total energy  :  -205.0703157 Eh     change       -0.2583485E-04 Eh
 * total energy  :  -205.0703333 Eh     change       -0.1762169E-04 Eh
 * total energy  :  -205.0703580 Eh     change       -0.2475469E-04 Eh
 * total energy  :  -205.0703701 Eh     change       -0.1208140E-04 Eh
 * total energy  :  -205.0703823 Eh     change       -0.1212277E-04 Eh
 * total energy  :  -205.0703935 Eh     change       -0.1120957E-04 Eh
 * total energy  :  -205.0704028 Eh     change       -0.9355740E-05 Eh
 * total energy  :  -205.0704077 Eh     change       -0.4880271E-05 Eh
   *** GEOMETRY OPTIMIZATION CONVERGED AFTER 293 ITERATIONS ***

 final structure:
================
161
 xtb: 6.7.1 (edcfbbe)
C           -5.59498152357022        0.99821588010987       -2.17099772940884
C           -5.76668419787435       -0.50708149164273       -1.99275908578927
C           -5.16189135936090       -1.32933445757936       -3.13245456289966
C           -3.63487461523145       -1.35747143974385       -3.11080206801373
C           -3.06020357376547       -2.26125344035801       -4.19947328014345
C           -1.54218904158554       -2.38704145205007       -4.11772567393722
O           -0.95012440616394       -1.11814667453837       -4.39771447129552
C            0.39174230683219       -1.16014692210131       -4.74645279949279
C            0.76130418120521       -0.64592513412942       -5.97010120017296
C            2.09127852441816       -0.60601296126398       -6.40237197142703
C            3.08270310048909       -1.17217322739926       -5.57126348600293
C            2.69158699807444       -1.67401828984713       -4.32479774301854
C            1.38372631873621       -1.66304641443534       -3.88724904954191
O            1.00051708309709       -2.15841113424205       -2.65802129655233
C            1.74643022686831       -1.73568644694323       -1.53207178420709
C            1.65460554466671       -0.21673841742213       -1.34568670862042
C            0.18696495051523        0.19923612231559       -1.25371190419404
C           -0.07084704816158        1.65793609104347       -1.62884969280184
C           -1.57382370633772        1.84608006795400       -1.81765145032215
N           -1.96046976178144        3.15721979421711       -2.31991100329304
C           -2.80114082869673        3.37601707895488       -3.34747398369605
N           -3.68445532283603        4.38381700645584       -3.25620372964755
C           -4.12325171457558        5.16111993133126       -4.39827940302412
C           -4.08381128873534        4.92613852213001       -1.97339588839737
N           -2.74207082727469        2.61485806272001       -4.44233186330799
C           -1.51651838539405        1.98404779718969       -4.89256234924050
C           -3.90006186282349        2.29802988239043       -5.25163474410412
C            4.45522049506779       -1.23740607835225       -6.03153585813392
C            5.47753196101677       -1.76354902615189       -5.23155608148308
C            6.79270390576221       -1.86236143024559       -5.63622575748800
O            7.81055750785669       -2.33066396319317       -4.85660365563612
C            7.60894237124830       -2.88040852558453       -3.56573162327776
C            7.94435448791717       -1.88522342006660       -2.45009207229829
C            6.94814376481347       -0.73287399670786       -2.30612541466319
C            5.65575958744180       -1.13647452303686       -1.58985555768021
C            5.77886510849430       -1.16078657792187       -0.06449832729234
C            5.80811060745460        0.23323430176345        0.55040854559518
C            7.12241376509790       -1.43011402052357       -6.94681802264002
C            6.11709205990857       -0.89554996973603       -7.73156773099779
C            4.78948418851989       -0.77310724725863       -7.31843970199030
C            3.77733783315603       -0.17320656679059       -8.16354062791995
C            2.45613652911364       -0.04348792463080       -7.68411329174840
C            1.54098218910692        0.64609730004313       -8.48234211554336
C            1.85014426824668        1.14862108960651       -9.72949852285677
O            0.86101453339383        1.84473703818015      -10.41007466220102
C            0.78143851719589        3.21444292752064      -10.05839656440474
C           -0.47968342034534        3.80684235805275      -10.68010006132046
C           -1.75954925211304        3.09724002977448      -10.23487134533457
C           -2.01166082851011        3.10900196316040       -8.72594093285167
C           -2.16077534076140        4.50155468898381       -8.10902136530995
C           -3.45580202274805        5.19533968140141       -8.51512230674417
C            3.13552793634817        0.92485377258170      -10.25954450409951
C            4.06402516029237        0.28924080486821       -9.44655942251978
O            3.60602517962733        1.29683467942678      -11.47453475187400
C            2.72378295638105        1.60898903514349      -12.54098461633030
C            1.86388430448578        0.41717253997911      -12.96938947695330
C            0.60876771659266        0.85347378653683      -13.72114429050725
C            0.91367726051209        1.59905447311515      -15.01859672023419
C           -0.34502636284528        1.94018929013380      -15.81778916299354
C           -1.22814149226117        2.97499926222077      -15.12920860053824
O            8.35713942173031       -1.39101519731066       -7.50512084227230
C            9.31844009591458       -2.41728633660031       -7.29078870264854
C           10.70505172237544       -1.82510133204348       -7.53210557796591
C           11.02516301112700       -0.67232215940490       -6.57948024978561
C           11.13711028626483       -1.11311896046707       -5.12165763263137
C           11.57808189949570        0.01539312184123       -4.18872781156250
C           10.54320088105383        1.12921894088532       -4.07088541582784
H           -4.54280036354472        1.26944586082002       -2.21966403197536
H           -6.04625471774330        1.52824716191646       -1.33533469371108
H           -6.08594794953113        1.32478823632913       -3.08560200140260
H           -5.31360514616493       -0.81593301774428       -1.04885162551677
H           -6.83406465127750       -0.72578436187122       -1.93185480915097
H           -5.52566898976021       -2.35492443554428       -3.04933060541360
H           -5.51160565188159       -0.93601450109924       -4.09017562053634
H           -3.24270786199230       -0.34908240061119       -3.25035150758177
H           -3.29738835758827       -1.71604481844943       -2.13586992095342
H           -3.48190630209027       -3.26239396823401       -4.10185794980340
H           -3.33284168606420       -1.87534356644525       -5.18418427315431
H           -1.23718804068041       -2.72932212856512       -3.12257125024325
H           -1.19110180912723       -3.11673799274293       -4.85663028926402
H           -0.03121275533864       -0.28481588006836       -6.60458943404269
H            3.42537482154138       -2.10187974966619       -3.66408194407784
H            1.28281968926356       -2.25386334153227       -0.68917242904099
H            2.79349521157553       -2.04791576848400       -1.59852104682973
H            2.20996136060810        0.07225207523347       -0.45384222644557
H            2.11889895816957        0.26312696529362       -2.21124966205562
H           -0.37338019571149       -0.42910198085788       -1.94862231743662
H           -0.18998284102775        0.00084436922012       -0.24913702915377
H            0.30723441598210        2.32924767439388       -0.85626360742587
H            0.45192266698177        1.88530066912059       -2.55917420951667
H           -1.93719329027220        1.09111295308934       -2.51274284839495
H           -2.07527655596952        1.68664202038497       -0.85585894635303
H           -1.84403323910424        3.91074353584375       -1.65806217426093
H           -5.18821178188029        5.02077232153950       -4.58962170876945
H           -3.95100502664935        6.21813491054463       -4.18787144588235
H           -3.55750627218429        4.89575977379449       -5.28563606711521
H           -4.04607286544613        4.15706984983187       -1.20440612889408
H           -3.46205451275095        5.77522449567519       -1.67624324922148
H           -5.11345611997204        5.27263347304230       -2.05504589060918
H           -1.51821406858074        0.90384573204864       -4.73254331590974
H           -1.41987363970306        2.16886048625148       -5.96329849056765
H           -0.66129968533025        2.42344845987918       -4.38811876433468
H           -4.81170904677257        2.63059880744411       -4.76569027465475
H           -3.82881859914786        2.74102778163607       -6.24585248448772
H           -3.94413967181113        1.21307880135586       -5.36602868135213
H            5.23228512812042       -2.08680938052379       -4.23700102587729
H            6.60273957842260       -3.29212618764054       -3.45713905793067
H            8.31686908657758       -3.71554966916246       -3.50873110214021
H            8.00884673507479       -2.44110649924083       -1.51326600380924
H            8.93409980587943       -1.47757602356233       -2.66310826739247
H            7.42532049779663        0.07323980270221       -1.74758505722615
H            6.71370170432380       -0.33996737427030       -3.29753230086554
H            4.86046644462504       -0.43887940314459       -1.86533667695541
H            5.35737483020747       -2.13393754516652       -1.92265596469296
H            4.92656692810604       -1.70733643085924        0.34810829830542
H            6.68268642281509       -1.70125080496983        0.22118583035696
H            4.91070390724817        0.78798041825581        0.28194209858490
H            5.85925512583603        0.16587519509244        1.63434292781574
H            6.67178165687125        0.79631122165806        0.20700126535880
H            6.42533226517809       -0.56011061966153       -8.70687788098714
H            0.53443015707183        0.82171454472098       -8.13564306550389
H            0.77044470316829        3.32258929597500       -8.96450122405949
H            1.66686110293599        3.75577642244614      -10.42895747141513
H           -0.51670653079027        4.86963255673965      -10.43777878238888
H           -0.40315551756881        3.71655417882843      -11.76498476477543
H           -2.60662961718035        3.55083522184028      -10.75139197440432
H           -1.69413022501787        2.05583603134300      -10.55493249982796
H           -2.92230155989724        2.53323970759315       -8.53390137088405
H           -1.18661619698569        2.58976432069729       -8.23341136132789
H           -2.12744228099639        4.40967594470361       -7.01704238432957
H           -1.31207357812864        5.12285775889092       -8.39527838497068
H           -4.32101682457918        4.58301659564554       -8.26448491403959
H           -3.55263288523351        6.15335888118687       -8.00865235298662
H           -3.47129633435890        5.37909607778994       -9.58495367620461
H            5.04528948086851        0.17024773362963       -9.87257477281455
H            2.08392887960071        2.45715281591614      -12.28410743886491
H            3.39584104982198        1.91401668955704      -13.34666324108225
H            2.45977846189601       -0.26098358678450      -13.58263051034687
H            1.55795055125183       -0.12532971106000      -12.07185445259921
H            0.01642584502589       -0.03432188769985      -13.95432872070372
H            0.01625361268360        1.48371943926253      -13.05642481667802
H            1.45281404432309        2.52223436263161      -14.79720759289062
H            1.56407598807302        0.97566271492976      -15.63640681854842
H           -0.04355773348856        2.32971190019987      -16.79253400193154
H           -0.92173190714465        1.02900975043903      -15.99067421881002
H           -0.65959708979412        3.87841823617565      -14.91686160957390
H           -2.06502196509292        3.24193480082416      -15.77026018925771
H           -1.62857980326214        2.58878151520604      -14.19511160015785
H            9.24800037336037       -2.82858983272647       -6.28538816985842
H            9.12633844938889       -3.22518743732097       -8.01212414983935
H           11.44198493578895       -2.62284667147906       -7.42305598936447
H           10.74774675533446       -1.45609197594246       -8.55829697854290
H           11.96892579807404       -0.21695769253284       -6.88809171681340
H           10.23968135194394        0.07688176252743       -6.67997325690232
H           10.17246423066365       -1.49093816752177       -4.78190746586789
H           11.86130610492468       -1.92940465141323       -5.05330000349771
H           11.76103325570207       -0.40471090110891       -3.19595577762688
H           12.52148187623053        0.43464309982903       -4.54533938427966
H            9.57222288903287        0.72161383766349       -3.79595725591811
H           10.84364250942347        1.84618892327821       -3.30971584900863
H           10.43540953016081        1.66123003175092       -5.01214415994485

          :  Hamiltonian                  GFN2-xTB          :
         :: total energy            -205.070407701981 Eh    ::
         :: gradient norm              0.000739631328 Eh/a0 ::
         :: HOMO-LUMO gap              1.279967448883 eV    ::
         :: SCC energy              -207.932079604262 Eh    ::
         :: -> dispersion             -0.180806009938 Eh    ::
         :: repulsion energy           2.861671902281 Eh    ::

    * Orbital Energies and Occupations

         #    Occupation            Energy/Eh            Energy/eV
      -------------------------------------------------------------
         1        2.0000           -0.8409097             -22.8823
       ...           ...                  ...                  ...
       176        2.0000           -0.4678356             -12.7305
       177        2.0000           -0.4651174             -12.6565
       178        2.0000           -0.4636904             -12.6177
       179        2.0000           -0.4624913             -12.5850
       180        2.0000           -0.4613866             -12.5550
       181        2.0000           -0.4565616             -12.4237
       182        2.0000           -0.4539976             -12.3539
       183        2.0000           -0.4534473             -12.3389
       184        2.0000           -0.4516007             -12.2887
       185        2.0000           -0.4465274             -12.1506
       186        2.0000           -0.4347347             -11.8297
       187        2.0000           -0.4200381             -11.4298
       188        2.0000           -0.4139409             -11.2639 (HOMO)
       189                         -0.3669029              -9.9839 (LUMO)
       190                         -0.3122531              -8.4968
       191                         -0.3102877              -8.4434
       192                         -0.2929168              -7.9707
       193                         -0.2508518              -6.8260
       194                         -0.2489194              -6.7734
       195                         -0.2362996              -6.4300
       196                         -0.1751331              -4.7656
       197                         -0.1657420              -4.5101
       198                         -0.1558146              -4.2399
       199                         -0.1280941              -3.4856
       ...                                ...                  ...
       362                          0.6691477              18.2084
      -------------------------------------------------------------
                  HL-Gap            0.0470379 Eh            1.2800 eV

     #   Z          covCN         q      C6AA      α(0)
     1   6 C        3.751    -0.101    22.491     6.763
     2   6 C        3.800    -0.058    21.611     6.619
     3   6 C        3.802    -0.063    21.716     6.635
     4   6 C        3.802    -0.056    21.581     6.614
     5   6 C        3.801    -0.065    21.751     6.640
     6   6 C        3.696     0.082    19.373     6.296
     7   8 O        1.701    -0.324    19.424     5.950
     8   6 C        2.864     0.107    25.639     8.300
     9   6 C        2.923    -0.069    29.718     8.940
    10   6 C        2.980    -0.000    28.027     8.684
    11   6 C        2.979     0.003    27.956     8.673
    12   6 C        2.923    -0.070    29.744     8.944
    13   6 C        2.859     0.114    25.479     8.274
    14   8 O        1.703    -0.297    18.948     5.877
    15   6 C        3.696     0.078    19.439     6.307
    16   6 C        3.799    -0.066    21.769     6.643
    17   6 C        3.808    -0.067    21.773     6.642
    18   6 C        3.801    -0.068    21.810     6.649
    19   6 C        3.741    -0.008    20.802     6.507
    20   7 N        2.695    -0.163    24.521     7.354
    21   6 C        2.770     0.191    23.920     8.010
    22   7 N        2.741    -0.062    22.433     7.035
    23   6 C        3.699    -0.070    22.009     6.710
    24   6 C        3.701    -0.069    21.982     6.704
    25   7 N        2.740    -0.045    22.111     6.984
    26   6 C        3.701    -0.078    22.165     6.732
    27   6 C        3.701    -0.071    22.018     6.710
    28   6 C        2.979    -0.004    28.125     8.699
    29   6 C        2.923    -0.080    30.004     8.983
    30   6 C        2.846     0.120    25.348     8.251
    31   8 O        1.704    -0.276    18.580     5.820
    32   6 C        3.681     0.080    19.453     6.316
    33   6 C        3.800    -0.068    21.800     6.648
    34   6 C        3.800    -0.058    21.617     6.620
    35   6 C        3.801    -0.054    21.548     6.609
    36   6 C        3.800    -0.055    21.567     6.612
    37   6 C        3.751    -0.103    22.531     6.769
    38   6 C        2.850     0.128    25.192     8.226
    39   6 C        2.926    -0.067    29.658     8.931
    40   6 C        2.979     0.001    28.010     8.681
    41   6 C        2.980     0.007    27.847     8.656
    42   6 C        2.980    -0.008    28.202     8.711
    43   6 C        2.924    -0.063    29.576     8.918
    44   6 C        2.871     0.104    25.702     8.311
    45   8 O        1.703    -0.313    19.229     5.920
    46   6 C        3.704     0.096    19.139     6.255
    47   6 C        3.800    -0.061    21.674     6.629
    48   6 C        3.801    -0.059    21.632     6.622
    49   6 C        3.800    -0.055    21.564     6.612
    50   6 C        3.799    -0.051    21.499     6.602
    51   6 C        3.751    -0.107    22.601     6.780
    52   6 C        2.851     0.130    25.143     8.218
    53   6 C        2.928    -0.068    29.698     8.937
    54   8 O        1.706    -0.267    18.418     5.794
    55   6 C        3.687     0.077    19.472     6.316
    56   6 C        3.800    -0.064    21.728     6.637
    57   6 C        3.802    -0.062    21.684     6.630
    58   6 C        3.802    -0.062    21.691     6.631
    59   6 C        3.800    -0.055    21.555     6.610
    60   6 C        3.751    -0.102    22.515     6.767
    61   8 O        1.706    -0.266    18.408     5.793
    62   6 C        3.684     0.074    19.535     6.328
    63   6 C        3.801    -0.064    21.720     6.635
    64   6 C        3.802    -0.058    21.622     6.620
    65   6 C        3.802    -0.062    21.692     6.631
    66   6 C        3.800    -0.052    21.513     6.604
    67   6 C        3.751    -0.101    22.491     6.763
    68   1 H        0.925     0.017     2.782     2.608
    69   1 H        0.925     0.034     2.529     2.487
    70   1 H        0.925     0.030     2.582     2.513
    71   1 H        0.924     0.037     2.493     2.469
    72   1 H        0.924     0.041     2.435     2.440
    73   1 H        0.924     0.041     2.438     2.442
    74   1 H        0.924     0.031     2.574     2.509
    75   1 H        0.924     0.025     2.665     2.553
    76   1 H        0.924     0.037     2.483     2.464
    77   1 H        0.924     0.045     2.377     2.411
    78   1 H        0.924     0.043     2.412     2.429
    79   1 H        0.924     0.044     2.390     2.418
    80   1 H        0.924     0.029     2.596     2.520
    81   1 H        0.926     0.047     2.360     2.402
    82   1 H        0.926     0.048     2.347     2.396
    83   1 H        0.924     0.053     2.283     2.363
    84   1 H        0.924     0.035     2.511     2.478
    85   1 H        0.925     0.042     2.422     2.434
    86   1 H        0.924     0.040     2.447     2.446
    87   1 H        0.924     0.066     2.128     2.282
    88   1 H        0.924     0.039     2.461     2.453
    89   1 H        0.924     0.045     2.381     2.413
    90   1 H        0.924     0.047     2.358     2.401
    91   1 H        0.925     0.078     1.998     2.211
    92   1 H        0.924     0.057     2.234     2.337
    93   1 H        0.860     0.193     1.144     1.675
    94   1 H        0.924     0.075     2.030     2.228
    95   1 H        0.924     0.080     1.984     2.203
    96   1 H        0.925     0.082     1.961     2.190
    97   1 H        0.925     0.072     2.062     2.245
    98   1 H        0.924     0.067     2.122     2.278
    99   1 H        0.925     0.088     1.902     2.157
   100   1 H        0.924     0.107     1.723     2.053
   101   1 H        0.924     0.078     1.997     2.210
   102   1 H        0.925     0.072     2.068     2.249
   103   1 H        0.925     0.073     2.049     2.238
   104   1 H        0.924     0.077     2.006     2.215
   105   1 H        0.924     0.088     1.898     2.155
   106   1 H        0.926     0.046     2.364     2.404
   107   1 H        0.924     0.031     2.578     2.511
   108   1 H        0.924     0.046     2.368     2.406
   109   1 H        0.924     0.042     2.428     2.437
   110   1 H        0.924     0.053     2.277     2.360
   111   1 H        0.924     0.041     2.439     2.442
   112   1 H        0.924     0.038     2.482     2.464
   113   1 H        0.924     0.027     2.633     2.538
   114   1 H        0.924     0.020     2.740     2.589
   115   1 H        0.924     0.025     2.662     2.552
   116   1 H        0.924     0.037     2.486     2.466
   117   1 H        0.925     0.027     2.629     2.535
   118   1 H        0.925     0.037     2.492     2.469
   119   1 H        0.925     0.039     2.465     2.455
   120   1 H        0.926     0.065     2.146     2.291
   121   1 H        0.926     0.039     2.463     2.454
   122   1 H        0.923     0.014     2.830     2.631
   123   1 H        0.923     0.016     2.797     2.615
   124   1 H        0.924     0.038     2.482     2.464
   125   1 H        0.924     0.051     2.303     2.373
   126   1 H        0.924     0.039     2.468     2.457
   127   1 H        0.924     0.052     2.289     2.366
   128   1 H        0.924     0.024     2.666     2.554
   129   1 H        0.924     0.026     2.640     2.541
   130   1 H        0.924     0.003     3.006     2.711
   131   1 H        0.925     0.039     2.461     2.453
   132   1 H        0.925     0.028     2.612     2.528
   133   1 H        0.925     0.032     2.564     2.504
   134   1 H        0.925     0.049     2.330     2.387
   135   1 H        0.926     0.066     2.130     2.282
   136   1 H        0.924     0.044     2.394     2.420
   137   1 H        0.924     0.050     2.318     2.381
   138   1 H        0.924     0.039     2.461     2.453
   139   1 H        0.924     0.044     2.399     2.422
   140   1 H        0.924     0.036     2.501     2.473
   141   1 H        0.924     0.041     2.432     2.439
   142   1 H        0.924     0.029     2.596     2.519
   143   1 H        0.924     0.033     2.546     2.495
   144   1 H        0.924     0.033     2.538     2.491
   145   1 H        0.924     0.033     2.551     2.498
   146   1 H        0.925     0.032     2.564     2.504
   147   1 H        0.925     0.035     2.523     2.484
   148   1 H        0.925     0.031     2.566     2.505
   149   1 H        0.925     0.056     2.249     2.345
   150   1 H        0.923     0.027     2.626     2.534
   151   1 H        0.924     0.039     2.469     2.457
   152   1 H        0.924     0.048     2.343     2.394
   153   1 H        0.924     0.033     2.543     2.494
   154   1 H        0.925     0.048     2.347     2.396
   155   1 H        0.924     0.042     2.422     2.434
   156   1 H        0.924     0.026     2.643     2.542
   157   1 H        0.924     0.025     2.655     2.548
   158   1 H        0.924     0.030     2.580     2.512
   159   1 H        0.925     0.031     2.571     2.507
   160   1 H        0.925     0.030     2.593     2.518
   161   1 H        0.925     0.036     2.509     2.477

Wiberg/Mayer (AO) data.
largest (>0.10) Wiberg bond orders for each atom

     #   Z sym  total        # sym  WBO       # sym  WBO       # sym  WBO
 ---------------------------------------------------------------------------
     1   6 C    3.998 --     2 C    1.019    69 H    0.988    70 H    0.987
                            68 H    0.985
     2   6 C    3.996 --     1 C    1.019     3 C    1.007    72 H    0.978
                            71 H    0.977
     3   6 C    3.996 --     4 C    1.008     2 C    1.007    74 H    0.977
                            73 H    0.976
     4   6 C    3.997 --     3 C    1.008     5 C    1.007    76 H    0.976
                            75 H    0.967
     5   6 C    3.994 --     4 C    1.007     6 C    1.003    78 H    0.976
                            77 H    0.973
     6   6 C    3.943 --     5 C    1.003    80 H    0.973    79 H    0.966
                             7 O    0.947
     7   8 O    2.113 --     8 C    1.002     6 C    0.947
     8   6 C    3.923 --     9 C    1.445    13 C    1.282     7 O    1.002
     9   6 C    3.980 --     8 C    1.445    10 C    1.347    81 H    0.958
    10   6 C    3.983 --     9 C    1.347    11 C    1.293    42 C    1.133
    11   6 C    3.983 --    12 C    1.350    10 C    1.293    28 C    1.133
    12   6 C    3.981 --    13 C    1.436    11 C    1.350    82 H    0.952
    13   6 C    3.926 --    12 C    1.436     8 C    1.282    14 O    1.020
    14   8 O    2.162 --    13 C    1.020    15 C    0.966
    15   6 C    3.947 --    16 C    0.996    83 H    0.970    14 O    0.966
                            84 H    0.964
    16   6 C    3.996 --    17 C    1.008    15 C    0.996    85 H    0.977
                            86 H    0.973
    17   6 C    3.991 --    16 C    1.008    18 C    1.003    88 H    0.979
                            87 H    0.967
    18   6 C    3.991 --    17 C    1.003    19 C    1.000    89 H    0.977
                            90 H    0.971
    19   6 C    3.947 --    18 C    1.000    20 N    0.969    92 H    0.963
                            91 H    0.957
    20   7 N    3.435 --    21 C    1.262    19 C    0.969    93 H    0.930
    21   6 C    3.975 --    25 N    1.301    22 N    1.272    20 N    1.262
    22   7 N    3.510 --    21 C    1.272    24 C    0.993    23 C    0.987
    23   6 C    3.951 --    22 N    0.987    96 H    0.973    94 H    0.972
                            95 H    0.971
    24   6 C    3.957 --    22 N    0.993    97 H    0.977    99 H    0.973
                            98 H    0.971
    25   7 N    3.529 --    21 C    1.301    27 C    0.987    26 C    0.982
    26   6 C    3.941 --    25 N    0.982   102 H    0.975   101 H    0.965
                           100 H    0.951
    27   6 C    3.951 --    25 N    0.987   103 H    0.977   104 H    0.967
                           105 H    0.967
    28   6 C    3.985 --    29 C    1.337    40 C    1.299    11 C    1.133
    29   6 C    3.980 --    30 C    1.432    28 C    1.337   106 H    0.946
    30   6 C    3.926 --    29 C    1.432    38 C    1.234    31 O    1.058
    31   8 O    2.234 --    30 C    1.058    32 C    0.960
    32   6 C    3.942 --    33 C    0.997   108 H    0.968   107 H    0.962
                            31 O    0.960
    33   6 C    3.992 --    34 C    1.008    32 C    0.997   110 H    0.972
                           109 H    0.971
    34   6 C    3.996 --    33 C    1.008    35 C    1.007   112 H    0.974
                           111 H    0.973
    35   6 C    3.998 --    36 C    1.007    34 C    1.007   113 H    0.977
                           114 H    0.971
    36   6 C    3.997 --    37 C    1.021    35 C    1.007   115 H    0.979
                           116 H    0.975
    37   6 C    3.997 --    36 C    1.021   117 H    0.987   118 H    0.987
                           119 H    0.984
    38   6 C    3.934 --    39 C    1.423    30 C    1.234    61 O    1.079
    39   6 C    3.979 --    38 C    1.423    40 C    1.352   120 H    0.956
    40   6 C    3.984 --    39 C    1.352    28 C    1.299    41 C    1.127
    41   6 C    3.984 --    53 C    1.375    42 C    1.286    40 C    1.127
    42   6 C    3.982 --    43 C    1.350    41 C    1.286    10 C    1.133
    43   6 C    3.984 --    44 C    1.449    42 C    1.350   121 H    0.957
    44   6 C    3.928 --    43 C    1.449    52 C    1.274    45 O    0.992
    45   8 O    2.094 --    44 C    0.992    46 C    0.959
    46   6 C    3.951 --    47 C    1.002   122 H    0.966   123 H    0.966
                            45 O    0.959
    47   6 C    3.994 --    48 C    1.008    46 C    1.002   125 H    0.973
                           124 H    0.972
    48   6 C    3.995 --    47 C    1.008    49 C    1.008   126 H    0.975
                           127 H    0.975
    49   6 C    3.998 --    48 C    1.008    50 C    1.007   128 H    0.975
                           129 H    0.970
    50   6 C    3.998 --    51 C    1.020    49 C    1.007   131 H    0.974
                           130 H    0.973
    51   6 C    3.996 --    50 C    1.020   133 H    0.987   132 H    0.987
                           134 H    0.985
    52   6 C    3.932 --    53 C    1.390    44 C    1.274    54 O    1.086
    53   6 C    3.977 --    52 C    1.390    41 C    1.375   135 H    0.956
    54   8 O    2.239 --    52 C    1.086    55 C    0.955
    55   6 C    3.936 --    56 C    0.996   137 H    0.971   136 H    0.964
                            54 O    0.955
    56   6 C    3.993 --    57 C    1.006    55 C    0.996   138 H    0.978
                           139 H    0.972
    57   6 C    3.996 --    58 C    1.009    56 C    1.006   140 H    0.976
                           141 H    0.973
    58   6 C    3.997 --    57 C    1.009    59 C    1.007   143 H    0.977
                           142 H    0.977
    59   6 C    3.997 --    60 C    1.020    58 C    1.007   144 H    0.978
                           145 H    0.978
    60   6 C    3.998 --    59 C    1.020   146 H    0.988   147 H    0.987
                           148 H    0.986
    61   8 O    2.220 --    38 C    1.079    62 C    0.949
    62   6 C    3.936 --    63 C    1.003   150 H    0.967   149 H    0.960
                            61 O    0.949
    63   6 C    3.994 --    64 C    1.007    62 C    1.003   152 H    0.976
                           151 H    0.975
    64   6 C    3.996 --    65 C    1.009    63 C    1.007   153 H    0.977
                           154 H    0.974
    65   6 C    3.997 --    64 C    1.009    66 C    1.007   156 H    0.977
                           155 H    0.970
    66   6 C    3.998 --    67 C    1.020    65 C    1.007   157 H    0.979
                           158 H    0.978
    67   6 C    3.997 --    66 C    1.020   160 H    0.988   161 H    0.986
                           159 H    0.986
    68   1 H    1.000 --     1 C    0.985
    69   1 H    0.999 --     1 C    0.988
    70   1 H    0.999 --     1 C    0.987
    71   1 H    0.999 --     2 C    0.977
    72   1 H    0.998 --     2 C    0.978
    73   1 H    0.998 --     3 C    0.976
    74   1 H    0.999 --     3 C    0.977
    75   1 H    0.999 --     4 C    0.967
    76   1 H    0.999 --     4 C    0.976
    77   1 H    0.997 --     5 C    0.973
    78   1 H    0.998 --     5 C    0.976
    79   1 H    0.998 --     6 C    0.966
    80   1 H    0.999 --     6 C    0.973
    81   1 H    0.997 --     9 C    0.958
    82   1 H    0.997 --    12 C    0.952
    83   1 H    0.997 --    15 C    0.970
    84   1 H    0.998 --    15 C    0.964
    85   1 H    0.998 --    16 C    0.977
    86   1 H    0.998 --    16 C    0.973
    87   1 H    0.996 --    17 C    0.967
    88   1 H    0.998 --    17 C    0.979
    89   1 H    0.998 --    18 C    0.977
    90   1 H    0.998 --    18 C    0.971
    91   1 H    0.994 --    19 C    0.957
    92   1 H    0.996 --    19 C    0.963
    93   1 H    0.963 --    20 N    0.930
    94   1 H    0.993 --    23 C    0.972
    95   1 H    0.993 --    23 C    0.971
    96   1 H    0.993 --    23 C    0.973
    97   1 H    0.995 --    24 C    0.977
    98   1 H    0.995 --    24 C    0.971
    99   1 H    0.992 --    24 C    0.973
   100   1 H    0.988 --    26 C    0.951
   101   1 H    0.994 --    26 C    0.965
   102   1 H    0.995 --    26 C    0.975
   103   1 H    0.995 --    27 C    0.977
   104   1 H    0.994 --    27 C    0.967
   105   1 H    0.992 --    27 C    0.967
   106   1 H    0.997 --    29 C    0.946
   107   1 H    0.999 --    32 C    0.962
   108   1 H    0.997 --    32 C    0.968
   109   1 H    0.997 --    33 C    0.971
   110   1 H    0.997 --    33 C    0.972
   111   1 H    0.998 --    34 C    0.973
   112   1 H    0.999 --    34 C    0.974
   113   1 H    0.999 --    35 C    0.977
   114   1 H    1.000 --    35 C    0.971
   115   1 H    0.999 --    36 C    0.979
   116   1 H    0.999 --    36 C    0.975
   117   1 H    0.999 --    37 C    0.987
   118   1 H    0.999 --    37 C    0.987
   119   1 H    0.998 --    37 C    0.984
   120   1 H    0.995 --    39 C    0.956
   121   1 H    0.998 --    43 C    0.957
   122   1 H    1.000 --    46 C    0.966
   123   1 H    1.000 --    46 C    0.966
   124   1 H    0.998 --    47 C    0.972
   125   1 H    0.997 --    47 C    0.973
   126   1 H    0.998 --    48 C    0.975
   127   1 H    0.997 --    48 C    0.975
   128   1 H    0.999 --    49 C    0.975
   129   1 H    0.999 --    49 C    0.970
   130   1 H    1.000 --    50 C    0.973
   131   1 H    0.998 --    50 C    0.974
   132   1 H    0.999 --    51 C    0.987
   133   1 H    0.999 --    51 C    0.987
   134   1 H    0.998 --    51 C    0.985
   135   1 H    0.995 --    53 C    0.956
   136   1 H    0.998 --    55 C    0.964
   137   1 H    0.997 --    55 C    0.971
   138   1 H    0.998 --    56 C    0.978
   139   1 H    0.998 --    56 C    0.972
   140   1 H    0.998 --    57 C    0.976
   141   1 H    0.998 --    57 C    0.973
   142   1 H    0.999 --    58 C    0.977
   143   1 H    0.999 --    58 C    0.977
   144   1 H    0.999 --    59 C    0.978
   145   1 H    0.999 --    59 C    0.978
   146   1 H    0.999 --    60 C    0.988
   147   1 H    0.999 --    60 C    0.987
   148   1 H    0.999 --    60 C    0.986
   149   1 H    0.997 --    62 C    0.960
   150   1 H    0.997 --    62 C    0.967
   151   1 H    0.998 --    63 C    0.975
   152   1 H    0.997 --    63 C    0.976
   153   1 H    0.999 --    64 C    0.977
   154   1 H    0.998 --    64 C    0.974
   155   1 H    0.998 --    65 C    0.970
   156   1 H    0.999 --    65 C    0.977
   157   1 H    0.999 --    66 C    0.979
   158   1 H    0.999 --    66 C    0.978
   159   1 H    0.999 --    67 C    0.986
   160   1 H    0.999 --    67 C    0.988
   161   1 H    0.999 --    67 C    0.986
 ---------------------------------------------------------------------------

molecular dipole:
                 x           y           z       tot (Debye)
 q only:       -3.899       5.379      -6.622
   full:       -3.877       5.308      -6.185      22.941

           -------------------------------------------------
          | TOTAL ENERGY             -205.070407701981 Eh   |
          | GRADIENT NORM               0.000739631328 Eh/α |
          | HOMO-LUMO GAP               1.279967448883 eV   |
           -------------------------------------------------

 * finished run on 2024/12/20 at 06:57:05.916
