   * xtb version 6.7.1 (edcfbbe) compiled by 'conda@3ef47c1a292c' on 2024-11-25

   ID    Z sym.   atoms
    1    8 O      1
    2    6 C      2-4, 6-10
    3    7 N      5
    4    1 H      11-20

          program call               : xtb C0769.xyz --opt --namespace C0769 --charge +1
          :  Hamiltonian                  GFN2-xTB          :
 * total energy  :   -28.7596889 Eh     change       -0.1575344E-09 Eh
 * total energy  :   -28.7620679 Eh     change       -0.2378959E-02 Eh
 * total energy  :   -28.7624898 Eh     change       -0.4219117E-03 Eh
 * total energy  :   -28.7625742 Eh     change       -0.8443167E-04 Eh
 * total energy  :   -28.7627146 Eh     change       -0.1403469E-03 Eh
 * total energy  :   -28.7628508 Eh     change       -0.1362458E-03 Eh
 * total energy  :   -28.7630348 Eh     change       -0.1840070E-03 Eh
 * total energy  :   -28.7632616 Eh     change       -0.2268023E-03 Eh
 * total energy  :   -28.7634718 Eh     change       -0.2101930E-03 Eh
 * total energy  :   -28.7635742 Eh     change       -0.1023714E-03 Eh
 * total energy  :   -28.7639478 Eh     change       -0.3264828E-04 Eh
 * total energy  :   -28.7639720 Eh     change       -0.2422472E-04 Eh
 * total energy  :   -28.7639938 Eh     change       -0.2177454E-04 Eh
 * total energy  :   -28.7640104 Eh     change       -0.1658567E-04 Eh
 * total energy  :   -28.7640288 Eh     change       -0.1846196E-04 Eh
 * total energy  :   -28.7640405 Eh     change       -0.1168679E-04 Eh
 * total energy  :   -28.7640494 Eh     change       -0.8920430E-05 Eh
 * total energy  :   -28.7640562 Eh     change       -0.6782731E-05 Eh
 * total energy  :   -28.7640608 Eh     change       -0.4579289E-05 Eh
   *** GEOMETRY OPTIMIZATION CONVERGED AFTER 25 ITERATIONS ***

 final structure:
================
20
 xtb: 6.7.1 (edcfbbe)
O            1.26673769266586       -0.09553995544860       -0.00020597064236
C            0.95008270757096       -0.18092248162938        1.35955016317936
C            1.55238180428912       -1.43693369037005        1.88714281352888
C            1.54646333845637       -1.80120800162988        3.16840632990221
N            2.10912062252482       -2.98602344291341        3.67886572975845
C            2.36855470792945       -4.04746609078671        2.89374721543984
C            2.93396961474424       -5.19539136975452        3.40407120802931
C            3.23406610500188       -5.27139657180662        4.75858649175063
C            2.94486987991601       -4.17409398632346        5.56056296814381
C            2.38443086459557       -3.05029914365471        4.99560523821785
H            0.89115543587865        0.70301587810116       -0.38580611511423
H            1.33585617342351        0.68521523638479        1.92011714065514
H           -0.14127244559171       -0.21114244893716        1.51600297313272
H            2.02292544472899       -2.02336215759034        1.10997773555859
H            1.11446827301576       -1.16324547904490        3.92625930188261
H            2.10182059414509       -3.97217988991453        1.85164952875026
H            3.12887413856599       -6.02571902021824        2.74436717837740
H            3.67273021907021       -6.16238720643427        5.17857741571242
H            3.15202460452683       -4.18785350110421        6.61859389631663
H            2.15372022454227       -2.17871667692514        5.59044875742048

          :  Hamiltonian                  GFN2-xTB          :
         :: total energy             -28.764060799207 Eh    ::
         :: gradient norm              0.000358145869 Eh/a0 ::
         :: HOMO-LUMO gap              1.944069157794 eV    ::
         :: SCC energy               -29.217155850064 Eh    ::
         :: -> dispersion             -0.013810526673 Eh    ::
         :: repulsion energy           0.453095050857 Eh    ::

    * Orbital Energies and Occupations

         #    Occupation            Energy/Eh            Energy/eV
      -------------------------------------------------------------
         1        2.0000           -0.8801834             -23.9510
       ...           ...                  ...                  ...
        14        2.0000           -0.6887660             -18.7423
        15        2.0000           -0.6815186             -18.5451
        16        2.0000           -0.6718517             -18.2820
        17        2.0000           -0.6703144             -18.2402
        18        2.0000           -0.6547226             -17.8159
        19        2.0000           -0.6404784             -17.4283
        20        2.0000           -0.6298752             -17.1398
        21        2.0000           -0.6220718             -16.9274
        22        2.0000           -0.6177193             -16.8090
        23        2.0000           -0.6136299             -16.6977
        24        2.0000           -0.5942584             -16.1706
        25        2.0000           -0.5852733             -15.9261
        26        2.0000           -0.5379786             -14.6391 (HOMO)
        27                         -0.4665354             -12.6951 (LUMO)
        28                         -0.4262806             -11.5997
        29                         -0.3748812             -10.2010
        30                         -0.3001372              -8.1671
        31                         -0.1649694              -4.4890
        32                         -0.0739955              -2.0135
        33                         -0.0694522              -1.8899
        34                         -0.0543564              -1.4791
        35                         -0.0292611              -0.7962
        36                         -0.0143615              -0.3908
        37                         -0.0107389              -0.2922
       ...                                ...                  ...
        50                          0.4677999              12.7295
      -------------------------------------------------------------
                  HL-Gap            0.0714432 Eh            1.9441 eV

     #   Z          covCN         q      C6AA      α(0)
     1   8 O        1.658    -0.417    21.186     6.214
     2   6 C        3.678     0.081    19.444     6.317
     3   6 C        2.889    -0.012    28.319     8.725
     4   6 C        2.860    -0.024    28.590     8.764
     5   7 N        2.750     0.124    19.125     6.495
     6   6 C        2.890     0.027    27.390     8.580
     7   6 C        2.915    -0.008    28.230     8.713
     8   6 C        2.924     0.012    27.744     8.638
     9   6 C        2.915    -0.009    28.238     8.714
    10   6 C        2.901     0.029    27.363     8.577
    11   1 H        0.805     0.312     0.686     1.301
    12   1 H        0.923     0.070     2.089     2.260
    13   1 H        0.923     0.073     2.053     2.241
    14   1 H        0.925     0.109     1.701     2.040
    15   1 H        0.926     0.090     1.883     2.146
    16   1 H        0.926     0.111     1.691     2.034
    17   1 H        0.926     0.109     1.704     2.041
    18   1 H        0.926     0.108     1.716     2.048
    19   1 H        0.926     0.109     1.706     2.043
    20   1 H        0.926     0.108     1.718     2.050

Wiberg/Mayer (AO) data.
largest (>0.10) Wiberg bond orders for each atom

     #   Z sym  total        # sym  WBO       # sym  WBO       # sym  WBO
 ---------------------------------------------------------------------------
     1   8 O    1.968 --     2 C    1.019    11 H    0.888
     2   6 C    3.964 --     3 C    1.042     1 O    1.019    12 H    0.934
                            13 H    0.928
     3   6 C    3.973 --     4 C    1.804     2 C    1.042    14 H    0.947
     4   6 C    3.936 --     3 C    1.804     5 N    1.048    15 H    0.951
     5   7 N    3.776 --     6 C    1.289    10 C    1.288     4 C    1.048
     6   6 C    3.956 --     7 C    1.476     5 N    1.289    16 H    0.951
     7   6 C    3.981 --     6 C    1.476     8 C    1.413    17 H    0.958
     8   6 C    3.960 --     7 C    1.413     9 C    1.412    18 H    0.961
     9   6 C    3.980 --    10 C    1.477     8 C    1.412    19 H    0.959
    10   6 C    3.955 --     9 C    1.477     5 N    1.288    20 H    0.954
    11   1 H    0.902 --     1 O    0.888
    12   1 H    0.992 --     2 C    0.934
    13   1 H    0.991 --     2 C    0.928
    14   1 H    0.988 --     3 C    0.947
    15   1 H    0.992 --     4 C    0.951
    16   1 H    0.988 --     6 C    0.951
    17   1 H    0.988 --     7 C    0.958
    18   1 H    0.988 --     8 C    0.961
    19   1 H    0.988 --     9 C    0.959
    20   1 H    0.988 --    10 C    0.954
 ---------------------------------------------------------------------------

molecular dipole:
                 x           y           z       tot (Debye)
 q only:        3.972      -5.652       6.899
   full:        3.826      -5.433       6.979      24.493

           -------------------------------------------------
          | TOTAL ENERGY              -28.764060799207 Eh   |
          | GRADIENT NORM               0.000358145869 Eh/α |
          | HOMO-LUMO GAP               1.944069157794 eV   |
           -------------------------------------------------

 * finished run on 2024/12/20 at 06:57:13.544
