   * xtb version 6.7.1 (edcfbbe) compiled by 'conda@3ef47c1a292c' on 2024-11-25

   ID    Z sym.   atoms
    1    8 O      1
    2    6 C      2-4, 6-14
    3    7 N      5
    4    1 H      15-34

          program call               : xtb C0774.xyz --opt --namespace C0774 --charge +1
          :  Hamiltonian                  GFN2-xTB          :
 * total energy  :   -42.4516061 Eh     change       -0.1537394E-08 Eh
 * total energy  :   -42.4591945 Eh     change       -0.7588403E-02 Eh
 * total energy  :   -42.4613446 Eh     change       -0.2150149E-02 Eh
 * total energy  :   -42.4616435 Eh     change       -0.2988373E-03 Eh
 * total energy  :   -42.4619510 Eh     change       -0.3075007E-03 Eh
 * total energy  :   -42.4621383 Eh     change       -0.1873455E-03 Eh
 * total energy  :   -42.4624072 Eh     change       -0.2688498E-03 Eh
 * total energy  :   -42.4627206 Eh     change       -0.3134398E-03 Eh
 * total energy  :   -42.4630125 Eh     change       -0.2918687E-03 Eh
 * total energy  :   -42.4632776 Eh     change       -0.2650907E-03 Eh
 * total energy  :   -42.4690319 Eh     change       -0.2217996E-04 Eh
 * total energy  :   -42.4690469 Eh     change       -0.1492986E-04 Eh
 * total energy  :   -42.4690676 Eh     change       -0.2073961E-04 Eh
 * total energy  :   -42.4690806 Eh     change       -0.1294072E-04 Eh
 * total energy  :   -42.4690909 Eh     change       -0.1039248E-04 Eh
 * total energy  :   -42.4691019 Eh     change       -0.1098407E-04 Eh
 * total energy  :   -42.4691106 Eh     change       -0.8640919E-05 Eh
 * total energy  :   -42.4691157 Eh     change       -0.5159606E-05 Eh
 * total energy  :   -42.4691193 Eh     change       -0.3585865E-05 Eh
   *** GEOMETRY OPTIMIZATION CONVERGED AFTER 53 ITERATIONS ***

 final structure:
================
34
 xtb: 6.7.1 (edcfbbe)
O            1.72040336935585       -0.24402306863042       -0.08062417312016
C            0.61960160979434        0.44506490944023        0.47900181446843
C            1.07717821326670        1.22706345658186        1.72938391592038
C            2.56809799924545        1.56578943813375        1.75493854632167
N            3.01752453487540        2.77058606881485        0.99799726809891
C            2.55479010528180        4.03980188724769        1.65482669256715
C            3.08814733034585        4.25523519509234        3.04755760392123
C            2.38548357176756        3.78731757822223        4.15409211013891
C            2.86792966057068        4.00284457938797        5.43323401666948
C            4.05279599886176        4.69433734558248        5.62196214716591
C            4.74842845035680        5.18066121500283        4.52771814573105
C            4.26867496090238        4.96424761525142        3.24801799132339
C            4.49126962972682        2.73967128017123        0.95787598441969
C            2.51627042453291        2.74585170651948       -0.38658545685846
H            1.40063190337512       -0.97321314929388       -0.61991213767739
H            0.18680619409216        1.11951025890296       -0.27279666625675
H           -0.16552467889948       -0.25533458067413        0.77885989791393
H            0.44668863801074        2.10652581721637        1.85210549841460
H            0.91319293397235        0.58989944930956        2.59941340087091
H            2.88381599543338        1.71150331253178        2.78926344240171
H            3.09477680173678        0.70195002842881        1.34450488626979
H            2.86817066243310        4.86582842992899        1.01252742870256
H            1.46408745168481        4.02087892639207        1.68101570441494
H            1.44565833149323        3.27097817093366        4.02156132796291
H            2.31207638584623        3.63812133367876        6.28252608422119
H            4.42537000286132        4.86599896557457        6.61922401551189
H            5.66167518846064        5.73689116418536        4.66908613563645
H            4.80862222110250        5.36863628791362        2.40432974776382
H            4.82654616996442        1.86345141829879        0.40613207389222
H            4.87065817313961        3.63125434236096        0.46218366776631
H            4.89573658928467        2.70077594317650        1.96752997151361
H            2.67786853220392        1.75702344380842       -0.81324348908924
H            1.45338703395989        2.97146306604269       -0.40877876326958
H            3.03892961097091        3.48766816444675       -0.98752883373589

          :  Hamiltonian                  GFN2-xTB          :
         :: total energy             -42.469119314734 Eh    ::
         :: gradient norm              0.000259274857 Eh/a0 ::
         :: HOMO-LUMO gap              4.659526796550 eV    ::
         :: SCC energy               -43.101037216356 Eh    ::
         :: -> dispersion             -0.029855669262 Eh    ::
         :: repulsion energy           0.631917901622 Eh    ::

    * Orbital Energies and Occupations

         #    Occupation            Energy/Eh            Energy/eV
      -------------------------------------------------------------
         1        2.0000           -0.8516103             -23.1735
       ...           ...                  ...                  ...
        27        2.0000           -0.6179775             -16.8160
        28        2.0000           -0.6050156             -16.4633
        29        2.0000           -0.6036244             -16.4255
        30        2.0000           -0.5996062             -16.3161
        31        2.0000           -0.5987190             -16.2920
        32        2.0000           -0.5963386             -16.2272
        33        2.0000           -0.5943576             -16.1733
        34        2.0000           -0.5853412             -15.9279
        35        2.0000           -0.5457494             -14.8506
        36        2.0000           -0.5409428             -14.7198
        37        2.0000           -0.5391027             -14.6697
        38        2.0000           -0.5269119             -14.3380
        39        2.0000           -0.5261835             -14.3182 (HOMO)
        40                         -0.3549491              -9.6587 (LUMO)
        41                         -0.3445982              -9.3770
        42                         -0.2309609              -6.2848
        43                         -0.2009760              -5.4688
        44                         -0.1453255              -3.9545
        45                         -0.1358007              -3.6953
        46                         -0.1307196              -3.5571
        47                         -0.0975244              -2.6538
        48                         -0.0710927              -1.9345
        49                         -0.0479147              -1.3038
        50                         -0.0344608              -0.9377
       ...                                ...                  ...
        76                          0.5409427              14.7198
      -------------------------------------------------------------
                  HL-Gap            0.1712345 Eh            4.6595 eV

     #   Z          covCN         q      C6AA      α(0)
     1   8 O        1.655    -0.448    21.796     6.302
     2   6 C        3.671     0.072    19.610     6.347
     3   6 C        3.798    -0.073    21.908     6.665
     4   6 C        3.762    -0.042    21.367     6.589
     5   7 N        3.621     0.132    18.989     6.472
     6   6 C        3.764    -0.041    21.354     6.587
     7   6 C        2.967    -0.007    28.195     8.710
     8   6 C        2.923    -0.039    28.977     8.828
     9   6 C        2.919    -0.023    28.572     8.765
    10   6 C        2.920    -0.018    28.468     8.750
    11   6 C        2.919    -0.022    28.559     8.763
    12   6 C        2.923    -0.038    28.956     8.824
    13   6 C        3.729    -0.094    22.393     6.756
    14   6 C        3.722    -0.098    22.493     6.773
    15   1 H        0.805     0.306     0.704     1.318
    16   1 H        0.923     0.033     2.547     2.496
    17   1 H        0.924     0.047     2.361     2.403
    18   1 H        0.925     0.056     2.244     2.343
    19   1 H        0.924     0.080     1.979     2.200
    20   1 H        0.924     0.086     1.919     2.166
    21   1 H        0.924     0.115     1.657     2.013
    22   1 H        0.924     0.083     1.948     2.183
    23   1 H        0.924     0.083     1.953     2.185
    24   1 H        0.926     0.040     2.451     2.448
    25   1 H        0.926     0.057     2.229     2.334
    26   1 H        0.926     0.061     2.181     2.310
    27   1 H        0.926     0.059     2.216     2.328
    28   1 H        0.926     0.041     2.436     2.440
    29   1 H        0.925     0.099     1.797     2.096
    30   1 H        0.925     0.095     1.830     2.116
    31   1 H        0.925     0.098     1.806     2.102
    32   1 H        0.925     0.118     1.630     1.996
    33   1 H        0.925     0.095     1.834     2.118
    34   1 H        0.925     0.090     1.879     2.144

Wiberg/Mayer (AO) data.
largest (>0.10) Wiberg bond orders for each atom

     #   Z sym  total        # sym  WBO       # sym  WBO       # sym  WBO
 ---------------------------------------------------------------------------
     1   8 O    1.957 --     2 C    0.999    15 H    0.892
     2   6 C    3.956 --     1 O    0.999     3 C    0.995    17 H    0.975
                            16 H    0.969
     3   6 C    3.990 --     4 C    1.012     2 C    0.995    18 H    0.970
                            19 H    0.969
     4   6 C    3.929 --     3 C    1.012    20 H    0.962    21 H    0.955
                             5 N    0.928
     5   7 N    3.810 --    13 C    0.961    14 C    0.958     4 C    0.928
                             6 C    0.914
     6   6 C    3.933 --     7 C    1.005    22 H    0.965    23 H    0.962
                             5 N    0.914
     7   6 C    3.979 --    12 C    1.408     8 C    1.408     6 C    1.005
                            10 C    0.109
     8   6 C    3.991 --     9 C    1.444     7 C    1.408    24 H    0.967
                            11 C    0.109
     9   6 C    3.990 --     8 C    1.444    10 C    1.438    25 H    0.969
                            12 C    0.110
    10   6 C    3.988 --     9 C    1.438    11 C    1.437    26 H    0.969
                             7 C    0.109
    11   6 C    3.990 --    12 C    1.445    10 C    1.437    27 H    0.969
                             8 C    0.109
    12   6 C    3.991 --    11 C    1.445     7 C    1.408    28 H    0.968
                             9 C    0.110
    13   6 C    3.930 --    30 H    0.974    29 H    0.974    31 H    0.973
                             5 N    0.961
    14   6 C    3.925 --    34 H    0.976    33 H    0.973    32 H    0.966
                             5 N    0.958
    15   1 H    0.906 --     1 O    0.892
    16   1 H    0.999 --     2 C    0.969
    17   1 H    0.998 --     2 C    0.975
    18   1 H    0.997 --     3 C    0.970
    19   1 H    0.993 --     3 C    0.969
    20   1 H    0.993 --     4 C    0.962
    21   1 H    0.987 --     4 C    0.955
    22   1 H    0.993 --     6 C    0.965
    23   1 H    0.993 --     6 C    0.962
    24   1 H    0.998 --     8 C    0.967
    25   1 H    0.996 --     9 C    0.969
    26   1 H    0.996 --    10 C    0.969
    27   1 H    0.996 --    11 C    0.969
    28   1 H    0.998 --    12 C    0.968
    29   1 H    0.990 --    13 C    0.974
    30   1 H    0.991 --    13 C    0.974
    31   1 H    0.990 --    13 C    0.973
    32   1 H    0.985 --    14 C    0.966
    33   1 H    0.991 --    14 C    0.973
    34   1 H    0.992 --    14 C    0.976
 ---------------------------------------------------------------------------

molecular dipole:
                 x           y           z       tot (Debye)
 q only:        5.312       4.994       2.578
   full:        5.079       4.932       2.442      19.034

           -------------------------------------------------
          | TOTAL ENERGY              -42.469119314734 Eh   |
          | GRADIENT NORM               0.000259274857 Eh/α |
          | HOMO-LUMO GAP               4.659526796550 eV   |
           -------------------------------------------------

 * finished run on 2024/12/20 at 06:57:18.031
