   * xtb version 6.7.1 (edcfbbe) compiled by 'conda@3ef47c1a292c' on 2024-11-25

   ID    Z sym.   atoms
    1    6 C      1-7, 10, 12, 13, 15
    2    7 N      8, 9, 11
    3    9 F      14
    4    1 H      16-36

          program call               : xtb C0772.xyz --opt --namespace C0772 --charge +1
          :  Hamiltonian                  GFN2-xTB          :
 * total energy  :   -47.3779314 Eh     change       -0.7260326E-10 Eh
 * total energy  :   -47.3826776 Eh     change       -0.4746166E-02 Eh
 * total energy  :   -47.3837462 Eh     change       -0.1068627E-02 Eh
 * total energy  :   -47.3839575 Eh     change       -0.2113471E-03 Eh
 * total energy  :   -47.3841824 Eh     change       -0.2248287E-03 Eh
 * total energy  :   -47.3842689 Eh     change       -0.8647542E-04 Eh
 * total energy  :   -47.3843525 Eh     change       -0.8363651E-04 Eh
 * total energy  :   -47.3843994 Eh     change       -0.4690496E-04 Eh
 * total energy  :   -47.3844228 Eh     change       -0.2337041E-04 Eh
 * total energy  :   -47.3844411 Eh     change       -0.1830794E-04 Eh
 * total energy  :   -47.3845989 Eh     change       -0.2369816E-04 Eh
 * total energy  :   -47.3846257 Eh     change       -0.2679857E-04 Eh
 * total energy  :   -47.3846465 Eh     change       -0.2082547E-04 Eh
 * total energy  :   -47.3846636 Eh     change       -0.1713359E-04 Eh
 * total energy  :   -47.3846756 Eh     change       -0.1198478E-04 Eh
 * total energy  :   -47.3846915 Eh     change       -0.1581955E-04 Eh
 * total energy  :   -47.3846982 Eh     change       -0.6746039E-05 Eh
 * total energy  :   -47.3847037 Eh     change       -0.5537345E-05 Eh
 * total energy  :   -47.3847085 Eh     change       -0.4731019E-05 Eh
   *** GEOMETRY OPTIMIZATION CONVERGED AFTER 26 ITERATIONS ***

 final structure:
================
36
 xtb: 6.7.1 (edcfbbe)
C            0.68096307254751       -0.05754065730175        0.40229193738466
C            0.35590415570939        1.42054771744765        0.22381230676798
C            0.98814506187797        2.02984551587365       -1.02923622189600
C            0.51595045725536        1.41769866513762       -2.35021283640003
C           -0.99175978119849        1.49852334893026       -2.60264891394156
C           -1.58387955875218        2.90514155692254       -2.51778773035493
C           -0.95271916174951        3.90554393225579       -3.49661072963084
N           -1.20926653887210        3.52863308512815       -4.86142580196975
N           -0.42981506891692        2.65716157200609       -5.49147996157133
C           -0.94823156878561        2.47945079031244       -6.66475073709797
N           -2.07097448590082        3.23801050696482       -6.80584401249138
C           -2.21071702446225        3.89265966237726       -5.64312440679996
C           -2.93176863621717        3.36159633853297       -7.97834837376035
F           -4.13401609436066        3.79254360421667       -7.51454941927828
C           -2.36236691004307        4.34367774211030       -8.98504279383653
H            0.22339964400877       -0.66251642545790       -0.37637667963922
H            0.30916391040509       -0.40819876107520        1.36136867144751
H            1.75633293574507       -0.21586209066890        0.37586240520260
H           -0.72744888845488        1.55532562347870        0.20526835714070
H            0.73408175739293        1.96891655318977        1.08899161582345
H            0.80338522717716        3.10711395132672       -1.02841312178269
H            2.06969171072786        1.89245292647186       -0.96913495352335
H            1.05223953243779        1.89634906635846       -3.17293797313994
H            0.79604933302815        0.36451195105102       -2.36854599675951
H           -1.19680378750985        1.06657586675564       -3.58583379314708
H           -1.51025434363963        0.88088356319321       -1.86923503682928
H           -2.66074902868063        2.85824235926902       -2.69552087350376
H           -1.43197378511756        3.30222354057820       -1.51508565846907
H           -1.35979738002441        4.90385400452234       -3.33012007330920
H            0.12928489327047        3.91545438137500       -3.36068074789510
H           -0.54791835157784        1.82661101332575       -7.41363675360801
H           -3.00470405566572        4.57452133194433       -5.40549051418137
H           -3.08232932663495        2.36108991107134       -8.40802877781402
H           -1.40748877201617        3.99121495785818       -9.36376665567738
H           -3.05803531503634        4.43482320341811       -9.81555586074842
H           -2.23750382797213        5.32504969109707       -8.53271988470974

          :  Hamiltonian                  GFN2-xTB          :
         :: total energy             -47.384708467371 Eh    ::
         :: gradient norm              0.000495772049 Eh/a0 ::
         :: HOMO-LUMO gap              1.774642731368 eV    ::
         :: SCC energy               -47.994653735183 Eh    ::
         :: -> dispersion             -0.028042602073 Eh    ::
         :: repulsion energy           0.609945267811 Eh    ::

    * Orbital Energies and Occupations

         #    Occupation            Energy/Eh            Energy/eV
      -------------------------------------------------------------
         1        2.0000           -0.9860258             -26.8311
       ...           ...                  ...                  ...
        31        2.0000           -0.6112670             -16.6334
        32        2.0000           -0.6078025             -16.5391
        33        2.0000           -0.6012815             -16.3617
        34        2.0000           -0.5904617             -16.0673
        35        2.0000           -0.5841203             -15.8947
        36        2.0000           -0.5686494             -15.4737
        37        2.0000           -0.5650226             -15.3750
        38        2.0000           -0.5471070             -14.8875
        39        2.0000           -0.5383982             -14.6506
        40        2.0000           -0.5336443             -14.5212
        41        2.0000           -0.5124840             -13.9454
        42        2.0000           -0.5074414             -13.8082
        43        2.0000           -0.5026634             -13.6782 (HOMO)
        44                         -0.4374465             -11.9035 (LUMO)
        45                         -0.4148000             -11.2873
        46                         -0.2199846              -5.9861
        47                         -0.1651634              -4.4943
        48                         -0.1372453              -3.7346
        49                         -0.0828125              -2.2534
        50                         -0.0718753              -1.9558
        51                         -0.0606041              -1.6491
        52                         -0.0523967              -1.4258
        53                         -0.0249861              -0.6799
        54                         -0.0240445              -0.6543
       ...                                ...                  ...
        81                          0.3449769               9.3873
      -------------------------------------------------------------
                  HL-Gap            0.0652169 Eh            1.7746 eV

     #   Z          covCN         q      C6AA      α(0)
     1   6 C        3.752    -0.107    22.603     6.780
     2   6 C        3.799    -0.056    21.581     6.614
     3   6 C        3.800    -0.063    21.715     6.635
     4   6 C        3.800    -0.069    21.813     6.650
     5   6 C        3.800    -0.065    21.752     6.640
     6   6 C        3.801    -0.068    21.805     6.648
     7   6 C        3.742    -0.038    21.323     6.588
     8   7 N        3.057     0.163    18.503     6.389
     9   7 N        2.047    -0.129    24.489     7.340
    10   6 C        3.134     0.087    25.867     8.325
    11   7 N        2.861     0.023    20.851     6.782
    12   6 C        3.059     0.063    26.543     8.449
    13   6 C        3.595     0.197    18.008     6.143
    14   9 F        0.788    -0.211    11.349     3.979
    15   6 C        3.754    -0.140    23.251     6.876
    16   1 H        0.925     0.034     2.530     2.487
    17   1 H        0.925     0.042     2.425     2.435
    18   1 H        0.925     0.041     2.436     2.441
    19   1 H        0.924     0.028     2.610     2.527
    20   1 H        0.924     0.038     2.476     2.461
    21   1 H        0.924     0.023     2.690     2.565
    22   1 H        0.924     0.044     2.391     2.418
    23   1 H        0.924     0.033     2.541     2.493
    24   1 H        0.925     0.054     2.267     2.354
    25   1 H        0.924     0.029     2.602     2.522
    26   1 H        0.925     0.065     2.146     2.291
    27   1 H        0.924     0.049     2.328     2.386
    28   1 H        0.925     0.086     1.917     2.165
    29   1 H        0.924     0.088     1.902     2.156
    30   1 H        0.924     0.121     1.605     1.981
    31   1 H        0.926     0.121     1.602     1.979
    32   1 H        0.926     0.138     1.475     1.899
    33   1 H        0.923     0.099     1.799     2.097
    34   1 H        0.925     0.082     1.953     2.186
    35   1 H        0.925     0.110     1.694     2.035
    36   1 H        0.925     0.087     1.905     2.158

Wiberg/Mayer (AO) data.
largest (>0.10) Wiberg bond orders for each atom

     #   Z sym  total        # sym  WBO       # sym  WBO       # sym  WBO
 ---------------------------------------------------------------------------
     1   6 C    3.996 --     2 C    1.020    18 H    0.987    17 H    0.986
                            16 H    0.986
     2   6 C    3.997 --     1 C    1.020     3 C    1.007    20 H    0.977
                            19 H    0.976
     3   6 C    3.996 --     4 C    1.008     2 C    1.007    21 H    0.975
                            22 H    0.975
     4   6 C    3.994 --     3 C    1.008     5 C    1.006    23 H    0.974
                            24 H    0.972
     5   6 C    3.992 --     6 C    1.008     4 C    1.006    25 H    0.975
                            26 H    0.967
     6   6 C    3.978 --     5 C    1.008    27 H    0.975     7 C    0.968
                            28 H    0.960
     7   6 C    3.918 --     6 C    0.968    29 H    0.963     8 N    0.963
                            30 H    0.950
     8   7 N    3.755 --    12 C    1.419     9 N    1.208     7 C    0.963
     9   7 N    3.034 --    10 C    1.599     8 N    1.208
    10   6 C    3.946 --     9 N    1.599    11 N    1.232    31 H    0.954
    11   7 N    3.692 --    12 C    1.319    10 C    1.232    13 C    0.939
    12   6 C    3.944 --     8 N    1.419    11 N    1.319    32 H    0.948
    13   6 C    3.877 --    15 C    0.990    14 F    0.960    33 H    0.944
                            11 N    0.939
    14   9 F    1.050 --    13 C    0.960
    15   6 C    3.968 --    13 C    0.990    36 H    0.978    34 H    0.978
                            35 H    0.968
    16   1 H    0.999 --     1 C    0.986
    17   1 H    0.998 --     1 C    0.986
    18   1 H    0.998 --     1 C    0.987
    19   1 H    0.999 --     2 C    0.976
    20   1 H    0.999 --     2 C    0.977
    21   1 H    0.999 --     3 C    0.975
    22   1 H    0.998 --     3 C    0.975
    23   1 H    0.999 --     4 C    0.974
    24   1 H    0.997 --     4 C    0.972
    25   1 H    0.999 --     5 C    0.975
    26   1 H    0.996 --     5 C    0.967
    27   1 H    0.998 --     6 C    0.975
    28   1 H    0.992 --     6 C    0.960
    29   1 H    0.992 --     7 C    0.963
    30   1 H    0.985 --     7 C    0.950
    31   1 H    0.985 --    10 C    0.954
    32   1 H    0.981 --    12 C    0.948
    33   1 H    0.990 --    13 C    0.944
    34   1 H    0.993 --    15 C    0.978
    35   1 H    0.987 --    15 C    0.968
    36   1 H    0.992 --    15 C    0.978
 ---------------------------------------------------------------------------

molecular dipole:
                 x           y           z       tot (Debye)
 q only:       -2.652       6.372     -10.793
   full:       -2.958       6.489     -11.137      33.613

           -------------------------------------------------
          | TOTAL ENERGY              -47.384708467371 Eh   |
          | GRADIENT NORM               0.000495772049 Eh/α |
          | HOMO-LUMO GAP               1.774642731368 eV   |
           -------------------------------------------------

 * finished run on 2024/12/20 at 06:57:16.036
