   * xtb version 6.7.1 (edcfbbe) compiled by 'conda@3ef47c1a292c' on 2024-11-25

   ID    Z sym.   atoms
    1    6 C      1-4, 6-11
    2    7 N      5, 12
    3    1 H      13-25

          program call               : xtb C0773.xyz --opt --namespace C0773 --charge +1
          :  Hamiltonian                  GFN2-xTB          :
 * total energy  :   -33.4247063 Eh     change       -0.7376144E-10 Eh
 * total energy  :   -33.4274690 Eh     change       -0.2762678E-02 Eh
 * total energy  :   -33.4278660 Eh     change       -0.3969463E-03 Eh
 * total energy  :   -33.4279850 Eh     change       -0.1190723E-03 Eh
 * total energy  :   -33.4280821 Eh     change       -0.9702605E-04 Eh
 * total energy  :   -33.4281683 Eh     change       -0.8622044E-04 Eh
 * total energy  :   -33.4282630 Eh     change       -0.9473721E-04 Eh
 * total energy  :   -33.4283534 Eh     change       -0.9041386E-04 Eh
 * total energy  :   -33.4284191 Eh     change       -0.6565113E-04 Eh
 * total energy  :   -33.4284674 Eh     change       -0.4832158E-04 Eh
 * total energy  :   -33.4285135 Eh     change       -0.4604788E-04 Eh
 * total energy  :   -33.4285623 Eh     change       -0.4880475E-04 Eh
 * total energy  :   -33.4285972 Eh     change       -0.3491316E-04 Eh
 * total energy  :   -33.4286206 Eh     change       -0.2340285E-04 Eh
 * total energy  :   -33.4286265 Eh     change       -0.5958203E-05 Eh
 * total energy  :   -33.4286382 Eh     change       -0.1170690E-04 Eh
 * total energy  :   -33.4286441 Eh     change       -0.5838906E-05 Eh
 * total energy  :   -33.4286481 Eh     change       -0.4016581E-05 Eh
 * total energy  :   -33.4286530 Eh     change       -0.4922598E-05 Eh
   *** GEOMETRY OPTIMIZATION CONVERGED AFTER 19 ITERATIONS ***

 final structure:
================
25
 xtb: 6.7.1 (edcfbbe)
C            1.25047869552615        0.15655864744795       -0.11227452606784
C            0.37738832129109       -0.05506089335119        1.13318099617515
C            0.57228325382604        0.98904473060482        2.23667948815102
C           -0.25233445621241        2.25979622130777        2.05185153306854
N            0.89125381118866        1.35696457196754       -0.84623519051271
C           -0.25521033329723        1.37663827892432       -1.53867819347225
C           -0.66913940897706        2.50169339504395       -2.21432998420227
C            0.13399268129698        3.64712761597019       -2.17783364825653
C            1.33141833935116        3.60386890451370       -1.45721957857544
C            1.67414852766729        2.44091348272717       -0.80210283689489
C           -0.26109892226138        4.82929146937018       -2.85885504291759
N           -0.58367944388342        5.78202414642117       -3.40163760451205
H            1.13415085943721       -0.70159929902170       -0.77895383959812
H            2.29760598403755        0.22590282426308        0.18597184274043
H           -0.67615350204082       -0.09354667102670        0.85105267570971
H            0.64698277115699       -1.03657685306323        1.52468614258055
H            0.26857054651085        0.53195203678741        3.17892782528449
H            1.63092370446930        1.23898491464051        2.33104082844060
H           -1.30307203164361        2.01604780422938        1.90976782346980
H           -0.17311446394639        2.87585751175232        2.94332940060951
H            0.08167974548308        2.86223569431147        1.20918575584787
H           -0.84213363587686        0.46973447264183       -1.54814981502658
H           -1.59725454784911        2.49741713346300       -2.76484741184911
H            1.97794140539461        4.46650822616700       -1.40880406898436
H            2.58774209935103        2.37393163390821       -0.22901257120792

          :  Hamiltonian                  GFN2-xTB          :
         :: total energy             -33.428653026978 Eh    ::
         :: gradient norm              0.000985718259 Eh/a0 ::
         :: HOMO-LUMO gap              2.126295340579 eV    ::
         :: SCC energy               -34.023029198933 Eh    ::
         :: -> dispersion             -0.020608562237 Eh    ::
         :: repulsion energy           0.594376171955 Eh    ::

    * Orbital Energies and Occupations

         #    Occupation            Energy/Eh            Energy/eV
      -------------------------------------------------------------
         1        2.0000           -0.8974757             -24.4216
       ...           ...                  ...                  ...
        19        2.0000           -0.6634468             -18.0533
        20        2.0000           -0.6525573             -17.7570
        21        2.0000           -0.6469748             -17.6051
        22        2.0000           -0.6381546             -17.3651
        23        2.0000           -0.6352787             -17.2868
        24        2.0000           -0.6274102             -17.0727
        25        2.0000           -0.6267748             -17.0554
        26        2.0000           -0.6166305             -16.7794
        27        2.0000           -0.6097954             -16.5934
        28        2.0000           -0.5819049             -15.8344
        29        2.0000           -0.5762297             -15.6800
        30        2.0000           -0.5730915             -15.5946
        31        2.0000           -0.5655510             -15.3894 (HOMO)
        32                         -0.4874111             -13.2631 (LUMO)
        33                         -0.4465203             -12.1504
        34                         -0.3728151             -10.1448
        35                         -0.3652395              -9.9387
        36                         -0.2788514              -7.5879
        37                         -0.1859973              -5.0612
        38                         -0.0963510              -2.6218
        39                         -0.0853500              -2.3225
        40                         -0.0618411              -1.6828
        41                         -0.0532545              -1.4491
        42                         -0.0443096              -1.2057
       ...                                ...                  ...
        61                          1.0209667              27.7819
      -------------------------------------------------------------
                  HL-Gap            0.0781399 Eh            2.1263 eV

     #   Z          covCN         q      C6AA      α(0)
     1   6 C        3.758    -0.037    21.284     6.577
     2   6 C        3.800    -0.071    21.867     6.658
     3   6 C        3.799    -0.067    21.782     6.645
     4   6 C        3.751    -0.110    22.661     6.789
     5   7 N        2.748     0.120    19.191     6.506
     6   6 C        2.893     0.036    27.187     8.549
     7   6 C        2.920    -0.007    28.188     8.706
     8   6 C        2.978     0.075    26.329     8.417
     9   6 C        2.920    -0.008    28.211     8.710
    10   6 C        2.889     0.037    27.163     8.545
    11   6 C        1.907     0.117    28.211     8.578
    12   7 N        0.911    -0.109    23.398     6.996
    13   1 H        0.924     0.096     1.826     2.113
    14   1 H        0.924     0.094     1.837     2.120
    15   1 H        0.924     0.062     2.175     2.306
    16   1 H        0.924     0.081     1.970     2.195
    17   1 H        0.924     0.068     2.107     2.270
    18   1 H        0.924     0.046     2.374     2.409
    19   1 H        0.925     0.045     2.377     2.411
    20   1 H        0.925     0.061     2.184     2.311
    21   1 H        0.925     0.012     2.863     2.646
    22   1 H        0.926     0.116     1.650     2.009
    23   1 H        0.926     0.114     1.663     2.017
    24   1 H        0.926     0.114     1.665     2.018
    25   1 H        0.926     0.115     1.653     2.011

Wiberg/Mayer (AO) data.
largest (>0.10) Wiberg bond orders for each atom

     #   Z sym  total        # sym  WBO       # sym  WBO       # sym  WBO
 ---------------------------------------------------------------------------
     1   6 C    3.929 --     2 C    0.974    14 H    0.964     5 N    0.963
                            13 H    0.955
     2   6 C    3.977 --     3 C    1.007     1 C    0.974    15 H    0.970
                            16 H    0.965
     3   6 C    3.991 --     4 C    1.020     2 C    1.007    18 H    0.975
                            17 H    0.972
     4   6 C    3.994 --     3 C    1.020    21 H    0.986    19 H    0.986
                            20 H    0.984
     5   7 N    3.751 --    10 C    1.326     6 C    1.319     1 C    0.963
     6   6 C    3.958 --     7 C    1.479     5 N    1.319    22 H    0.952
     7   6 C    3.980 --     6 C    1.479     8 C    1.351    23 H    0.958
     8   6 C    3.983 --     9 C    1.359     7 C    1.351    11 C    1.082
     9   6 C    3.980 --    10 C    1.468     8 C    1.359    24 H    0.958
    10   6 C    3.958 --     9 C    1.468     5 N    1.326    25 H    0.951
    11   6 C    3.957 --    12 N    2.840     8 C    1.082
    12   7 N    3.011 --    11 C    2.840
    13   1 H    0.990 --     1 C    0.955
    14   1 H    0.991 --     1 C    0.964
    15   1 H    0.996 --     2 C    0.970
    16   1 H    0.992 --     2 C    0.965
    17   1 H    0.994 --     3 C    0.972
    18   1 H    0.998 --     3 C    0.975
    19   1 H    0.998 --     4 C    0.986
    20   1 H    0.996 --     4 C    0.984
    21   1 H    1.000 --     4 C    0.986
    22   1 H    0.986 --     6 C    0.952
    23   1 H    0.987 --     7 C    0.958
    24   1 H    0.987 --     9 C    0.958
    25   1 H    0.986 --    10 C    0.951
 ---------------------------------------------------------------------------

molecular dipole:
                 x           y           z       tot (Debye)
 q only:        1.355       2.888      -1.313
   full:        1.530       2.476      -1.171       7.975

           -------------------------------------------------
          | TOTAL ENERGY              -33.428653026978 Eh   |
          | GRADIENT NORM               0.000985718259 Eh/α |
          | HOMO-LUMO GAP               2.126295340579 eV   |
           -------------------------------------------------

 * finished run on 2024/12/20 at 06:57:16.623
