   * xtb version 6.7.1 (edcfbbe) compiled by 'conda@3ef47c1a292c' on 2024-11-25

   ID    Z sym.   atoms
    1    6 C      1, 3, 4, 6-10, 12-25
    2    7 N      2, 5
    3    8 O      11
    4    1 H      26-60

          program call               : xtb C0775.xyz --opt --namespace C0775 --charge +1
          :  Hamiltonian                  GFN2-xTB          :
 * total energy  :   -74.4889327 Eh     change       -0.7090080E-09 Eh
 * total energy  :   -74.5005160 Eh     change       -0.1158326E-01 Eh
 * total energy  :   -74.5044999 Eh     change       -0.3983859E-02 Eh
 * total energy  :   -74.5055690 Eh     change       -0.1069145E-02 Eh
 * total energy  :   -74.5060383 Eh     change       -0.4693220E-03 Eh
 * total energy  :   -74.5062333 Eh     change       -0.1949264E-03 Eh
 * total energy  :   -74.5063654 Eh     change       -0.1321949E-03 Eh
 * total energy  :   -74.5064662 Eh     change       -0.1007248E-03 Eh
 * total energy  :   -74.5065188 Eh     change       -0.5260539E-04 Eh
 * total energy  :   -74.5065996 Eh     change       -0.8085326E-04 Eh
 * total energy  :   -74.5077465 Eh     change       -0.1651258E-04 Eh
 * total energy  :   -74.5077792 Eh     change       -0.3269514E-04 Eh
 * total energy  :   -74.5077948 Eh     change       -0.1560003E-04 Eh
 * total energy  :   -74.5078070 Eh     change       -0.1222023E-04 Eh
 * total energy  :   -74.5078279 Eh     change       -0.2089260E-04 Eh
 * total energy  :   -74.5078352 Eh     change       -0.7379004E-05 Eh
 * total energy  :   -74.5078407 Eh     change       -0.5459327E-05 Eh
 * total energy  :   -74.5078460 Eh     change       -0.5302660E-05 Eh
 * total energy  :   -74.5078486 Eh     change       -0.2580548E-05 Eh
   *** GEOMETRY OPTIMIZATION CONVERGED AFTER 32 ITERATIONS ***

 final structure:
================
60
 xtb: 6.7.1 (edcfbbe)
C           -0.63889207673806       -0.12473008934486       -0.64493067495843
N           -0.48929340646860       -1.55469385231188       -0.68947520015926
C           -1.37289636491056       -2.42403537790994       -1.25286910973429
C           -0.86918885825566       -3.67315868293065       -1.07310201168210
N            0.31383053980475       -3.55604445444951       -0.40104121308641
C            0.51992572690842       -2.26180669357619       -0.18276103801653
C            1.08582285348996       -4.77877707238442       -0.08565452108565
C            1.40657753292589       -5.39109178701768       -1.42385732202946
C            1.32718170608972       -6.69937192665926       -1.66262549386194
C            0.94497911728467       -7.59594850804289       -0.53068955386611
O            1.35817733720972       -8.72640527800036       -0.42277065703479
C            0.02741698050926       -6.97131176424795        0.46849503754769
C            0.12870856140694       -5.65882695116968        0.67403640662961
C           -0.91684302596012       -7.87821258525968        1.23239618580401
C           -0.09485312555478       -8.69723543313112        2.23788136838754
C           -1.98352647356102       -7.08281915227197        1.99063989515216
C           -1.61706033551937       -8.82155334601477        0.24528454645406
C            1.66326173576443       -7.33910282424416       -2.99514330305136
C            1.74854335677336       -6.30332604863171       -4.11991599856963
C            3.01898669858640       -8.04790338092094       -2.86415449442261
C            0.57579929790349       -8.36157955258022       -3.35070815443148
C            2.39307702783835       -4.52166498252265        0.74341101087106
C            3.39948095669799       -3.68914318512269       -0.06276326425701
C            2.06652161388151       -3.88519434705975        2.10076407224983
C            3.07083702193681       -5.86659046023511        1.03911662810911
H           -1.48823354391726        0.14532179915551       -0.01533367105800
H           -0.81569346974152        0.26265119280468       -1.64854444237932
H            0.26184004552094        0.33125836678017       -0.24000892454339
H           -2.27517385558461       -2.10174576944259       -1.73056803393598
H           -1.25753539104212       -4.62548245643987       -1.37037160693116
H            1.35674762278258       -1.81968887038581        0.31814420303560
H            1.72451294647446       -4.69475243958044       -2.18367502242051
H           -0.46872952889972       -5.15423946657569        1.41699332655851
H            0.40374376262967       -8.04174888936399        2.94959634323433
H           -0.75346900188593       -9.36398208398076        2.78776707753047
H            0.65373516873197       -9.29474878279309        1.72704946887608
H           -2.53999664497999       -6.43073327727533        1.31987126761969
H           -2.68605552729607       -7.77485966990157        2.44637157748384
H           -1.54602800951077       -6.48749192560577        2.78862577879721
H           -2.15085807741253       -8.25569043361940       -0.51665002708713
H           -0.90306835095222       -9.47898858322599       -0.24066500694821
H           -2.33491541863829       -9.43995073265315        0.77693019732160
H            2.58694215946308       -5.62577302473010       -3.97622742286989
H            1.90084298567842       -6.81661267870002       -5.06515653042730
H            0.82869165399379       -5.72616151849209       -4.19410896014437
H            2.98097608371723       -8.81251782084038       -2.09452001889407
H            3.27453730646715       -8.52042434782927       -3.80866831804954
H            3.80184281941233       -7.33447673766499       -2.61310926362679
H            0.54967267885231       -9.17185878064956       -2.62893836343819
H           -0.40356600881351       -7.88684418313379       -3.38392929421205
H            0.78146166284564       -8.78915802579449       -4.32808816583869
H            2.98048880704544       -2.79224403792677       -0.50834165646695
H            4.21943607848370       -3.39093256082712        0.58529401128812
H            3.81850223975921       -4.29113325266495       -0.86504405522897
H            1.53438034430583       -4.59679802014369        2.72677709756204
H            2.99387297539332       -3.63347996226560        2.60864562050467
H            1.46528987250410       -2.98352569630000        2.03761309623413
H            2.43977831902112       -6.51086494738019        1.64410487591706
H            3.32745608049329       -6.39655214667570        0.12653045462557
H            3.98965681706449       -5.68401249984659        1.58976124695446

          :  Hamiltonian                  GFN2-xTB          :
         :: total energy             -74.507848592445 Eh    ::
         :: gradient norm              0.000368632933 Eh/a0 ::
         :: HOMO-LUMO gap              2.160312206605 eV    ::
         :: SCC energy               -75.639676384076 Eh    ::
         :: -> dispersion             -0.066850008261 Eh    ::
         :: repulsion energy           1.131827791631 Eh    ::

    * Orbital Energies and Occupations

         #    Occupation            Energy/Eh            Energy/eV
      -------------------------------------------------------------
         1        2.0000           -0.8879077             -24.1612
       ...           ...                  ...                  ...
        57        2.0000           -0.5482894             -14.9197
        58        2.0000           -0.5471997             -14.8901
        59        2.0000           -0.5354425             -14.5701
        60        2.0000           -0.5348472             -14.5539
        61        2.0000           -0.5322350             -14.4829
        62        2.0000           -0.5310336             -14.4502
        63        2.0000           -0.5295872             -14.4108
        64        2.0000           -0.5242226             -14.2648
        65        2.0000           -0.5192354             -14.1291
        66        2.0000           -0.5179844             -14.0951
        67        2.0000           -0.5128949             -13.9566
        68        2.0000           -0.5113546             -13.9147
        69        2.0000           -0.4789534             -13.0330 (HOMO)
        70                         -0.3995634             -10.8727 (LUMO)
        71                         -0.3942488             -10.7281
        72                         -0.3641650              -9.9094
        73                         -0.3281872              -8.9304
        74                         -0.2746127              -7.4726
        75                         -0.1929850              -5.2514
        76                         -0.1358405              -3.6964
        77                         -0.0832819              -2.2662
        78                         -0.0693967              -1.8884
        79                         -0.0657631              -1.7895
        80                         -0.0617787              -1.6811
       ...                                ...                  ...
       135                          0.6030520              16.4099
      -------------------------------------------------------------
                  HL-Gap            0.0793900 Eh            2.1603 eV

     #   Z          covCN         q      C6AA      α(0)
     1   6 C        3.692    -0.083    22.281     6.754
     2   7 N        2.871     0.066    20.081     6.656
     3   6 C        3.062    -0.009    28.187     8.706
     4   6 C        3.091    -0.002    27.962     8.667
     5   7 N        2.875     0.054    20.297     6.691
     6   6 C        3.098     0.050    26.762     8.478
     7   6 C        3.851     0.058    19.571     6.292
     8   6 C        2.916    -0.058    29.434     8.897
     9   6 C        2.955    -0.007    28.196     8.710
    10   6 C        2.837     0.239    23.016     7.862
    11   8 O        0.857    -0.336    20.435     6.061
    12   6 C        2.955    -0.007    28.194     8.709
    13   6 C        2.916    -0.058    29.437     8.897
    14   6 C        3.903     0.036    19.917     6.344
    15   6 C        3.762    -0.113    22.700     6.792
    16   6 C        3.760    -0.116    22.761     6.801
    17   6 C        3.762    -0.112    22.680     6.789
    18   6 C        3.903     0.036    19.916     6.344
    19   6 C        3.760    -0.116    22.762     6.801
    20   6 C        3.762    -0.113    22.699     6.792
    21   6 C        3.762    -0.112    22.680     6.789
    22   6 C        3.897     0.026    20.083     6.370
    23   6 C        3.759    -0.121    22.860     6.816
    24   6 C        3.759    -0.121    22.860     6.816
    25   6 C        3.766    -0.117    22.777     6.802
    26   1 H        0.924     0.104     1.751     2.069
    27   1 H        0.924     0.104     1.746     2.066
    28   1 H        0.925     0.096     1.818     2.109
    29   1 H        0.926     0.104     1.745     2.065
    30   1 H        0.926     0.102     1.766     2.078
    31   1 H        0.926     0.115     1.656     2.012
    32   1 H        0.926     0.053     2.278     2.360
    33   1 H        0.926     0.054     2.274     2.358
    34   1 H        0.925     0.033     2.550     2.497
    35   1 H        0.925     0.055     2.259     2.350
    36   1 H        0.925     0.069     2.098     2.265
    37   1 H        0.925     0.031     2.571     2.508
    38   1 H        0.925     0.057     2.230     2.335
    39   1 H        0.925     0.037     2.485     2.465
    40   1 H        0.925     0.029     2.596     2.520
    41   1 H        0.925     0.058     2.220     2.330
    42   1 H        0.925     0.053     2.280     2.361
    43   1 H        0.925     0.037     2.484     2.465
    44   1 H        0.925     0.057     2.231     2.336
    45   1 H        0.925     0.031     2.568     2.506
    46   1 H        0.925     0.069     2.099     2.266
    47   1 H        0.925     0.055     2.260     2.351
    48   1 H        0.925     0.033     2.551     2.497
    49   1 H        0.925     0.058     2.222     2.331
    50   1 H        0.925     0.030     2.592     2.518
    51   1 H        0.925     0.053     2.280     2.361
    52   1 H        0.925     0.028     2.621     2.532
    53   1 H        0.925     0.062     2.181     2.310
    54   1 H        0.925     0.056     2.243     2.342
    55   1 H        0.925     0.055     2.260     2.351
    56   1 H        0.925     0.062     2.171     2.304
    57   1 H        0.925     0.028     2.618     2.530
    58   1 H        0.925     0.049     2.326     2.385
    59   1 H        0.925     0.049     2.331     2.387
    60   1 H        0.925     0.064     2.151     2.293

Wiberg/Mayer (AO) data.
largest (>0.10) Wiberg bond orders for each atom

     #   Z sym  total        # sym  WBO       # sym  WBO       # sym  WBO
 ---------------------------------------------------------------------------
     1   6 C    3.936 --     2 N    0.991    28 H    0.976    27 H    0.965
                            26 H    0.962
     2   7 N    3.708 --     6 C    1.348     3 C    1.221     1 C    0.991
     3   6 C    3.949 --     4 C    1.600     2 N    1.221    29 H    0.962
     4   6 C    3.952 --     3 C    1.600     5 N    1.226    30 H    0.961
     5   7 N    3.707 --     6 C    1.374     4 C    1.226     7 C    0.909
     6   6 C    3.943 --     5 N    1.374     2 N    1.348    31 H    0.944
     7   6 C    3.922 --    13 C    0.983     8 C    0.982    22 C    0.915
                             5 N    0.909
     8   6 C    3.980 --     9 C    1.820     7 C    0.982    32 H    0.957
     9   6 C    3.976 --     8 C    1.820    10 C    0.999    18 C    0.982
    10   6 C    3.929 --    11 O    1.820    12 C    0.999     9 C    0.999
    11   8 O    2.095 --    10 C    1.820
    12   6 C    3.977 --    13 C    1.820    10 C    0.999    14 C    0.983
    13   6 C    3.980 --    12 C    1.820     7 C    0.983    33 H    0.957
    14   6 C    3.985 --    16 C    0.997    17 C    0.985    12 C    0.983
                            15 C    0.974
    15   6 C    3.989 --    34 H    0.986    35 H    0.980    36 H    0.980
                            14 C    0.974
    16   6 C    3.994 --    14 C    0.997    37 H    0.985    39 H    0.983
                            38 H    0.982
    17   6 C    3.991 --    40 H    0.987    14 C    0.985    42 H    0.982
                            41 H    0.982
    18   6 C    3.985 --    19 C    0.997    21 C    0.985     9 C    0.982
                            20 C    0.974
    19   6 C    3.994 --    18 C    0.997    45 H    0.985    43 H    0.983
                            44 H    0.982
    20   6 C    3.990 --    48 H    0.986    47 H    0.980    46 H    0.980
                            18 C    0.974
    21   6 C    3.991 --    50 H    0.987    18 C    0.985    51 H    0.982
                            49 H    0.982
    22   6 C    3.979 --    24 C    0.997    23 C    0.997    25 C    0.996
                             7 C    0.915
    23   6 C    3.990 --    22 C    0.997    54 H    0.981    53 H    0.981
                            52 H    0.979
    24   6 C    3.990 --    22 C    0.997    55 H    0.981    56 H    0.980
                            57 H    0.979
    25   6 C    3.989 --    22 C    0.996    58 H    0.981    59 H    0.981
                            60 H    0.980
    26   1 H    0.988 --     1 C    0.962
    27   1 H    0.988 --     1 C    0.965
    28   1 H    0.990 --     1 C    0.976
    29   1 H    0.988 --     3 C    0.962
    30   1 H    0.989 --     4 C    0.961
    31   1 H    0.987 --     6 C    0.944
    32   1 H    0.997 --     8 C    0.957
    33   1 H    0.997 --    13 C    0.957
    34   1 H    0.999 --    15 C    0.986
    35   1 H    0.996 --    15 C    0.980
    36   1 H    0.995 --    15 C    0.980
    37   1 H    0.999 --    16 C    0.985
    38   1 H    0.996 --    16 C    0.982
    39   1 H    0.999 --    16 C    0.983
    40   1 H    0.999 --    17 C    0.987
    41   1 H    0.997 --    17 C    0.982
    42   1 H    0.996 --    17 C    0.982
    43   1 H    0.999 --    19 C    0.983
    44   1 H    0.996 --    19 C    0.982
    45   1 H    0.999 --    19 C    0.985
    46   1 H    0.995 --    20 C    0.980
    47   1 H    0.996 --    20 C    0.980
    48   1 H    0.999 --    20 C    0.986
    49   1 H    0.997 --    21 C    0.982
    50   1 H    0.999 --    21 C    0.987
    51   1 H    0.996 --    21 C    0.982
    52   1 H    0.999 --    23 C    0.979
    53   1 H    0.995 --    23 C    0.981
    54   1 H    0.997 --    23 C    0.981
    55   1 H    0.997 --    24 C    0.981
    56   1 H    0.994 --    24 C    0.980
    57   1 H    0.999 --    24 C    0.979
    58   1 H    0.998 --    25 C    0.981
    59   1 H    0.998 --    25 C    0.981
    60   1 H    0.995 --    25 C    0.980
 ---------------------------------------------------------------------------

molecular dipole:
                 x           y           z       tot (Debye)
 q only:        0.069      -5.447      -0.964
   full:        0.013      -5.016      -0.947      12.974

           -------------------------------------------------
          | TOTAL ENERGY              -74.507848592445 Eh   |
          | GRADIENT NORM               0.000368632933 Eh/α |
          | HOMO-LUMO GAP               2.160312206605 eV   |
           -------------------------------------------------

 * finished run on 2024/12/20 at 06:57:20.726
