   * xtb version 6.7.1 (edcfbbe) compiled by 'conda@3ef47c1a292c' on 2024-11-25

   ID    Z sym.   atoms
    1    6 C      1-4, 6-8, 10
    2    7 N      5
    3    8 O      9
    4    1 H      11-30

          program call               : xtb C0776.xyz --opt --namespace C0776 --charge +1
          :  Hamiltonian                  GFN2-xTB          :
 * total energy  :   -33.9030364 Eh     change       -0.5302780E-10 Eh
 * total energy  :   -33.9098244 Eh     change       -0.6788035E-02 Eh
 * total energy  :   -33.9116240 Eh     change       -0.1799602E-02 Eh
 * total energy  :   -33.9118624 Eh     change       -0.2383785E-03 Eh
 * total energy  :   -33.9122460 Eh     change       -0.3836159E-03 Eh
 * total energy  :   -33.9124295 Eh     change       -0.1835294E-03 Eh
 * total energy  :   -33.9127004 Eh     change       -0.2708986E-03 Eh
 * total energy  :   -33.9128888 Eh     change       -0.1883505E-03 Eh
 * total energy  :   -33.9130452 Eh     change       -0.1563764E-03 Eh
 * total energy  :   -33.9131896 Eh     change       -0.1444593E-03 Eh
 * total energy  :   -33.9142428 Eh     change       -0.3118086E-04 Eh
 * total energy  :   -33.9142624 Eh     change       -0.1959905E-04 Eh
 * total energy  :   -33.9142835 Eh     change       -0.2113371E-04 Eh
 * total energy  :   -33.9143226 Eh     change       -0.3907811E-04 Eh
 * total energy  :   -33.9143443 Eh     change       -0.2169919E-04 Eh
 * total energy  :   -33.9143557 Eh     change       -0.1140060E-04 Eh
 * total energy  :   -33.9143612 Eh     change       -0.5559832E-05 Eh
 * total energy  :   -33.9143698 Eh     change       -0.8572501E-05 Eh
 * total energy  :   -33.9143735 Eh     change       -0.3704842E-05 Eh
   *** GEOMETRY OPTIMIZATION CONVERGED AFTER 44 ITERATIONS ***

 final structure:
================
30
 xtb: 6.7.1 (edcfbbe)
C            1.84544617952066       -0.24170401228815       -0.28314303257579
C            0.58951897470405       -1.01347686940394       -0.67142665903665
C            0.47480530769977       -2.36872913253312        0.04879984006394
C            0.16277937196006       -2.22263886604526        1.56487992701915
N           -1.25759717770724       -2.34058951761041        2.00631391479124
C           -1.68511725478407       -3.75380735125387        1.99132036129225
C           -1.34821274233038       -1.84075727268889        3.39264459393840
C           -2.16431736377385       -1.54914385294592        1.15643464790753
O           -0.48285605400337       -3.21911166366920       -0.55960970287884
C           -0.02114260179027       -3.93644155598968       -1.68929842321698
H            1.83568684966108        0.06395835179969        0.76062072317921
H            1.92333643514974        0.65597301079546       -0.88929054085509
H            2.73514666931874       -0.84228960007255       -0.45396242125729
H           -0.29518237254729       -0.40304727848687       -0.49360648045712
H            0.62913374217616       -1.21531274405814       -1.74264982023659
H            1.46323568447282       -2.85149539157611       -0.01181984112751
H            0.72247734444303       -2.98133128504903        2.11473863802123
H            0.53162630961524       -1.24284968285962        1.87207042948912
H           -1.07283956776029       -4.33846721714090        2.67514424285468
H           -2.72565797907366       -3.83049020572938        2.29984029061276
H           -1.57763376185322       -4.15025425773752        0.98431027326102
H           -1.10979617263395       -0.77919271876058        3.43326379298899
H           -2.35855673239287       -1.98307281531233        3.77244722477139
H           -0.65599478777207       -2.37942162278061        4.03763486789684
H           -1.87418249544358       -0.50062140000924        1.17512024651170
H           -2.12414060241784       -1.92471387877758        0.13611969741648
H           -3.18435900717679       -1.63411639606868        1.52687338981764
H           -0.85233634911523       -4.56291210679408       -2.00454843532516
H            0.25628206178425       -3.27053604757217       -2.50888399848525
H            0.83546809207134       -4.56475661937993       -1.42856774638216

          :  Hamiltonian                  GFN2-xTB          :
         :: total energy             -33.914373505479 Eh    ::
         :: gradient norm              0.000366097987 Eh/a0 ::
         :: HOMO-LUMO gap              8.245324634307 eV    ::
         :: SCC energy               -34.341389348580 Eh    ::
         :: -> dispersion             -0.020921967110 Eh    ::
         :: repulsion energy           0.427015843101 Eh    ::

    * Orbital Energies and Occupations

         #    Occupation            Energy/Eh            Energy/eV
      -------------------------------------------------------------
         1        2.0000           -0.8633370             -23.4926
       ...           ...                  ...                  ...
        19        2.0000           -0.6498444             -17.6832
        20        2.0000           -0.6446481             -17.5418
        21        2.0000           -0.6376699             -17.3519
        22        2.0000           -0.6359157             -17.3041
        23        2.0000           -0.6325667             -17.2130
        24        2.0000           -0.6222068             -16.9311
        25        2.0000           -0.6124107             -16.6645
        26        2.0000           -0.5964147             -16.2293
        27        2.0000           -0.5936797             -16.1548
        28        2.0000           -0.5765714             -15.6893
        29        2.0000           -0.5718887             -15.5619
        30        2.0000           -0.5587392             -15.2041
        31        2.0000           -0.5324427             -14.4885 (HOMO)
        32                         -0.2294326              -6.2432 (LUMO)
        33                         -0.1626221              -4.4252
        34                         -0.1567611              -4.2657
        35                         -0.1388921              -3.7794
        36                         -0.1265580              -3.4438
        37                         -0.0644645              -1.7542
        38                         -0.0536197              -1.4591
        39                         -0.0447556              -1.2179
        40                         -0.0252789              -0.6879
        41                         -0.0122007              -0.3320
        42                         -0.0034398              -0.0936
       ...                                ...                  ...
        60                          0.1822758               4.9600
      -------------------------------------------------------------
                  HL-Gap            0.3030101 Eh            8.2453 eV

     #   Z          covCN         q      C6AA      α(0)
     1   6 C        3.751    -0.118    22.818     6.812
     2   6 C        3.799    -0.080    22.022     6.682
     3   6 C        3.738     0.105    18.937     6.210
     4   6 C        3.760    -0.051    21.528     6.614
     5   7 N        3.622     0.154    18.645     6.413
     6   6 C        3.723    -0.105    22.630     6.793
     7   6 C        3.731    -0.099    22.495     6.770
     8   6 C        3.720    -0.102    22.571     6.786
     9   8 O        1.699    -0.330    19.521     5.965
    10   6 C        3.641     0.028    20.458     6.504
    11   1 H        0.925     0.035     2.514     2.480
    12   1 H        0.925     0.065     2.137     2.286
    13   1 H        0.925     0.051     2.306     2.375
    14   1 H        0.925     0.047     2.356     2.400
    15   1 H        0.924     0.064     2.155     2.295
    16   1 H        0.923     0.054     2.273     2.358
    17   1 H        0.924     0.087     1.912     2.162
    18   1 H        0.924     0.095     1.835     2.119
    19   1 H        0.925     0.094     1.844     2.123
    20   1 H        0.925     0.096     1.824     2.112
    21   1 H        0.925     0.128     1.551     1.948
    22   1 H        0.925     0.097     1.810     2.104
    23   1 H        0.925     0.102     1.763     2.076
    24   1 H        0.925     0.098     1.807     2.102
    25   1 H        0.925     0.095     1.833     2.117
    26   1 H        0.925     0.125     1.571     1.960
    27   1 H        0.925     0.096     1.823     2.111
    28   1 H        0.925     0.074     2.039     2.233
    29   1 H        0.924     0.050     2.324     2.384
    30   1 H        0.924     0.046     2.370     2.408

Wiberg/Mayer (AO) data.
largest (>0.10) Wiberg bond orders for each atom

     #   Z sym  total        # sym  WBO       # sym  WBO       # sym  WBO
 ---------------------------------------------------------------------------
     1   6 C    3.991 --     2 C    1.019    13 H    0.985    11 H    0.983
                            12 H    0.983
     2   6 C    3.991 --     1 C    1.019     3 C    0.985    14 H    0.973
                            15 H    0.968
     3   6 C    3.949 --     2 C    0.985     9 O    0.978     4 C    0.977
                            16 H    0.954
     4   6 C    3.935 --     3 C    0.977    17 H    0.970    18 H    0.962
                             5 N    0.938
     5   7 N    3.821 --     7 C    0.958     8 C    0.955     6 C    0.953
                             4 C    0.938
     6   6 C    3.917 --    19 H    0.976    20 H    0.975    21 H    0.960
                             5 N    0.953
     7   6 C    3.929 --    24 H    0.976    22 H    0.975    23 H    0.974
                             5 N    0.958
     8   6 C    3.920 --    27 H    0.975    25 H    0.974    26 H    0.963
                             5 N    0.955
     9   8 O    2.078 --     3 C    0.978    10 C    0.976
    10   6 C    3.935 --    30 H    0.977    28 H    0.977    29 H    0.976
                             9 O    0.976
    11   1 H    0.999 --     1 C    0.983
    12   1 H    0.996 --     1 C    0.983
    13   1 H    0.997 --     1 C    0.985
    14   1 H    0.998 --     2 C    0.973
    15   1 H    0.996 --     2 C    0.968
    16   1 H    0.997 --     3 C    0.954
    17   1 H    0.992 --     4 C    0.970
    18   1 H    0.991 --     4 C    0.962
    19   1 H    0.991 --     6 C    0.976
    20   1 H    0.991 --     6 C    0.975
    21   1 H    0.984 --     6 C    0.960
    22   1 H    0.991 --     7 C    0.975
    23   1 H    0.989 --     7 C    0.974
    24   1 H    0.990 --     7 C    0.976
    25   1 H    0.991 --     8 C    0.974
    26   1 H    0.984 --     8 C    0.963
    27   1 H    0.991 --     8 C    0.975
    28   1 H    0.994 --    10 C    0.977
    29   1 H    0.998 --    10 C    0.976
    30   1 H    0.998 --    10 C    0.977
 ---------------------------------------------------------------------------

molecular dipole:
                 x           y           z       tot (Debye)
 q only:       -1.730      -4.334       3.045
   full:       -1.571      -4.343       3.069      14.094

           -------------------------------------------------
          | TOTAL ENERGY              -33.914373505479 Eh   |
          | GRADIENT NORM               0.000366097987 Eh/α |
          | HOMO-LUMO GAP               8.245324634307 eV   |
           -------------------------------------------------

 * finished run on 2024/12/20 at 06:57:21.620
