   * xtb version 6.7.1 (edcfbbe) compiled by 'conda@3ef47c1a292c' on 2024-11-25

   ID    Z sym.   atoms
    1    6 C      1, 2, 4, 6-9, 11, 12
    2    8 O      3, 5
    3    7 N      10
    4    1 H      13-24

          program call               : xtb C0777.xyz --opt --namespace C0777 --charge +1
          :  Hamiltonian                  GFN2-xTB          :
 * total energy  :   -36.0375526 Eh     change       -0.6791936E-09 Eh
 * total energy  :   -36.0418668 Eh     change       -0.4314273E-02 Eh
 * total energy  :   -36.0425905 Eh     change       -0.7236070E-03 Eh
 * total energy  :   -36.0426937 Eh     change       -0.1032132E-03 Eh
 * total energy  :   -36.0427637 Eh     change       -0.7005599E-04 Eh
 * total energy  :   -36.0428060 Eh     change       -0.4231826E-04 Eh
 * total energy  :   -36.0428562 Eh     change       -0.5017983E-04 Eh
 * total energy  :   -36.0429265 Eh     change       -0.7031715E-04 Eh
 * total energy  :   -36.0430117 Eh     change       -0.8515499E-04 Eh
 * total energy  :   -36.0430958 Eh     change       -0.8414190E-04 Eh
 * total energy  :   -36.0433085 Eh     change       -0.7573185E-05 Eh
 * total energy  :   -36.0433199 Eh     change       -0.1139915E-04 Eh
 * total energy  :   -36.0433409 Eh     change       -0.2102803E-04 Eh
 * total energy  :   -36.0433565 Eh     change       -0.1564377E-04 Eh
 * total energy  :   -36.0433802 Eh     change       -0.2367845E-04 Eh
 * total energy  :   -36.0433921 Eh     change       -0.1189168E-04 Eh
 * total energy  :   -36.0433995 Eh     change       -0.7356097E-05 Eh
 * total energy  :   -36.0434023 Eh     change       -0.2887315E-05 Eh
 * total energy  :   -36.0434038 Eh     change       -0.1469316E-05 Eh
   *** GEOMETRY OPTIMIZATION CONVERGED AFTER 24 ITERATIONS ***

 final structure:
================
24
 xtb: 6.7.1 (edcfbbe)
C            0.39290834619942        0.12655699076717       -0.11393255731738
C            1.12323797463110        1.43531353912896       -0.36456974787536
O            1.53187116833366        1.55341085488024       -1.74279854576720
C            2.63795921555966        0.94311494829329       -2.10058626937716
O            3.37421041285113        0.29800523808394       -1.40387178901450
C            2.93760644089641        1.15164709698219       -3.57143916807568
C            2.13312533040638        1.90172481337380       -4.42581244525230
C            2.51980477520013        2.02622441487738       -5.75348749711829
C            3.67796096779996        1.41136742551623       -6.18741979232832
N            4.43845124156422        0.69524729003600       -5.35085042358343
C            4.08575785917861        0.56063915946639       -4.07087932411747
C            5.63804831841578        0.04082051851636       -5.82237886935293
H           -0.46036610181981        0.03096828464562       -0.78091182078993
H            0.03897649411900        0.10980653981251        0.91209211831254
H            1.06186210454314       -0.71739128992629       -0.26416652284447
H            0.47076213753766        2.29354835450758       -0.19942946962784
H            2.01124190151144        1.50674067912152        0.26958443904442
H            1.23586614089354        2.37018527262157       -4.05206239648696
H            1.92902965554063        2.59853043563489       -6.45115018690318
H            4.00446135490144        1.49003782040740       -7.21423014535235
H            4.71508574643974       -0.02373569174088       -3.41137033690928
H            6.45329659609334        0.19316996879787       -5.11580919887798
H            5.46483697046900       -1.03315413596910       -5.91556869632936
H            5.93221494873487        0.43154147216513       -6.79397135405533

          :  Hamiltonian                  GFN2-xTB          :
         :: total energy             -36.043403819597 Eh    ::
         :: gradient norm              0.000627210116 Eh/a0 ::
         :: HOMO-LUMO gap              2.202532217852 eV    ::
         :: SCC energy               -36.542805681124 Eh    ::
         :: -> dispersion             -0.017531451492 Eh    ::
         :: repulsion energy           0.499401861527 Eh    ::

    * Orbital Energies and Occupations

         #    Occupation            Energy/Eh            Energy/eV
      -------------------------------------------------------------
         1        2.0000           -0.8919446             -24.2710
       ...           ...                  ...                  ...
        20        2.0000           -0.6653489             -18.1051
        21        2.0000           -0.6578026             -17.8997
        22        2.0000           -0.6537079             -17.7883
        23        2.0000           -0.6376533             -17.3514
        24        2.0000           -0.6311845             -17.1754
        25        2.0000           -0.6288581             -17.1121
        26        2.0000           -0.6268838             -17.0584
        27        2.0000           -0.6176428             -16.8069
        28        2.0000           -0.6069306             -16.5154
        29        2.0000           -0.5730524             -15.5935
        30        2.0000           -0.5666637             -15.4197
        31        2.0000           -0.5592059             -15.2168
        32        2.0000           -0.5505440             -14.9811 (HOMO)
        33                         -0.4696024             -12.7785 (LUMO)
        34                         -0.4495614             -12.2332
        35                         -0.3651495              -9.9362
        36                         -0.2901786              -7.8962
        37                         -0.1836388              -4.9971
        38                         -0.1335085              -3.6330
        39                         -0.0833111              -2.2670
        40                         -0.0484754              -1.3191
        41                         -0.0446058              -1.2138
        42                         -0.0202387              -0.5507
        43                         -0.0109787              -0.2987
       ...                                ...                  ...
        60                          0.5610022              15.2656
      -------------------------------------------------------------
                  HL-Gap            0.0809416 Eh            2.2025 eV

     #   Z          covCN         q      C6AA      α(0)
     1   6 C        3.750    -0.121    22.888     6.823
     2   6 C        3.699     0.070    19.570     6.327
     3   8 O        1.703    -0.235    17.897     5.712
     4   6 C        2.722     0.360    20.890     7.482
     5   8 O        0.857    -0.376    21.208     6.174
     6   6 C        2.968     0.007    27.871     8.659
     7   6 C        2.923     0.015    27.686     8.629
     8   6 C        2.916    -0.008    28.229     8.713
     9   6 C        2.892     0.031    27.308     8.568
    10   7 N        2.747     0.130    19.031     6.479
    11   6 C        2.902     0.032    27.276     8.563
    12   6 C        3.711    -0.101    22.566     6.788
    13   1 H        0.925     0.063     2.168     2.302
    14   1 H        0.925     0.074     2.040     2.234
    15   1 H        0.925     0.066     2.129     2.282
    16   1 H        0.924     0.080     1.976     2.198
    17   1 H        0.924     0.075     2.033     2.230
    18   1 H        0.926     0.122     1.599     1.977
    19   1 H        0.926     0.116     1.648     2.007
    20   1 H        0.926     0.117     1.639     2.002
    21   1 H        0.925     0.136     1.492     1.910
    22   1 H        0.925     0.118     1.631     1.997
    23   1 H        0.924     0.120     1.612     1.985
    24   1 H        0.925     0.111     1.687     2.031

Wiberg/Mayer (AO) data.
largest (>0.10) Wiberg bond orders for each atom

     #   Z sym  total        # sym  WBO       # sym  WBO       # sym  WBO
 ---------------------------------------------------------------------------
     1   6 C    3.984 --     2 C    1.012    13 H    0.984    15 H    0.984
                            14 H    0.978
     2   6 C    3.895 --     1 C    1.012    16 H    0.969    17 H    0.967
                             3 O    0.905
     3   8 O    2.364 --     4 C    1.197     2 C    0.905     5 O    0.201
     4   6 C    3.941 --     5 O    1.736     3 O    1.197     6 C    0.946
     5   8 O    2.068 --     4 C    1.736     3 O    0.201
     6   6 C    3.982 --    11 C    1.428     7 C    1.390     4 C    0.946
     7   6 C    3.966 --     8 C    1.426     6 C    1.390    18 H    0.955
     8   6 C    3.979 --     9 C    1.458     7 C    1.426    19 H    0.957
     9   6 C    3.954 --     8 C    1.458    10 N    1.325    20 H    0.953
    10   7 N    3.776 --    11 C    1.338     9 C    1.325    12 C    0.983
    11   6 C    3.949 --     6 C    1.428    10 N    1.338    21 H    0.945
    12   6 C    3.924 --    10 N    0.983    24 H    0.972    22 H    0.962
                            23 H    0.951
    13   1 H    0.996 --     1 C    0.984
    14   1 H    0.994 --     1 C    0.978
    15   1 H    0.996 --     1 C    0.984
    16   1 H    0.993 --     2 C    0.969
    17   1 H    0.994 --     2 C    0.967
    18   1 H    0.985 --     7 C    0.955
    19   1 H    0.986 --     8 C    0.957
    20   1 H    0.986 --     9 C    0.953
    21   1 H    0.982 --    11 C    0.945
    22   1 H    0.986 --    12 C    0.962
    23   1 H    0.986 --    12 C    0.951
    24   1 H    0.987 --    12 C    0.972
 ---------------------------------------------------------------------------

molecular dipole:
                 x           y           z       tot (Debye)
 q only:        6.475       2.041      -9.281
   full:        6.475       2.129      -9.402      29.517

           -------------------------------------------------
          | TOTAL ENERGY              -36.043403819597 Eh   |
          | GRADIENT NORM               0.000627210116 Eh/α |
          | HOMO-LUMO GAP               2.202532217852 eV   |
           -------------------------------------------------

 * finished run on 2024/12/20 at 06:57:22.461
