   * xtb version 6.7.1 (edcfbbe) compiled by 'conda@3ef47c1a292c' on 2024-11-25

   ID    Z sym.   atoms
    1    6 C      1-5, 7-11
    2    7 N      6
    3    1 H      12-27

          program call               : xtb C0779.xyz --opt --namespace C0779 --charge +1
          :  Hamiltonian                  GFN2-xTB          :
 * total energy  :   -32.0873112 Eh     change       -0.2530385E-09 Eh
 * total energy  :   -32.0895860 Eh     change       -0.2274831E-02 Eh
 * total energy  :   -32.0899833 Eh     change       -0.3972616E-03 Eh
 * total energy  :   -32.0900946 Eh     change       -0.1113158E-03 Eh
 * total energy  :   -32.0901832 Eh     change       -0.8856008E-04 Eh
 * total energy  :   -32.0902404 Eh     change       -0.5719127E-04 Eh
 * total energy  :   -32.0902885 Eh     change       -0.4809581E-04 Eh
 * total energy  :   -32.0903345 Eh     change       -0.4604431E-04 Eh
 * total energy  :   -32.0903895 Eh     change       -0.5495441E-04 Eh
 * total energy  :   -32.0904294 Eh     change       -0.3991104E-04 Eh
 * total energy  :   -32.0905347 Eh     change       -0.6037101E-04 Eh
 * total energy  :   -32.0906007 Eh     change       -0.6599850E-04 Eh
 * total energy  :   -32.0906545 Eh     change       -0.5379408E-04 Eh
 * total energy  :   -32.0906960 Eh     change       -0.4150029E-04 Eh
 * total energy  :   -32.0907330 Eh     change       -0.3695809E-04 Eh
 * total energy  :   -32.0907741 Eh     change       -0.4108125E-04 Eh
 * total energy  :   -32.0908166 Eh     change       -0.4254841E-04 Eh
 * total energy  :   -32.0908331 Eh     change       -0.1652806E-04 Eh
 * total energy  :   -32.0908368 Eh     change       -0.3692351E-05 Eh
   *** GEOMETRY OPTIMIZATION CONVERGED AFTER 20 ITERATIONS ***

 final structure:
================
27
 xtb: 6.7.1 (edcfbbe)
C            1.41951452336339        0.09690427124636       -0.14908259461700
C            0.56046515207181        0.89579175369009        0.84114827071722
C            0.73822322485521        2.41366800969811        0.77151821694726
C            0.13733890675267        3.11487183217506       -0.44999481605367
C           -1.35688784999449        2.86977985422629       -0.62477019343996
N            0.93265060394986        0.17541556467467       -1.51700797395325
C           -0.23131444595551       -0.40737723686397       -1.82555302458701
C           -0.75242013543640       -0.33800917598192       -3.10085537719451
C           -0.05021141308945        0.34743352971312       -4.08397302590384
C            1.16159278697888        0.93583603273874       -3.74794992751715
C            1.62562173539441        0.83318774717606       -2.45160474220402
H            1.41864954356142       -0.95497918185186        0.14867695386121
H            2.44629306405992        0.46410860809431       -0.11817252019324
H           -0.49158480780667        0.63957871651855        0.72007919825902
H            0.85933230523672        0.57007904574621        1.83833539558705
H            0.26541367962716        2.83246514784836        1.66121407354432
H            1.80188453916435        2.65304479863017        0.83192997757271
H            0.29430980896820        4.18598877395573       -0.31467135233104
H            0.66663272337023        2.83429880920065       -1.36365376488007
H           -1.88758308268139        3.10512909210292        0.29382618940257
H           -1.74794469438789        3.50769651595608       -1.41262898428796
H           -1.57559628208821        1.83759133952582       -0.89475058748694
H           -0.73886578612595       -0.94275357797217       -1.03643882854943
H           -1.69272463456633       -0.81732944813039       -3.31982245761589
H           -0.43573161923812        0.41612996124256       -5.08902038520797
H            1.74282606228272        1.47218587979246       -4.48067049665557
H            2.56486609173111        1.27695333684958       -2.15438722321242

          :  Hamiltonian                  GFN2-xTB          :
         :: total energy             -32.090836843506 Eh    ::
         :: gradient norm              0.000541365185 Eh/a0 ::
         :: HOMO-LUMO gap              2.356964685821 eV    ::
         :: SCC energy               -32.623172284995 Eh    ::
         :: -> dispersion             -0.021840900082 Eh    ::
         :: repulsion energy           0.532335441489 Eh    ::

    * Orbital Energies and Occupations

         #    Occupation            Energy/Eh            Energy/eV
      -------------------------------------------------------------
         1        2.0000           -0.8820598             -24.0021
       ...           ...                  ...                  ...
        18        2.0000           -0.6423237             -17.4785
        19        2.0000           -0.6372980             -17.3418
        20        2.0000           -0.6315070             -17.1842
        21        2.0000           -0.6248048             -17.0018
        22        2.0000           -0.6246948             -16.9988
        23        2.0000           -0.6220273             -16.9262
        24        2.0000           -0.6166899             -16.7810
        25        2.0000           -0.5999789             -16.3263
        26        2.0000           -0.5924344             -16.1210
        27        2.0000           -0.5792797             -15.7630
        28        2.0000           -0.5581529             -15.1881
        29        2.0000           -0.5539915             -15.0749
        30        2.0000           -0.5474348             -14.8965 (HOMO)
        31                         -0.4608179             -12.5395 (LUMO)
        32                         -0.4304141             -11.7122
        33                         -0.3098156              -8.4305
        34                         -0.1745781              -4.7505
        35                         -0.0788175              -2.1447
        36                         -0.0741223              -2.0170
        37                         -0.0503027              -1.3688
        38                         -0.0386069              -1.0505
        39                         -0.0324767              -0.8837
        40                         -0.0164963              -0.4489
        41                         -0.0131230              -0.3571
       ...                                ...                  ...
        60                          0.4462555              12.1432
      -------------------------------------------------------------
                  HL-Gap            0.0866169 Eh            2.3570 eV

     #   Z          covCN         q      C6AA      α(0)
     1   6 C        3.758    -0.037    21.280     6.577
     2   6 C        3.800    -0.071    21.856     6.656
     3   6 C        3.800    -0.072    21.870     6.658
     4   6 C        3.799    -0.059    21.640     6.624
     5   6 C        3.751    -0.109    22.639     6.785
     6   7 N        2.748     0.119    19.201     6.508
     7   6 C        2.895     0.035    27.212     8.553
     8   6 C        2.916    -0.010    28.258     8.717
     9   6 C        2.925     0.015    27.683     8.628
    10   6 C        2.916    -0.010    28.271     8.719
    11   6 C        2.891     0.036    27.183     8.548
    12   1 H        0.924     0.092     1.862     2.134
    13   1 H        0.924     0.092     1.861     2.133
    14   1 H        0.925     0.063     2.164     2.301
    15   1 H        0.924     0.076     2.018     2.221
    16   1 H        0.924     0.064     2.148     2.292
    17   1 H        0.924     0.046     2.371     2.408
    18   1 H        0.924     0.055     2.256     2.349
    19   1 H        0.924     0.013     2.849     2.639
    20   1 H        0.925     0.055     2.256     2.349
    21   1 H        0.925     0.047     2.362     2.404
    22   1 H        0.925     0.016     2.788     2.611
    23   1 H        0.926     0.109     1.704     2.041
    24   1 H        0.926     0.108     1.715     2.048
    25   1 H        0.926     0.108     1.717     2.049
    26   1 H        0.926     0.108     1.713     2.047
    27   1 H        0.926     0.109     1.704     2.041

Wiberg/Mayer (AO) data.
largest (>0.10) Wiberg bond orders for each atom

     #   Z sym  total        # sym  WBO       # sym  WBO       # sym  WBO
 ---------------------------------------------------------------------------
     1   6 C    3.933 --     2 C    0.979    13 H    0.965     6 N    0.961
                            12 H    0.955
     2   6 C    3.980 --     3 C    1.008     1 C    0.979    14 H    0.968
                            15 H    0.966
     3   6 C    3.991 --     2 C    1.008     4 C    1.007    17 H    0.975
                            16 H    0.971
     4   6 C    3.996 --     5 C    1.020     3 C    1.007    18 H    0.975
                            19 H    0.972
     5   6 C    3.995 --     4 C    1.020    21 H    0.986    20 H    0.985
                            22 H    0.984
     6   7 N    3.772 --    11 C    1.331     7 C    1.327     1 C    0.961
     7   6 C    3.959 --     8 C    1.463     6 N    1.327    23 H    0.954
     8   6 C    3.981 --     7 C    1.463     9 C    1.419    24 H    0.959
     9   6 C    3.969 --    10 C    1.424     8 C    1.419    25 H    0.961
    10   6 C    3.981 --    11 C    1.455     9 C    1.424    26 H    0.959
    11   6 C    3.958 --    10 C    1.455     6 N    1.331    27 H    0.953
    12   1 H    0.992 --     1 C    0.955
    13   1 H    0.991 --     1 C    0.965
    14   1 H    0.996 --     2 C    0.968
    15   1 H    0.993 --     2 C    0.966
    16   1 H    0.995 --     3 C    0.971
    17   1 H    0.998 --     3 C    0.975
    18   1 H    0.997 --     4 C    0.975
    19   1 H    1.000 --     4 C    0.972
    20   1 H    0.997 --     5 C    0.985
    21   1 H    0.998 --     5 C    0.986
    22   1 H    1.000 --     5 C    0.984
    23   1 H    0.988 --     7 C    0.954
    24   1 H    0.988 --     8 C    0.959
    25   1 H    0.988 --     9 C    0.961
    26   1 H    0.988 --    10 C    0.959
    27   1 H    0.988 --    11 C    0.953
 ---------------------------------------------------------------------------

molecular dipole:
                 x           y           z       tot (Debye)
 q only:        1.157       0.807      -3.486
   full:        1.204       0.728      -3.530       9.660

           -------------------------------------------------
          | TOTAL ENERGY              -32.090836843506 Eh   |
          | GRADIENT NORM               0.000541365185 Eh/α |
          | HOMO-LUMO GAP               2.356964685821 eV   |
           -------------------------------------------------

 * finished run on 2024/12/20 at 06:57:24.254
