   * xtb version 6.7.1 (edcfbbe) compiled by 'conda@3ef47c1a292c' on 2024-11-25

   ID    Z sym.   atoms
    1    6 C      1-7, 9-14, 16, 17
    2    7 N      8, 15
    3    8 O      18
    4    1 H      19-35

          program call               : xtb C0778.xyz --opt --namespace C0778 --charge +1
          :  Hamiltonian                  GFN2-xTB          :
 * total energy  :   -50.2914776 Eh     change       -0.1246093E-08 Eh
 * total energy  :   -50.2979336 Eh     change       -0.6455970E-02 Eh
 * total energy  :   -50.2992423 Eh     change       -0.1308748E-02 Eh
 * total energy  :   -50.2995135 Eh     change       -0.2711648E-03 Eh
 * total energy  :   -50.2997816 Eh     change       -0.2681864E-03 Eh
 * total energy  :   -50.2999200 Eh     change       -0.1383561E-03 Eh
 * total energy  :   -50.3001173 Eh     change       -0.1972472E-03 Eh
 * total energy  :   -50.3002661 Eh     change       -0.1488821E-03 Eh
 * total energy  :   -50.3003439 Eh     change       -0.7780988E-04 Eh
 * total energy  :   -50.3003744 Eh     change       -0.3045089E-04 Eh
 * total energy  :   -50.3004031 Eh     change       -0.1909931E-04 Eh
 * total energy  :   -50.3004101 Eh     change       -0.7078362E-05 Eh
 * total energy  :   -50.3004248 Eh     change       -0.1469548E-04 Eh
 * total energy  :   -50.3004302 Eh     change       -0.5333283E-05 Eh
 * total energy  :   -50.3004378 Eh     change       -0.7668655E-05 Eh
 * total energy  :   -50.3004429 Eh     change       -0.5046957E-05 Eh
 * total energy  :   -50.3004486 Eh     change       -0.5705256E-05 Eh
 * total energy  :   -50.3004554 Eh     change       -0.6846360E-05 Eh
 * total energy  :   -50.3004597 Eh     change       -0.4263294E-05 Eh
   *** GEOMETRY OPTIMIZATION CONVERGED AFTER 20 ITERATIONS ***

 final structure:
================
35
 xtb: 6.7.1 (edcfbbe)
C            0.73353623721208        0.17161111383228       -0.02814976394401
C            0.65780166599888       -1.11522266085372        0.76967879187751
C            1.70131360887225       -1.46176971548750        1.61879275777825
C            1.63129796441953       -2.62503450319621        2.36424890502642
C            0.51780732259708       -3.44363618461460        2.26869417487589
C           -0.52443444874377       -3.09922232012362        1.42515150080879
C           -0.45912228695950       -1.93397930703276        0.68034321069292
N            0.51864974848836        1.29996241697397        0.86876757193891
C           -0.71327605421090        1.53336817708697        1.32741042318861
C           -0.97492943016799        2.54132290759970        2.24052300515521
C            0.09702722941151        3.29286740018507        2.72302817293272
C            1.37096963152742        3.02568494098029        2.24292935640101
C            1.55156205681442        2.02732045728686        1.30679601708823
C           -2.36486494848490        2.57084946458603        2.84573467328994
N           -3.00934810412259        3.73861074600071        2.91774799071392
C           -4.28986539845536        3.79250060119890        3.59247621382869
C           -2.57278984457639        4.97738603505853        2.32174851140655
O           -2.78862165546653        1.50779366886015        3.25910565565463
H           -0.03712243037204        0.17894004664299       -0.80140011702880
H            1.71254617125456        0.27450266648933       -0.49979265788204
H            2.57558887923121       -0.83029921875087        1.69284111983498
H            2.44720911962164       -2.89220417311052        3.01727264119441
H            0.46462912871516       -4.35070764463381        2.84989314518862
H           -1.39099089332966       -3.73623153414682        1.34460341679072
H           -1.27148796920464       -1.67723545636182        0.01626012884117
H           -1.51051723321000        0.88904239143892        0.98516359019136
H           -0.05793673403419        4.05656805092726        3.46901856094879
H            2.22300712275028        3.58598748760700        2.59346159391386
H            2.52768757016626        1.80112636658567        0.90454230965306
H           -4.25251182199118        4.52822842667034        4.39616684101077
H           -5.07679388555718        4.07126553225544        2.89107194631584
H           -4.50667936603571        2.81093850860130        4.00726030055494
H           -2.27453683055258        5.69235044929065        3.09274868226326
H           -1.74319802948980        4.81713432655244        1.63719579911624
H           -3.40118609211923        5.41497053559997        1.76160553037948

          :  Hamiltonian                  GFN2-xTB          :
         :: total energy             -50.300459704952 Eh    ::
         :: gradient norm              0.000471374236 Eh/a0 ::
         :: HOMO-LUMO gap              1.700465145581 eV    ::
         :: SCC energy               -51.120186789662 Eh    ::
         :: -> dispersion             -0.033079265803 Eh    ::
         :: repulsion energy           0.819727084710 Eh    ::

    * Orbital Energies and Occupations

         #    Occupation            Energy/Eh            Energy/eV
      -------------------------------------------------------------
         1        2.0000           -0.8718444             -23.7241
       ...           ...                  ...                  ...
        34        2.0000           -0.6030646             -16.4102
        35        2.0000           -0.6012569             -16.3610
        36        2.0000           -0.5946629             -16.1816
        37        2.0000           -0.5928240             -16.1316
        38        2.0000           -0.5917995             -16.1037
        39        2.0000           -0.5911174             -16.0851
        40        2.0000           -0.5771156             -15.7041
        41        2.0000           -0.5402728             -14.7016
        42        2.0000           -0.5357183             -14.5776
        43        2.0000           -0.5261189             -14.3164
        44        2.0000           -0.5211157             -14.1803
        45        2.0000           -0.5202123             -14.1557
        46        2.0000           -0.5133489             -13.9689 (HOMO)
        47                         -0.4508580             -12.2685 (LUMO)
        48                         -0.4248267             -11.5601
        49                         -0.3468452              -9.4381
        50                         -0.3384098              -9.2086
        51                         -0.3365206              -9.1572
        52                         -0.2917578              -7.9391
        53                         -0.2159927              -5.8775
        54                         -0.1538580              -4.1867
        55                         -0.1207502              -3.2858
        56                         -0.0729408              -1.9848
        57                         -0.0645670              -1.7570
       ...                                ...                  ...
        89                          0.5483885              14.9224
      -------------------------------------------------------------
                  HL-Gap            0.0624909 Eh            1.7005 eV

     #   Z          covCN         q      C6AA      α(0)
     1   6 C        3.764    -0.036    21.254     6.571
     2   6 C        2.973    -0.001    28.060     8.689
     3   6 C        2.922    -0.036    28.908     8.817
     4   6 C        2.919    -0.020    28.516     8.757
     5   6 C        2.920    -0.017    28.441     8.745
     6   6 C        2.920    -0.018    28.468     8.750
     7   6 C        2.922    -0.033    28.819     8.803
     8   7 N        2.751     0.110    19.357     6.534
     9   6 C        2.902     0.037    27.172     8.547
    10   6 C        2.967     0.009    27.804     8.649
    11   6 C        2.925     0.003    27.964     8.672
    12   6 C        2.914    -0.014    28.353     8.732
    13   6 C        2.891     0.030    27.337     8.572
    14   6 C        2.772     0.260    22.629     7.791
    15   7 N        2.730    -0.056    22.326     7.018
    16   6 C        3.707    -0.065    21.889     6.687
    17   6 C        3.696    -0.064    21.905     6.695
    18   8 O        0.860    -0.414    21.959     6.283
    19   1 H        0.924     0.093     1.849     2.126
    20   1 H        0.924     0.090     1.880     2.144
    21   1 H        0.926     0.035     2.521     2.483
    22   1 H        0.926     0.058     2.221     2.331
    23   1 H        0.926     0.063     2.162     2.299
    24   1 H        0.926     0.063     2.169     2.303
    25   1 H        0.926     0.044     2.392     2.419
    26   1 H        0.926     0.118     1.626     1.994
    27   1 H        0.926     0.099     1.794     2.095
    28   1 H        0.926     0.105     1.742     2.064
    29   1 H        0.926     0.106     1.734     2.059
    30   1 H        0.924     0.073     2.053     2.241
    31   1 H        0.924     0.071     2.072     2.251
    32   1 H        0.925     0.100     1.781     2.087
    33   1 H        0.924     0.072     2.066     2.248
    34   1 H        0.925     0.054     2.265     2.354
    35   1 H        0.924     0.082     1.956     2.187

Wiberg/Mayer (AO) data.
largest (>0.10) Wiberg bond orders for each atom

     #   Z sym  total        # sym  WBO       # sym  WBO       # sym  WBO
 ---------------------------------------------------------------------------
     1   6 C    3.930 --     2 C    0.967    20 H    0.962    19 H    0.958
                             8 N    0.952
     2   6 C    3.973 --     7 C    1.415     3 C    1.410     1 C    0.967
                             5 C    0.108
     3   6 C    3.992 --     4 C    1.446     2 C    1.410    21 H    0.968
                             6 C    0.111
     4   6 C    3.989 --     3 C    1.446     5 C    1.435    22 H    0.969
                             7 C    0.110
     5   6 C    3.987 --     6 C    1.441     4 C    1.435    23 H    0.968
                             2 C    0.108
     6   6 C    3.987 --     5 C    1.441     7 C    1.438    24 H    0.968
                             3 C    0.111
     7   6 C    3.989 --     6 C    1.438     2 C    1.415    25 H    0.967
                             4 C    0.110
     8   7 N    3.766 --     9 C    1.333    13 C    1.323     1 C    0.952
     9   6 C    3.954 --    10 C    1.424     8 N    1.333    26 H    0.951
    10   6 C    3.970 --     9 C    1.424    11 C    1.380    14 C    0.937
    11   6 C    3.973 --    12 C    1.431    10 C    1.380    27 H    0.961
    12   6 C    3.981 --    13 C    1.453    11 C    1.431    28 H    0.959
    13   6 C    3.955 --    12 C    1.453     8 N    1.323    29 H    0.954
    14   6 C    3.967 --    18 O    1.639    15 N    1.301    10 C    0.937
    15   7 N    3.553 --    14 C    1.301    17 C    1.001    16 C    0.986
                            18 O    0.225
    16   6 C    3.948 --    15 N    0.986    31 H    0.973    32 H    0.972
                            30 H    0.972
    17   6 C    3.963 --    15 N    1.001    34 H    0.977    33 H    0.971
                            35 H    0.971
    18   8 O    2.039 --    14 C    1.639    15 N    0.225
    19   1 H    0.991 --     1 C    0.958
    20   1 H    0.991 --     1 C    0.962
    21   1 H    0.999 --     3 C    0.968
    22   1 H    0.996 --     4 C    0.969
    23   1 H    0.995 --     5 C    0.968
    24   1 H    0.995 --     6 C    0.968
    25   1 H    0.998 --     7 C    0.967
    26   1 H    0.986 --     9 C    0.951
    27   1 H    0.990 --    11 C    0.961
    28   1 H    0.988 --    12 C    0.959
    29   1 H    0.988 --    13 C    0.954
    30   1 H    0.994 --    16 C    0.972
    31   1 H    0.995 --    16 C    0.973
    32   1 H    0.990 --    16 C    0.972
    33   1 H    0.995 --    17 C    0.971
    34   1 H    0.997 --    17 C    0.977
    35   1 H    0.993 --    17 C    0.971
 ---------------------------------------------------------------------------

molecular dipole:
                 x           y           z       tot (Debye)
 q only:        0.028       4.076       2.689
   full:        0.235       4.288       2.545      12.689

           -------------------------------------------------
          | TOTAL ENERGY              -50.300459704952 Eh   |
          | GRADIENT NORM               0.000471374236 Eh/α |
          | HOMO-LUMO GAP               1.700465145581 eV   |
           -------------------------------------------------

 * finished run on 2024/12/20 at 06:57:23.615
