   * xtb version 6.7.1 (edcfbbe) compiled by 'conda@3ef47c1a292c' on 2024-11-25

   ID    Z sym.   atoms
    1    6 C      1, 3, 5, 6
    2    7 N      2, 4
    3    1 H      7-13

          program call               : xtb C0770.xyz --opt --namespace C0770 --charge +1
          :  Hamiltonian                  GFN2-xTB          :
 * total energy  :   -17.5791456 Eh     change       -0.5861267E-10 Eh
 * total energy  :   -17.5812871 Eh     change       -0.2141469E-02 Eh
 * total energy  :   -17.5817961 Eh     change       -0.5090551E-03 Eh
 * total energy  :   -17.5818664 Eh     change       -0.7033712E-04 Eh
 * total energy  :   -17.5818868 Eh     change       -0.2035354E-04 Eh
 * total energy  :   -17.5818878 Eh     change       -0.9778303E-06 Eh
   *** GEOMETRY OPTIMIZATION CONVERGED AFTER 6 ITERATIONS ***

 final structure:
================
13
 xtb: 6.7.1 (edcfbbe)
C            2.16342457708800        0.00943080376546        0.01461455658652
N            0.72584688675362        0.00217401766913        0.00841972358412
C           -0.07244316702439        1.06083115106143        0.00551357133432
N           -1.33790500866831        0.64463821694916        0.00223966331819
C           -1.35123982742739       -0.71584686341763        0.00318028011550
C           -0.05063679105625       -1.11937288748147        0.00725711523355
H            2.53650953182370       -0.48094868366235        0.91471119461863
H            2.54382640366330       -0.53010551893370       -0.85343452124529
H            2.53244689703731        1.03212758085958       -0.01191706526169
H            0.24831978014370        2.08529651880777        0.00557165085895
H           -2.15571313854344        1.24014610523950       -0.00084019406694
H           -2.25414830098476       -1.29191386677571        0.00084921161540
H            0.36454215719490       -2.10693657408117        0.00923481330875

          :  Hamiltonian                  GFN2-xTB          :
         :: total energy             -17.581887779454 Eh    ::
         :: gradient norm              0.000344273216 Eh/a0 ::
         :: HOMO-LUMO gap              4.908506100707 eV    ::
         :: SCC energy               -17.860468677423 Eh    ::
         :: -> dispersion             -0.006815159282 Eh    ::
         :: repulsion energy           0.278580897970 Eh    ::

    * Orbital Energies and Occupations

         #    Occupation            Energy/Eh            Energy/eV
      -------------------------------------------------------------
         1        2.0000           -0.9191780             -25.0121
       ...           ...                  ...                  ...
         4        2.0000           -0.8300007             -22.5855
         5        2.0000           -0.8116845             -22.0871
         6        2.0000           -0.7779802             -21.1699
         7        2.0000           -0.7694987             -20.9391
         8        2.0000           -0.7623557             -20.7448
         9        2.0000           -0.7172886             -19.5184
        10        2.0000           -0.7051509             -19.1881
        11        2.0000           -0.7000782             -19.0501
        12        2.0000           -0.6903928             -18.7865
        13        2.0000           -0.6764795             -18.4079
        14        2.0000           -0.6530169             -17.7695
        15        2.0000           -0.6315795             -17.1862
        16        2.0000           -0.6089974             -16.5717 (HOMO)
        17                         -0.4286132             -11.6632 (LUMO)
        18                         -0.3903927             -10.6231
        19                         -0.1954252              -5.3178
        20                         -0.1404818              -3.8227
        21                         -0.0705342              -1.9193
        22                         -0.0477828              -1.3002
        23                         -0.0268424              -0.7304
        24                         -0.0126708              -0.3448
        25                          0.0231023               0.6286
        26                          0.0385940               1.0502
        27                          0.0585829               1.5941
       ...                                ...                  ...
        31                          0.4469303              12.1616
      -------------------------------------------------------------
                  HL-Gap            0.1803843 Eh            4.9085 eV

     #   Z          covCN         q      C6AA      α(0)
     1   6 C        3.693    -0.094    22.484     6.785
     2   7 N        2.871     0.098    19.546     6.566
     3   6 C        3.074     0.058    26.617     8.459
     4   7 N        2.835    -0.007    21.399     6.870
     5   6 C        3.050     0.010    27.744     8.639
     6   6 C        3.077    -0.005    28.067     8.686
     7   1 H        0.924     0.115     1.652     2.010
     8   1 H        0.924     0.115     1.652     2.010
     9   1 H        0.925     0.106     1.734     2.059
    10   1 H        0.926     0.127     1.560     1.953
    11   1 H        0.860     0.233     0.953     1.529
    12   1 H        0.926     0.122     1.593     1.974
    13   1 H        0.926     0.122     1.600     1.978

Wiberg/Mayer (AO) data.
largest (>0.10) Wiberg bond orders for each atom

     #   Z sym  total        # sym  WBO       # sym  WBO       # sym  WBO
 ---------------------------------------------------------------------------
     1   6 C    3.927 --     2 N    0.990     9 H    0.974     8 H    0.960
                             7 H    0.959
     2   7 N    3.738 --     3 C    1.391     6 C    1.225     1 C    0.990
     3   6 C    3.946 --     2 N    1.391     4 N    1.361    10 H    0.951
     4   7 N    3.671 --     3 C    1.361     5 C    1.240    11 H    0.920
     5   6 C    3.946 --     6 C    1.600     4 N    1.240    12 H    0.959
     6   6 C    3.947 --     5 C    1.600     2 N    1.225    13 H    0.959
     7   1 H    0.987 --     1 C    0.959
     8   1 H    0.987 --     1 C    0.960
     9   1 H    0.988 --     1 C    0.974
    10   1 H    0.984 --     3 C    0.951
    11   1 H    0.946 --     4 N    0.920
    12   1 H    0.985 --     5 C    0.959
    13   1 H    0.985 --     6 C    0.959
 ---------------------------------------------------------------------------

molecular dipole:
                 x           y           z       tot (Debye)
 q only:        0.022       0.352       0.014
   full:       -0.122       0.522       0.014       1.362

           -------------------------------------------------
          | TOTAL ENERGY              -17.581887779454 Eh   |
          | GRADIENT NORM               0.000344273216 Eh/α |
          | HOMO-LUMO GAP               4.908506100707 eV   |
           -------------------------------------------------

 * finished run on 2024/12/20 at 06:57:13.625
