   * xtb version 6.7.1 (edcfbbe) compiled by 'conda@3ef47c1a292c' on 2024-11-25

   ID    Z sym.   atoms
    1    6 C      1, 2, 4-15
    2    7 N      3
    3    1 H      16-47

          program call               : xtb C0771.xyz --opt --namespace C0771 --charge +1
          :  Hamiltonian                  GFN2-xTB          :
 * total energy  :   -48.8207862 Eh     change       -0.1242455E-09 Eh
 * total energy  :   -48.8281215 Eh     change       -0.7335275E-02 Eh
 * total energy  :   -48.8300324 Eh     change       -0.1910919E-02 Eh
 * total energy  :   -48.8301496 Eh     change       -0.1171784E-03 Eh
 * total energy  :   -48.8302390 Eh     change       -0.8941473E-04 Eh
 * total energy  :   -48.8302824 Eh     change       -0.4334389E-04 Eh
 * total energy  :   -48.8303255 Eh     change       -0.4314537E-04 Eh
 * total energy  :   -48.8303571 Eh     change       -0.3156014E-04 Eh
 * total energy  :   -48.8303529 Eh     change        0.4163799E-05 Eh
 * total energy  :   -48.8303750 Eh     change       -0.2206347E-04 Eh
 * total energy  :   -48.8304467 Eh     change       -0.1477867E-04 Eh
 * total energy  :   -48.8304608 Eh     change       -0.1415109E-04 Eh
 * total energy  :   -48.8304733 Eh     change       -0.1242770E-04 Eh
 * total energy  :   -48.8304847 Eh     change       -0.1145676E-04 Eh
 * total energy  :   -48.8304960 Eh     change       -0.1128866E-04 Eh
 * total energy  :   -48.8305068 Eh     change       -0.1078991E-04 Eh
 * total energy  :   -48.8305163 Eh     change       -0.9479768E-05 Eh
 * total energy  :   -48.8305244 Eh     change       -0.8060528E-05 Eh
 * total energy  :   -48.8305277 Eh     change       -0.3384920E-05 Eh
   *** GEOMETRY OPTIMIZATION CONVERGED AFTER 22 ITERATIONS ***

 final structure:
================
47
 xtb: 6.7.1 (edcfbbe)
C            0.30367980401614       -0.59035035822901        0.31397311216838
C           -0.74518557432851       -0.18213320837269        1.33646581756562
N            0.14618447774770       -0.12639754099187       -1.10233306110665
C            0.96204237498998       -1.07242041919412       -1.95087816123859
C            0.41421372601952       -2.48052088376248       -2.14031062951440
C           -1.26651039189613       -0.20040727581619       -1.59769725818180
C           -2.19782928363116        0.97181497685313       -1.32553781823357
C            0.75959649173868        1.22491143214696       -1.34849553332381
C            0.51277135839702        2.38210536074151       -0.37255445176448
C            1.50914395691407        2.52099239632837        0.78601606714120
C            2.97423714304282        2.68781397453577        0.37526705167068
C            3.26575378816343        3.90251695604119       -0.50842969317074
C            2.88090551941843        5.25146589791415        0.10421943415830
C            3.53753352945458        5.55895013681281        1.45137541312601
C            5.05903746038651        5.60984348106984        1.38297735052236
H            0.31448817089771       -1.68070912028670        0.29225205630177
H            1.28846085587667       -0.25478074575506        0.64148769316483
H           -0.80854259144267        0.88945444317125        1.48388687590418
H           -1.72776499643297       -0.57430929265065        1.09266710457934
H           -0.45013475355525       -0.62230421489846        2.28697704466505
H            1.07299030005671       -0.61419055199130       -2.93595269356396
H            1.95165253848565       -1.13794184462324       -1.49340048881618
H           -0.49499256740871       -2.50023338117816       -2.73306880037223
H            1.16655662057094       -3.04948385068546       -2.68149102246016
H            0.23191600173505       -3.00117625837819       -1.20442215489835
H           -1.20830624799667       -0.31381651119944       -2.68245311403593
H           -1.70190780293377       -1.11006174880830       -1.18272449431780
H           -1.85325474493164        1.88773009487582       -1.79492244395463
H           -3.15814237133920        0.72129627560584       -1.77194596372727
H           -2.36913767294675        1.15008658931386       -0.27058361430164
H            1.83987288937028        1.07892807147767       -1.40202557123356
H            0.42099246372992        1.52303592207850       -2.34260747872263
H            0.58622381953424        3.29259965328137       -0.96975455651224
H           -0.49553970474827        2.36051041715331        0.02969200709796
H            1.21066007919468        3.40368942240047        1.35241128066298
H            1.43754019567960        1.67523483304618        1.47095018251529
H            3.56321013739884        2.76944498095909        1.28906029382691
H            3.33105094323930        1.79122493873372       -0.14118656216961
H            4.33424819046257        3.90763837386914       -0.72666023547385
H            2.74912316514351        3.79722233462629       -1.46611356846777
H            3.16658635049695        6.03115361836800       -0.60503686974938
H            1.79599857537945        5.30758118088767        0.22181823355578
H            3.16907767157118        6.53015159466836        1.78814802233226
H            3.23035557301455        4.82289831330542        2.19710173902538
H            5.38194767581509        6.31318421104148        0.61915675572163
H            5.46516205935260        5.93391007161922        2.33773994918578
H            5.47970479630122        4.63390725389700        1.15350275440788

          :  Hamiltonian                  GFN2-xTB          :
         :: total energy             -48.830527737635 Eh    ::
         :: gradient norm              0.000178224420 Eh/a0 ::
         :: HOMO-LUMO gap              6.971085835455 eV    ::
         :: SCC energy               -49.539990067448 Eh    ::
         :: -> dispersion             -0.038131579165 Eh    ::
         :: repulsion energy           0.709462329813 Eh    ::

    * Orbital Energies and Occupations

         #    Occupation            Energy/Eh            Energy/eV
      -------------------------------------------------------------
         1        2.0000           -0.8490602             -23.1041
       ...           ...                  ...                  ...
        34        2.0000           -0.5882057             -16.0059
        35        2.0000           -0.5861465             -15.9499
        36        2.0000           -0.5820004             -15.8370
        37        2.0000           -0.5745789             -15.6351
        38        2.0000           -0.5662708             -15.4090
        39        2.0000           -0.5565328             -15.1440
        40        2.0000           -0.5508033             -14.9881
        41        2.0000           -0.5371705             -14.6172
        42        2.0000           -0.5309906             -14.4490
        43        2.0000           -0.5256399             -14.3034
        44        2.0000           -0.5052739             -13.7492
        45        2.0000           -0.5012016             -13.6384
        46        2.0000           -0.4968032             -13.5187 (HOMO)
        47                         -0.2406205              -6.5476 (LUMO)
        48                         -0.1770345              -4.8174
        49                         -0.1668637              -4.5406
        50                         -0.1575601              -4.2874
        51                         -0.0682867              -1.8582
        52                         -0.0526977              -1.4340
        53                         -0.0508735              -1.3843
        54                         -0.0382565              -1.0410
        55                         -0.0308678              -0.8400
        56                         -0.0270835              -0.7370
        57                         -0.0170764              -0.4647
       ...                                ...                  ...
        92                          0.2280738               6.2062
      -------------------------------------------------------------
                  HL-Gap            0.2561827 Eh            6.9711 eV

     #   Z          covCN         q      C6AA      α(0)
     1   6 C        3.751    -0.028    21.128     6.555
     2   6 C        3.751    -0.125    22.954     6.833
     3   7 N        3.614     0.098    19.550     6.567
     4   6 C        3.775    -0.032    21.173     6.556
     5   6 C        3.750    -0.129    23.047     6.847
     6   6 C        3.749    -0.027    21.114     6.553
     7   6 C        3.751    -0.127    23.000     6.839
     8   6 C        3.756    -0.034    21.240     6.571
     9   6 C        3.799    -0.073    21.904     6.664
    10   6 C        3.799    -0.070    21.846     6.655
    11   6 C        3.800    -0.061    21.683     6.630
    12   6 C        3.800    -0.062    21.686     6.630
    13   6 C        3.800    -0.061    21.665     6.627
    14   6 C        3.799    -0.055    21.555     6.610
    15   6 C        3.751    -0.105    22.573     6.776
    16   1 H        0.924     0.081     1.973     2.196
    17   1 H        0.924     0.084     1.935     2.175
    18   1 H        0.925     0.069     2.092     2.262
    19   1 H        0.925     0.065     2.146     2.291
    20   1 H        0.925     0.077     2.011     2.218
    21   1 H        0.924     0.081     1.965     2.192
    22   1 H        0.924     0.080     1.977     2.199
    23   1 H        0.925     0.068     2.106     2.270
    24   1 H        0.925     0.086     1.914     2.164
    25   1 H        0.925     0.064     2.150     2.293
    26   1 H        0.924     0.079     1.990     2.206
    27   1 H        0.924     0.085     1.925     2.170
    28   1 H        0.925     0.067     2.120     2.277
    29   1 H        0.925     0.078     1.995     2.209
    30   1 H        0.925     0.069     2.098     2.265
    31   1 H        0.924     0.083     1.945     2.181
    32   1 H        0.924     0.073     2.055     2.242
    33   1 H        0.924     0.072     2.069     2.249
    34   1 H        0.925     0.059     2.209     2.324
    35   1 H        0.924     0.059     2.209     2.324
    36   1 H        0.924     0.034     2.531     2.488
    37   1 H        0.924     0.052     2.291     2.367
    38   1 H        0.924     0.015     2.807     2.620
    39   1 H        0.924     0.046     2.376     2.411
    40   1 H        0.924     0.022     2.705     2.572
    41   1 H        0.924     0.040     2.455     2.450
    42   1 H        0.924     0.025     2.656     2.549
    43   1 H        0.924     0.036     2.505     2.475
    44   1 H        0.924     0.028     2.610     2.526
    45   1 H        0.925     0.040     2.455     2.450
    46   1 H        0.925     0.040     2.455     2.450
    47   1 H        0.925     0.033     2.544     2.494

Wiberg/Mayer (AO) data.
largest (>0.10) Wiberg bond orders for each atom

     #   Z sym  total        # sym  WBO       # sym  WBO       # sym  WBO
 ---------------------------------------------------------------------------
     1   6 C    3.935 --     2 C    1.022    17 H    0.963    16 H    0.961
                             3 N    0.930
     2   6 C    3.983 --     1 C    1.022    19 H    0.980    18 H    0.975
                            20 H    0.973
     3   7 N    3.795 --     6 C    0.931     1 C    0.930     4 C    0.927
                             8 C    0.926
     4   6 C    3.938 --     5 C    1.023    22 H    0.969    21 H    0.968
                             3 N    0.927
     5   6 C    3.982 --     4 C    1.023    23 H    0.981    25 H    0.975
                            24 H    0.971
     6   6 C    3.937 --     7 C    1.022    26 H    0.968    27 H    0.967
                             3 N    0.931
     7   6 C    3.982 --     6 C    1.022    28 H    0.981    30 H    0.977
                            29 H    0.973
     8   6 C    3.929 --     9 C    1.002    32 H    0.969    31 H    0.959
                             3 N    0.926
     9   6 C    3.983 --    10 C    1.005     8 C    1.002    34 H    0.963
                            33 H    0.963
    10   6 C    3.993 --    11 C    1.008     9 C    1.005    36 H    0.971
                            35 H    0.970
    11   6 C    3.995 --    10 C    1.008    12 C    1.007    37 H    0.971
                            38 H    0.971
    12   6 C    3.996 --    11 C    1.007    13 C    1.007    40 H    0.976
                            39 H    0.974
    13   6 C    3.997 --    14 C    1.008    12 C    1.007    41 H    0.976
                            42 H    0.976
    14   6 C    3.997 --    15 C    1.020    13 C    1.008    43 H    0.978
                            44 H    0.976
    15   6 C    3.996 --    14 C    1.020    45 H    0.987    46 H    0.987
                            47 H    0.986
    16   1 H    0.993 --     1 C    0.961
    17   1 H    0.993 --     1 C    0.963
    18   1 H    0.995 --     2 C    0.975
    19   1 H    0.996 --     2 C    0.980
    20   1 H    0.994 --     2 C    0.973
    21   1 H    0.993 --     4 C    0.968
    22   1 H    0.993 --     4 C    0.969
    23   1 H    0.995 --     5 C    0.981
    24   1 H    0.992 --     5 C    0.971
    25   1 H    0.996 --     5 C    0.975
    26   1 H    0.994 --     6 C    0.968
    27   1 H    0.993 --     6 C    0.967
    28   1 H    0.995 --     7 C    0.981
    29   1 H    0.993 --     7 C    0.973
    30   1 H    0.995 --     7 C    0.977
    31   1 H    0.993 --     8 C    0.959
    32   1 H    0.995 --     8 C    0.969
    33   1 H    0.995 --     9 C    0.963
    34   1 H    0.996 --     9 C    0.963
    35   1 H    0.996 --    10 C    0.970
    36   1 H    0.999 --    10 C    0.971
    37   1 H    0.997 --    11 C    0.971
    38   1 H    1.000 --    11 C    0.971
    39   1 H    0.998 --    12 C    0.974
    40   1 H    1.000 --    12 C    0.976
    41   1 H    0.998 --    13 C    0.976
    42   1 H    0.999 --    13 C    0.976
    43   1 H    0.999 --    14 C    0.978
    44   1 H    0.999 --    14 C    0.976
    45   1 H    0.998 --    15 C    0.987
    46   1 H    0.998 --    15 C    0.987
    47   1 H    0.999 --    15 C    0.986
 ---------------------------------------------------------------------------

molecular dipole:
                 x           y           z       tot (Debye)
 q only:        0.289       0.179      -1.732
   full:        0.347       0.091      -1.840       4.765

           -------------------------------------------------
          | TOTAL ENERGY              -48.830527737635 Eh   |
          | GRADIENT NORM               0.000178224420 Eh/α |
          | HOMO-LUMO GAP               6.971085835455 eV   |
           -------------------------------------------------

 * finished run on 2024/12/20 at 06:57:15.023
