   * xtb version 6.7.1 (edcfbbe) compiled by 'conda@3ef47c1a292c' on 2024-11-25

   ID    Z sym.   atoms
    1    6 C      1-12, 14-23
    2    7 N      13
    3    1 H      24-63

          program call               : xtb C0786.xyz --opt --namespace C0786 --charge +1
          :  Hamiltonian                  GFN2-xTB          :
 * total energy  :   -70.0272942 Eh     change       -0.5460237E-09 Eh
 * total energy  :   -70.0352127 Eh     change       -0.7918506E-02 Eh
 * total energy  :   -70.0374261 Eh     change       -0.2213423E-02 Eh
 * total energy  :   -70.0376742 Eh     change       -0.2480626E-03 Eh
 * total energy  :   -70.0379064 Eh     change       -0.2321474E-03 Eh
 * total energy  :   -70.0380836 Eh     change       -0.1772870E-03 Eh
 * total energy  :   -70.0383738 Eh     change       -0.2901075E-03 Eh
 * total energy  :   -70.0387618 Eh     change       -0.3880582E-03 Eh
 * total energy  :   -70.0391916 Eh     change       -0.4297493E-03 Eh
 * total energy  :   -70.0396720 Eh     change       -0.4804796E-03 Eh
 * total energy  :   -70.0489993 Eh     change       -0.1117290E-04 Eh
 * total energy  :   -70.0490079 Eh     change       -0.8609960E-05 Eh
 * total energy  :   -70.0490136 Eh     change       -0.5715479E-05 Eh
 * total energy  :   -70.0490187 Eh     change       -0.5047903E-05 Eh
 * total energy  :   -70.0490240 Eh     change       -0.5332159E-05 Eh
 * total energy  :   -70.0490299 Eh     change       -0.5849219E-05 Eh
 * total energy  :   -70.0490362 Eh     change       -0.6378003E-05 Eh
 * total energy  :   -70.0490419 Eh     change       -0.5617180E-05 Eh
 * total energy  :   -70.0490467 Eh     change       -0.4847217E-05 Eh
   *** GEOMETRY OPTIMIZATION CONVERGED AFTER 64 ITERATIONS ***

 final structure:
================
63
 xtb: 6.7.1 (edcfbbe)
C            1.91710281855168       -0.57593876795924       -0.52781406599669
C            1.52130863944464       -2.04083299654197       -0.38644079884882
C            1.61972243712595       -2.55669117981581        1.05004047125841
C            0.70428055843753       -1.85134753262620        2.05283382089400
C           -0.78980331521338       -1.93791671993171        1.73544244758779
C           -1.35128960822028       -3.35875764184518        1.65221254249929
C           -1.16427072516758       -4.20234697001323        2.91509495734799
C           -1.76031678545819       -3.59750591372828        4.18803861205794
C           -3.26275086448444       -3.31715025115790        4.12015914021793
C           -4.13894364832881       -4.54307598285449        3.85190199436810
C           -3.95972502119539       -5.70789058033657        4.83554693868728
C           -4.08502447137492       -5.37208178516316        6.32571907912636
N           -5.44243761134137       -5.46642929026862        6.94085754416152
C           -5.91107594078866       -6.89660297605959        6.99247575869429
C           -5.05604903773519       -7.81794920737521        7.82352051523522
C           -3.98154877583680       -8.49275083106887        7.25113930933189
C           -3.21110624176518       -9.35659546855873        8.00979732738242
C           -3.51049448353096       -9.56450903415388        9.34560390847128
C           -4.59172739900984       -8.91547236988032        9.91778504284018
C           -5.36096195181407       -8.04889936833884        9.16164947211969
C           -5.37675209387962       -4.94839310405367        8.34347293653700
C           -5.11888959113727       -3.45719413070546        8.49879549361451
C           -6.43201287432932       -4.69453539241177        6.17164620901485
H            1.21599260706807        0.07372717104277       -0.01006995674472
H            1.92924684828387       -0.28958922624667       -1.57673372758147
H            2.91029864915118       -0.40910572120830       -0.11675385285044
H            0.50753998517472       -2.18274125549484       -0.76550381649514
H            2.18615987773883       -2.64583673881007       -1.00756278310383
H            1.40528623820965       -3.62766986710434        1.05271847370997
H            2.65027308827662       -2.43356676883487        1.39235744877144
H            0.89106008689418       -2.27460630667223        3.04264169518545
H            0.97879162209640       -0.79633545298984        2.10330912234606
H           -1.33498632426355       -1.37416089573891        2.49654312833260
H           -0.98079743413356       -1.44433826488686        0.78122368516852
H           -2.41482199193332       -3.29420015955230        1.40940204535636
H           -0.87067102042364       -3.88320959754372        0.82502208797892
H           -1.60000100898919       -5.18864915138219        2.73660433920688
H           -0.09754388320531       -4.35452783396091        3.08543204780468
H           -1.54470017000555       -4.26828094460453        5.02433092149578
H           -1.25385818784202       -2.65519145880044        4.40052498409180
H           -3.56887832044794       -2.82658957782388        5.04949534839114
H           -3.45057841597916       -2.59976808434555        3.32120454708104
H           -5.17949184823459       -4.21831723600153        3.81134973407907
H           -3.89645438179168       -4.92899728844991        2.86129636004493
H           -4.64200047406587       -6.50991179066409        4.55122725984132
H           -2.95068080218485       -6.09845316662054        4.69600801128710
H           -3.44591536222830       -6.04439001499849        6.90164123515817
H           -3.72562131569246       -4.35559582277414        6.47497683930496
H           -6.92862902545952       -6.88692337195659        7.38925246362131
H           -5.94989358664872       -7.26764345442233        5.96738992036592
H           -3.75541193195822       -8.36309778089798        6.20285804130992
H           -2.38271744814520       -9.87472870960545        7.55290202346372
H           -2.91279647783802      -10.24181744339832        9.93452097710293
H           -4.84343297063925       -9.08926656211646       10.95197639929594
H           -6.21506300261253       -7.56667119234675        9.61441361396682
H           -6.33228813582939       -5.18355139347066        8.81671179923466
H           -4.59465335968144       -5.50801917276283        8.86024356516304
H           -5.91096053500513       -2.85206535252189        8.06789842134510
H           -5.08844584171542       -3.24070257469799        9.56382626381699
H           -4.16500984130150       -3.14634358409906        8.08313222410504
H           -6.05474767604544       -3.69491220220088        5.97247568235016
H           -6.63857909931003       -5.18792754386820        5.22515881328302
H           -7.36271314192507       -4.61985671254519        6.73212595706526

          :  Hamiltonian                  GFN2-xTB          :
         :: total energy             -70.049046709761 Eh    ::
         :: gradient norm              0.000257802410 Eh/a0 ::
         :: HOMO-LUMO gap              3.126422061697 eV    ::
         :: SCC energy               -71.144854878482 Eh    ::
         :: -> dispersion             -0.057456123666 Eh    ::
         :: repulsion energy           1.095808168721 Eh    ::

    * Orbital Energies and Occupations

         #    Occupation            Energy/Eh            Energy/eV
      -------------------------------------------------------------
         1        2.0000           -0.8491307             -23.1060
       ...           ...                  ...                  ...
        54        2.0000           -0.5328902             -14.5007
        55        2.0000           -0.5301950             -14.4273
        56        2.0000           -0.5261859             -14.3182
        57        2.0000           -0.5255553             -14.3011
        58        2.0000           -0.5197435             -14.1429
        59        2.0000           -0.5162191             -14.0470
        60        2.0000           -0.5084524             -13.8357
        61        2.0000           -0.4985459             -13.5661
        62        2.0000           -0.4944565             -13.4548
        63        2.0000           -0.4902542             -13.3405
        64        2.0000           -0.4759332             -12.9508
        65        2.0000           -0.4719092             -12.8413
        66        2.0000           -0.4694528             -12.7745 (HOMO)
        67                         -0.3545589              -9.6480 (LUMO)
        68                         -0.3439987              -9.3607
        69                         -0.2328661              -6.3366
        70                         -0.2066162              -5.6223
        71                         -0.1484509              -4.0396
        72                         -0.1476443              -4.0176
        73                         -0.1314473              -3.5769
        74                         -0.0629387              -1.7126
        75                         -0.0569531              -1.5498
        76                         -0.0470719              -1.2809
        77                         -0.0380014              -1.0341
       ...                                ...                  ...
       132                          0.5416001              14.7377
      -------------------------------------------------------------
                  HL-Gap            0.1148939 Eh            3.1264 eV

     #   Z          covCN         q      C6AA      α(0)
     1   6 C        3.751    -0.103    22.523     6.768
     2   6 C        3.799    -0.053    21.521     6.605
     3   6 C        3.801    -0.058    21.614     6.619
     4   6 C        3.800    -0.058    21.613     6.619
     5   6 C        3.800    -0.058    21.613     6.619
     6   6 C        3.800    -0.059    21.630     6.622
     7   6 C        3.800    -0.059    21.636     6.623
     8   6 C        3.800    -0.061    21.670     6.628
     9   6 C        3.800    -0.061    21.680     6.629
    10   6 C        3.799    -0.070    21.840     6.654
    11   6 C        3.798    -0.069    21.821     6.651
    12   6 C        3.754    -0.039    21.326     6.585
    13   7 N        3.619     0.115    19.273     6.520
    14   6 C        3.767    -0.039    21.302     6.578
    15   6 C        2.967    -0.008    28.223     8.714
    16   6 C        2.923    -0.039    28.963     8.825
    17   6 C        2.919    -0.023    28.572     8.766
    18   6 C        2.920    -0.018    28.469     8.750
    19   6 C        2.919    -0.022    28.556     8.763
    20   6 C        2.923    -0.039    28.958     8.825
    21   6 C        3.761    -0.030    21.161     6.558
    22   6 C        3.751    -0.127    23.008     6.841
    23   6 C        3.716    -0.087    22.296     6.746
    24   1 H        0.925     0.034     2.536     2.491
    25   1 H        0.925     0.034     2.523     2.484
    26   1 H        0.925     0.035     2.510     2.477
    27   1 H        0.924     0.030     2.592     2.518
    28   1 H        0.924     0.030     2.591     2.517
    29   1 H        0.924     0.027     2.634     2.538
    30   1 H        0.924     0.031     2.567     2.505
    31   1 H        0.924     0.025     2.660     2.551
    32   1 H        0.924     0.036     2.509     2.477
    33   1 H        0.924     0.024     2.679     2.559
    34   1 H        0.924     0.038     2.482     2.464
    35   1 H        0.924     0.025     2.664     2.552
    36   1 H        0.924     0.039     2.459     2.452
    37   1 H        0.924     0.023     2.686     2.563
    38   1 H        0.924     0.041     2.440     2.443
    39   1 H        0.924     0.019     2.746     2.591
    40   1 H        0.924     0.044     2.391     2.418
    41   1 H        0.924     0.015     2.818     2.625
    42   1 H        0.925     0.053     2.282     2.363
    43   1 H        0.924     0.032     2.556     2.500
    44   1 H        0.924     0.060     2.204     2.322
    45   1 H        0.924     0.045     2.389     2.417
    46   1 H        0.924     0.072     2.064     2.247
    47   1 H        0.924     0.078     2.002     2.212
    48   1 H        0.925     0.092     1.855     2.130
    49   1 H        0.924     0.078     1.997     2.210
    50   1 H        0.924     0.083     1.946     2.182
    51   1 H        0.926     0.042     2.419     2.432
    52   1 H        0.926     0.058     2.227     2.334
    53   1 H        0.926     0.061     2.184     2.311
    54   1 H        0.926     0.058     2.219     2.329
    55   1 H        0.926     0.039     2.467     2.456
    56   1 H        0.924     0.081     1.968     2.194
    57   1 H        0.924     0.084     1.940     2.178
    58   1 H        0.925     0.068     2.113     2.273
    59   1 H        0.925     0.083     1.945     2.181
    60   1 H        0.925     0.063     2.169     2.303
    61   1 H        0.925     0.102     1.770     2.080
    62   1 H        0.925     0.096     1.824     2.112
    63   1 H        0.925     0.088     1.896     2.153

Wiberg/Mayer (AO) data.
largest (>0.10) Wiberg bond orders for each atom

     #   Z sym  total        # sym  WBO       # sym  WBO       # sym  WBO
 ---------------------------------------------------------------------------
     1   6 C    3.997 --     2 C    1.020    26 H    0.988    25 H    0.987
                            24 H    0.986
     2   6 C    3.998 --     1 C    1.020     3 C    1.008    28 H    0.978
                            27 H    0.976
     3   6 C    3.997 --     2 C    1.008     4 C    1.008    30 H    0.977
                            29 H    0.976
     4   6 C    3.997 --     5 C    1.008     3 C    1.008    31 H    0.975
                            32 H    0.975
     5   6 C    3.997 --     4 C    1.008     6 C    1.008    33 H    0.975
                            34 H    0.974
     6   6 C    3.997 --     5 C    1.008     7 C    1.007    35 H    0.975
                            36 H    0.974
     7   6 C    3.997 --     6 C    1.007     8 C    1.007    37 H    0.975
                            38 H    0.974
     8   6 C    3.996 --     9 C    1.007     7 C    1.007    39 H    0.976
                            40 H    0.973
     9   6 C    3.995 --    10 C    1.008     8 C    1.007    41 H    0.972
                            42 H    0.971
    10   6 C    3.992 --     9 C    1.008    11 C    1.004    43 H    0.974
                            44 H    0.971
    11   6 C    3.986 --    10 C    1.004    12 C    1.004    45 H    0.966
                            46 H    0.966
    12   6 C    3.928 --    11 C    1.004    47 H    0.964    48 H    0.953
                            13 N    0.927
    13   7 N    3.803 --    23 C    0.963    21 C    0.929    12 C    0.927
                            14 C    0.915
    14   6 C    3.933 --    15 C    1.005    49 H    0.966    50 H    0.959
                            13 N    0.915
    15   6 C    3.979 --    16 C    1.407    20 C    1.407    14 C    1.005
                            18 C    0.109
    16   6 C    3.991 --    17 C    1.444    15 C    1.407    51 H    0.967
                            19 C    0.109
    17   6 C    3.990 --    16 C    1.444    18 C    1.438    52 H    0.969
                            20 C    0.110
    18   6 C    3.989 --    17 C    1.438    19 C    1.437    53 H    0.969
                            15 C    0.109
    19   6 C    3.990 --    20 C    1.446    18 C    1.437    54 H    0.969
                            16 C    0.109
    20   6 C    3.991 --    19 C    1.446    15 C    1.407    55 H    0.968
                            17 C    0.110
    21   6 C    3.937 --    22 C    1.023    56 H    0.967    57 H    0.966
                            13 N    0.929
    22   6 C    3.983 --    21 C    1.023    58 H    0.981    60 H    0.978
                            59 H    0.973
    23   6 C    3.933 --    63 H    0.976    62 H    0.972    61 H    0.971
                            13 N    0.963
    24   1 H    0.999 --     1 C    0.986
    25   1 H    0.999 --     1 C    0.987
    26   1 H    0.999 --     1 C    0.988
    27   1 H    0.999 --     2 C    0.976
    28   1 H    0.999 --     2 C    0.978
    29   1 H    0.999 --     3 C    0.976
    30   1 H    0.999 --     3 C    0.977
    31   1 H    0.999 --     4 C    0.975
    32   1 H    0.999 --     4 C    0.975
    33   1 H    0.999 --     5 C    0.975
    34   1 H    0.999 --     5 C    0.974
    35   1 H    0.999 --     6 C    0.975
    36   1 H    0.998 --     6 C    0.974
    37   1 H    0.999 --     7 C    0.975
    38   1 H    0.998 --     7 C    0.974
    39   1 H    1.000 --     8 C    0.976
    40   1 H    0.998 --     8 C    0.973
    41   1 H    1.000 --     9 C    0.972
    42   1 H    0.997 --     9 C    0.971
    43   1 H    0.999 --    10 C    0.974
    44   1 H    0.996 --    10 C    0.971
    45   1 H    0.998 --    11 C    0.966
    46   1 H    0.995 --    11 C    0.966
    47   1 H    0.994 --    12 C    0.964
    48   1 H    0.991 --    12 C    0.953
    49   1 H    0.994 --    14 C    0.966
    50   1 H    0.993 --    14 C    0.959
    51   1 H    0.998 --    16 C    0.967
    52   1 H    0.996 --    17 C    0.969
    53   1 H    0.996 --    18 C    0.969
    54   1 H    0.996 --    19 C    0.969
    55   1 H    0.998 --    20 C    0.968
    56   1 H    0.993 --    21 C    0.967
    57   1 H    0.993 --    21 C    0.966
    58   1 H    0.995 --    22 C    0.981
    59   1 H    0.993 --    22 C    0.973
    60   1 H    0.996 --    22 C    0.978
    61   1 H    0.989 --    23 C    0.971
    62   1 H    0.991 --    23 C    0.972
    63   1 H    0.992 --    23 C    0.976
 ---------------------------------------------------------------------------

molecular dipole:
                 x           y           z       tot (Debye)
 q only:       -9.394     -10.469      13.066
   full:       -9.522     -10.537      13.107      49.121

           -------------------------------------------------
          | TOTAL ENERGY              -70.049046709761 Eh   |
          | GRADIENT NORM               0.000257802410 Eh/α |
          | HOMO-LUMO GAP               3.126422061697 eV   |
           -------------------------------------------------

 * finished run on 2024/12/20 at 06:57:38.823
