   * xtb version 6.7.1 (edcfbbe) compiled by 'conda@3ef47c1a292c' on 2024-11-25

   ID    Z sym.   atoms
    1    6 C      1, 2, 4, 6, 7, 9-13
    2    8 O      3, 5
    3    7 N      8
    4    1 H      14-27

          program call               : xtb C0784.xyz --opt --namespace C0784 --charge +1
          :  Hamiltonian                  GFN2-xTB          :
 * total energy  :   -39.1968927 Eh     change       -0.3937402E-09 Eh
 * total energy  :   -39.2025792 Eh     change       -0.5686517E-02 Eh
 * total energy  :   -39.2036809 Eh     change       -0.1101737E-02 Eh
 * total energy  :   -39.2040888 Eh     change       -0.4078839E-03 Eh
 * total energy  :   -39.2045256 Eh     change       -0.4368007E-03 Eh
 * total energy  :   -39.2048272 Eh     change       -0.3015991E-03 Eh
 * total energy  :   -39.2050858 Eh     change       -0.2585510E-03 Eh
 * total energy  :   -39.2053195 Eh     change       -0.2337332E-03 Eh
 * total energy  :   -39.2054927 Eh     change       -0.1731806E-03 Eh
 * total energy  :   -39.2056445 Eh     change       -0.1518091E-03 Eh
 * total energy  :   -39.2164885 Eh     change       -0.3946627E-04 Eh
 * total energy  :   -39.2164823 Eh     change        0.6254816E-05 Eh
 * total energy  :   -39.2165201 Eh     change       -0.3788525E-04 Eh
 * total energy  :   -39.2165302 Eh     change       -0.1009900E-04 Eh
 * total energy  :   -39.2165437 Eh     change       -0.1348889E-04 Eh
 * total energy  :   -39.2165559 Eh     change       -0.1219813E-04 Eh
 * total energy  :   -39.2165691 Eh     change       -0.1314809E-04 Eh
 * total energy  :   -39.2165751 Eh     change       -0.6040153E-05 Eh
 * total energy  :   -39.2165793 Eh     change       -0.4223373E-05 Eh
   *** GEOMETRY OPTIMIZATION CONVERGED AFTER 124 ITERATIONS ***

 final structure:
================
27
 xtb: 6.7.1 (edcfbbe)
C            0.69570607647627       -1.11528862156675        1.33725583051378
C            1.99811966320235       -0.55431222772091        0.79165668838318
O            2.41981927647144        0.60601438456199        1.53346690285430
C            1.88491378610740        1.76420434983687        1.23249463859274
O            1.07066123371545        1.96997751740508        0.36412002843047
C            2.42763222709845        2.86217320268908        2.14804186249919
C            2.15481246742449        4.26837199452700        1.60357749901795
N            0.72784747877703        4.49653137694653        1.42746949817346
C            0.18304279751352        4.42958437639881        0.20998288072050
C           -1.18329470965577        4.54375744231312        0.03659849162700
C           -1.99673189793935        4.73093340435589        1.14401820453181
C           -1.40629943672782        4.81614545913082        2.40028610433701
C           -0.03877515622699        4.69061603962667        2.50821498252437
H            0.79387946965105       -1.33845134028102        2.39662253775242
H            0.45141915044520       -2.03057055976808        0.80738004903737
H           -0.11474493294289       -0.40382803454506        1.19462238463987
H            2.81608988389560       -1.26577510501134        0.90973448998824
H            1.88861459969638       -0.27665968212285       -0.26067278803438
H            1.97431896699449        2.72451376215588        3.13235734803487
H            3.50211162738511        2.71740954246077        2.26162580848480
H            2.55351967207831        5.01134442860717        2.29835550028879
H            2.64868173732277        4.38660579504717        0.63774381515790
H            0.84288576711491        4.27617975646287       -0.62951132566435
H           -1.59829760692136        4.47779901649329       -0.95583476549567
H           -3.06716367749719        4.81325748222879        1.03486562880001
H           -2.00084328439253        4.97358251683120        3.28604444029757
H            0.46001482093198        4.74776372292505        3.46494326451632

          :  Hamiltonian                  GFN2-xTB          :
         :: total energy             -39.216579334343 Eh    ::
         :: gradient norm              0.000843427204 Eh/a0 ::
         :: HOMO-LUMO gap              2.501414240550 eV    ::
         :: SCC energy               -39.761801539855 Eh    ::
         :: -> dispersion             -0.020883219252 Eh    ::
         :: repulsion energy           0.545222205512 Eh    ::

    * Orbital Energies and Occupations

         #    Occupation            Energy/Eh            Energy/eV
      -------------------------------------------------------------
         1        2.0000           -0.8749776             -23.8094
       ...           ...                  ...                  ...
        23        2.0000           -0.6463104             -17.5870
        24        2.0000           -0.6296080             -17.1325
        25        2.0000           -0.6269043             -17.0589
        26        2.0000           -0.6187582             -16.8373
        27        2.0000           -0.6167824             -16.7835
        28        2.0000           -0.6160121             -16.7625
        29        2.0000           -0.6142437             -16.7144
        30        2.0000           -0.6073147             -16.5259
        31        2.0000           -0.6006713             -16.3451
        32        2.0000           -0.5708271             -15.5330
        33        2.0000           -0.5606429             -15.2559
        34        2.0000           -0.5523742             -15.0309
        35        2.0000           -0.5457438             -14.8504 (HOMO)
        36                         -0.4538185             -12.3490 (LUMO)
        37                         -0.4213127             -11.4645
        38                         -0.3587418              -9.7619
        39                         -0.3017131              -8.2100
        40                         -0.1747607              -4.7555
        41                         -0.1341528              -3.6505
        42                         -0.0725518              -1.9742
        43                         -0.0530584              -1.4438
        44                         -0.0458204              -1.2468
        45                         -0.0271106              -0.7377
        46                         -0.0141331              -0.3846
       ...                                ...                  ...
        66                          0.5161226              14.0444
      -------------------------------------------------------------
                  HL-Gap            0.0919253 Eh            2.5014 eV

     #   Z          covCN         q      C6AA      α(0)
     1   6 C        3.750    -0.119    22.847     6.817
     2   6 C        3.697     0.071    19.554     6.325
     3   8 O        1.703    -0.238    17.937     5.718
     4   6 C        2.713     0.361    20.866     7.477
     5   8 O        0.856    -0.431    22.308     6.333
     6   6 C        3.802    -0.105    22.496     6.753
     7   6 C        3.759    -0.031    21.178     6.561
     8   7 N        2.750     0.120    19.194     6.507
     9   6 C        2.890     0.050    26.872     8.499
    10   6 C        2.916    -0.006    28.181     8.705
    11   6 C        2.925     0.015    27.668     8.626
    12   6 C        2.915    -0.011    28.299     8.723
    13   6 C        2.893     0.031    27.317     8.569
    14   1 H        0.925     0.063     2.166     2.302
    15   1 H        0.925     0.070     2.082     2.256
    16   1 H        0.925     0.057     2.238     2.339
    17   1 H        0.924     0.080     1.980     2.200
    18   1 H        0.924     0.068     2.104     2.269
    19   1 H        0.924     0.089     1.892     2.151
    20   1 H        0.925     0.108     1.713     2.047
    21   1 H        0.924     0.099     1.795     2.095
    22   1 H        0.924     0.101     1.772     2.082
    23   1 H        0.926     0.125     1.574     1.962
    24   1 H        0.926     0.112     1.678     2.026
    25   1 H        0.926     0.108     1.716     2.049
    26   1 H        0.926     0.107     1.722     2.052
    27   1 H        0.926     0.106     1.732     2.058

Wiberg/Mayer (AO) data.
largest (>0.10) Wiberg bond orders for each atom

     #   Z sym  total        # sym  WBO       # sym  WBO       # sym  WBO
 ---------------------------------------------------------------------------
     1   6 C    3.988 --     2 C    1.014    16 H    0.985    14 H    0.985
                            15 H    0.979
     2   6 C    3.903 --     1 C    1.014    17 H    0.969    18 H    0.969
                             3 O    0.910
     3   8 O    2.362 --     4 C    1.209     2 C    0.910     5 O    0.186
     4   6 C    3.928 --     5 O    1.708     3 O    1.209     6 C    0.954
     5   8 O    2.026 --     4 C    1.708     3 O    0.186
     6   6 C    3.986 --     7 C    0.991     4 C    0.954    20 H    0.953
                            19 H    0.951
     7   6 C    3.943 --     6 C    0.991     8 N    0.966    22 H    0.964
                            21 H    0.959
     8   7 N    3.769 --     9 C    1.334    13 C    1.319     7 C    0.966
     9   6 C    3.950 --    10 C    1.442     8 N    1.334    23 H    0.950
    10   6 C    3.979 --     9 C    1.442    11 C    1.436    24 H    0.958
                            13 C    0.100
    11   6 C    3.970 --    10 C    1.436    12 C    1.409    25 H    0.961
    12   6 C    3.982 --    13 C    1.474    11 C    1.409    26 H    0.959
    13   6 C    3.959 --    12 C    1.474     8 N    1.319    27 H    0.955
                            10 C    0.100
    14   1 H    0.996 --     1 C    0.985
    15   1 H    0.994 --     1 C    0.979
    16   1 H    0.997 --     1 C    0.985
    17   1 H    0.993 --     2 C    0.969
    18   1 H    0.995 --     2 C    0.969
    19   1 H    0.992 --     6 C    0.951
    20   1 H    0.987 --     6 C    0.953
    21   1 H    0.989 --     7 C    0.959
    22   1 H    0.989 --     7 C    0.964
    23   1 H    0.984 --     9 C    0.950
    24   1 H    0.987 --    10 C    0.958
    25   1 H    0.988 --    11 C    0.961
    26   1 H    0.988 --    12 C    0.959
    27   1 H    0.989 --    13 C    0.955
 ---------------------------------------------------------------------------

molecular dipole:
                 x           y           z       tot (Debye)
 q only:        0.765       7.362       2.991
   full:        0.906       7.378       3.065      20.438

           -------------------------------------------------
          | TOTAL ENERGY              -39.216579334343 Eh   |
          | GRADIENT NORM               0.000843427204 Eh/α |
          | HOMO-LUMO GAP               2.501414240550 eV   |
           -------------------------------------------------

 * finished run on 2024/12/20 at 06:57:34.692
