   * xtb version 6.7.1 (edcfbbe) compiled by 'conda@3ef47c1a292c' on 2024-11-25

   ID    Z sym.   atoms
    1    6 C      1-4, 6, 8-16
    2   15 P      5
    3    8 O      7
    4    1 H      17-48

          program call               : xtb C0783.xyz --opt --namespace C0783 --charge +1
          :  Hamiltonian                  GFN2-xTB          :
 * total energy  :   -52.4777913 Eh     change       -0.2199769E-09 Eh
 * total energy  :   -52.4839576 Eh     change       -0.6166298E-02 Eh
 * total energy  :   -52.4859742 Eh     change       -0.2016558E-02 Eh
 * total energy  :   -52.4863428 Eh     change       -0.3686597E-03 Eh
 * total energy  :   -52.4866212 Eh     change       -0.2783993E-03 Eh
 * total energy  :   -52.4868801 Eh     change       -0.2588790E-03 Eh
 * total energy  :   -52.4871906 Eh     change       -0.3104972E-03 Eh
 * total energy  :   -52.4874730 Eh     change       -0.2823982E-03 Eh
 * total energy  :   -52.4876441 Eh     change       -0.1711260E-03 Eh
 * total energy  :   -52.4877630 Eh     change       -0.1188759E-03 Eh
 * total energy  :   -52.4978539 Eh     change       -0.3902843E-04 Eh
 * total energy  :   -52.4978822 Eh     change       -0.2829760E-04 Eh
 * total energy  :   -52.4979015 Eh     change       -0.1931276E-04 Eh
 * total energy  :   -52.4979167 Eh     change       -0.1521975E-04 Eh
 * total energy  :   -52.4979267 Eh     change       -0.1002624E-04 Eh
 * total energy  :   -52.4979358 Eh     change       -0.9052338E-05 Eh
 * total energy  :   -52.4979446 Eh     change       -0.8820356E-05 Eh
 * total energy  :   -52.4979511 Eh     change       -0.6493435E-05 Eh
 * total energy  :   -52.4979553 Eh     change       -0.4232744E-05 Eh
   *** GEOMETRY OPTIMIZATION CONVERGED AFTER 58 ITERATIONS ***

 final structure:
================
48
 xtb: 6.7.1 (edcfbbe)
C            0.70540498497033        0.14314007383822       -1.30299712661388
C           -0.24324078725406        1.11862530992672       -0.59973848891802
C            0.03176523552938        2.56571917436261       -1.01521728629427
C           -0.28642166286781        2.83980400465896       -2.48079236846897
P            0.53223675975392       -1.57057719530153       -0.71073733469864
C            1.21062764537503       -1.67078338878295        0.99242689375719
O            0.29055560994092       -0.96863298094696        1.77787916001720
C            0.62210823514086       -0.93661470821904        3.15588145805019
C           -1.22103807549587       -2.03702684905231       -0.55413347131023
C           -2.04195504991221       -1.92392154339306       -1.84453412715220
C           -2.05166834010840       -3.21160236625204       -2.67175394271356
C           -2.90509134801311       -4.30806669105158       -2.04505279675122
C            1.52980758655520       -2.75719934799790       -1.68797194618628
C            1.57238903346543       -2.49351224072306       -3.19883234818354
C            2.75122924972795       -1.61191290580580       -3.61862006710821
C            4.08752212315874       -2.34228009753291       -3.55237821666760
H            1.74472969778014        0.44030585810790       -1.12945790284967
H            0.52768379421315        0.14495922743662       -2.38127044250616
H           -1.27748495047897        0.87259778127656       -0.84652806604247
H           -0.12364469522681        1.02622484063191        0.48058789289469
H           -0.58556398788997        3.21596300028995       -0.39411700649151
H            1.07566230964154        2.81403574306368       -0.81399433254151
H           -1.30541081613630        2.53926265873191       -2.71473260155899
H           -0.19448550368264        3.90249193245761       -2.68556673383882
H            0.39496771681128        2.31554179859011       -3.14666575051296
H            1.29751455969555       -2.72565403436086        1.30465593852356
H            2.21584116437329       -1.21762202567640        1.02588884202280
H            0.67503721908154       -1.94881719094427        3.56713961916508
H            1.57800679284425       -0.42956948099278        3.31697435579869
H           -0.17405849206419       -0.38289025480479        3.64665169731956
H           -1.25550370520829       -3.05703494361955       -0.16211624996835
H           -1.61148332852560       -1.37364010857837        0.22362314987823
H           -3.07261953284590       -1.68269089612176       -1.57893260703140
H           -1.66516137102981       -1.09957927263637       -2.45488873475266
H           -2.45570603609665       -2.98125870602482       -3.65868265596392
H           -1.03207094994389       -3.57575127095482       -2.80992590977432
H           -3.93166659578905       -3.97081281312506       -1.92834423188525
H           -2.90868780464995       -5.18674820872883       -2.68372844546238
H           -2.53080581787527       -4.60650333198624       -1.06850142540163
H            2.54373702574674       -2.74019048633822       -1.27879785946857
H            1.10960984701463       -3.74455035944794       -1.47330384164170
H            1.66240418315168       -3.44927230968460       -3.71778081882174
H            0.63671621454945       -2.03604774037500       -3.52701521076916
H            2.58568019154186       -1.28685160536657       -4.64657310216969
H            2.79381207479605       -0.71924046716296       -2.99160060111891
H            4.07327811326620       -3.22109506341725       -4.19143913558232
H            4.88495801092142       -1.68874997270532       -3.89424946630782
H            4.32750347204593       -2.65952054526234       -2.54009635390048

          :  Hamiltonian                  GFN2-xTB          :
         :: total energy             -52.497955314654 Eh    ::
         :: gradient norm              0.000333463812 Eh/a0 ::
         :: HOMO-LUMO gap              6.405990267458 eV    ::
         :: SCC energy               -53.213548500408 Eh    ::
         :: -> dispersion             -0.039697667473 Eh    ::
         :: repulsion energy           0.715593185754 Eh    ::

    * Orbital Energies and Occupations

         #    Occupation            Energy/Eh            Energy/eV
      -------------------------------------------------------------
         1        2.0000           -0.8549653             -23.2648
       ...           ...                  ...                  ...
        37        2.0000           -0.5795918             -15.7715
        38        2.0000           -0.5778563             -15.7243
        39        2.0000           -0.5743672             -15.6293
        40        2.0000           -0.5568214             -15.1519
        41        2.0000           -0.5538364             -15.0707
        42        2.0000           -0.5514328             -15.0053
        43        2.0000           -0.5500403             -14.9674
        44        2.0000           -0.5479839             -14.9114
        45        2.0000           -0.5434760             -14.7887
        46        2.0000           -0.5430267             -14.7765
        47        2.0000           -0.5410834             -14.7236
        48        2.0000           -0.5402654             -14.7014
        49        2.0000           -0.5355712             -14.5736 (HOMO)
        50                         -0.3001554              -8.1676 (LUMO)
        51                         -0.2732246              -7.4348
        52                         -0.2686866              -7.3113
        53                         -0.1939688              -5.2782
        54                         -0.1378528              -3.7512
        55                         -0.0854959              -2.3265
        56                         -0.0615774              -1.6756
        57                         -0.0476323              -1.2961
        58                         -0.0413724              -1.1258
        59                         -0.0394576              -1.0737
        60                         -0.0314157              -0.8549
       ...                                ...                  ...
       101                          0.7857260              21.3807
      -------------------------------------------------------------
                  HL-Gap            0.2354158 Eh            6.4060 eV

     #   Z          covCN         q      C6AA      α(0)
     1   6 C        3.751    -0.066    21.832     6.663
     2   6 C        3.870    -0.067    21.738     6.630
     3   6 C        3.801    -0.060    21.653     6.625
     4   6 C        3.751    -0.112    22.708     6.796
     5  15 P        3.984     0.190   152.056    22.151
     6   6 C        3.650     0.062    19.844     6.399
     7   8 O        1.790    -0.296    18.898     5.870
     8   6 C        3.650     0.025    20.475     6.500
     9   6 C        3.750    -0.074    21.969     6.685
    10   6 C        3.852    -0.063    21.678     6.622
    11   6 C        3.800    -0.062    21.690     6.631
    12   6 C        3.752    -0.113    22.715     6.797
    13   6 C        3.750    -0.079    22.067     6.700
    14   6 C        3.845    -0.065    21.708     6.627
    15   6 C        3.800    -0.062    21.697     6.632
    16   6 C        3.752    -0.113    22.719     6.797
    17   1 H        0.927     0.092     1.855     2.130
    18   1 H        0.927     0.097     1.808     2.102
    19   1 H        0.924     0.057     2.229     2.335
    20   1 H        0.924     0.066     2.131     2.283
    21   1 H        0.924     0.056     2.249     2.345
    22   1 H        0.924     0.043     2.408     2.427
    23   1 H        0.925     0.042     2.417     2.431
    24   1 H        0.925     0.055     2.258     2.350
    25   1 H        0.925     0.034     2.528     2.487
    26   1 H        0.924     0.067     2.121     2.278
    27   1 H        0.924     0.069     2.099     2.265
    28   1 H        0.924     0.051     2.304     2.373
    29   1 H        0.924     0.051     2.301     2.372
    30   1 H        0.925     0.085     1.926     2.170
    31   1 H        0.927     0.099     1.791     2.093
    32   1 H        0.929     0.111     1.690     2.033
    33   1 H        0.924     0.069     2.099     2.266
    34   1 H        0.924     0.048     2.347     2.396
    35   1 H        0.924     0.053     2.280     2.361
    36   1 H        0.924     0.036     2.500     2.473
    37   1 H        0.925     0.050     2.318     2.381
    38   1 H        0.925     0.053     2.280     2.361
    39   1 H        0.925     0.034     2.527     2.486
    40   1 H        0.927     0.094     1.841     2.122
    41   1 H        0.927     0.091     1.868     2.137
    42   1 H        0.924     0.069     2.093     2.263
    43   1 H        0.924     0.050     2.316     2.380
    44   1 H        0.924     0.055     2.260     2.351
    45   1 H        0.924     0.034     2.525     2.485
    46   1 H        0.925     0.051     2.313     2.378
    47   1 H        0.925     0.055     2.264     2.353
    48   1 H        0.925     0.034     2.530     2.488

Wiberg/Mayer (AO) data.
largest (>0.10) Wiberg bond orders for each atom

     #   Z sym  total        # sym  WBO       # sym  WBO       # sym  WBO
 ---------------------------------------------------------------------------
     1   6 C    3.983 --     5 P    1.014     2 C    0.980    17 H    0.928
                            18 H    0.928
     2   6 C    3.985 --     3 C    1.001     1 C    0.980    19 H    0.969
                            20 H    0.966
     3   6 C    3.991 --     4 C    1.020     2 C    1.001    22 H    0.977
                            21 H    0.973
     4   6 C    3.994 --     3 C    1.020    23 H    0.987    25 H    0.986
                            24 H    0.985
     5  15 P    4.571 --     9 C    1.018     1 C    1.014    13 C    1.004
                             6 C    0.975
     6   6 C    3.964 --     7 O    1.003     5 P    0.975    26 H    0.934
                            27 H    0.934
     7   8 O    2.112 --     6 C    1.003     8 C    0.964
     8   6 C    3.926 --    29 H    0.978    28 H    0.978    30 H    0.976
                             7 O    0.964
     9   6 C    3.981 --     5 P    1.018    10 C    0.984    31 H    0.927
                            32 H    0.923
    10   6 C    3.987 --    11 C    1.006     9 C    0.984    33 H    0.970
                            34 H    0.965
    11   6 C    3.995 --    12 C    1.021    10 C    1.006    35 H    0.975
                            36 H    0.970
    12   6 C    3.993 --    11 C    1.021    37 H    0.986    38 H    0.985
                            39 H    0.984
    13   6 C    3.982 --     5 P    1.004    14 C    0.987    41 H    0.932
                            40 H    0.930
    14   6 C    3.985 --    15 C    1.006    13 C    0.987    42 H    0.970
                            43 H    0.966
    15   6 C    3.994 --    16 C    1.021    14 C    1.006    44 H    0.975
                            45 H    0.971
    16   6 C    3.993 --    15 C    1.021    46 H    0.986    47 H    0.984
                            48 H    0.983
    17   1 H    0.991 --     1 C    0.928
    18   1 H    0.990 --     1 C    0.928
    19   1 H    0.997 --     2 C    0.969
    20   1 H    0.995 --     2 C    0.966
    21   1 H    0.996 --     3 C    0.973
    22   1 H    0.998 --     3 C    0.977
    23   1 H    0.998 --     4 C    0.987
    24   1 H    0.997 --     4 C    0.985
    25   1 H    0.999 --     4 C    0.986
    26   1 H    0.995 --     6 C    0.934
    27   1 H    0.995 --     6 C    0.934
    28   1 H    0.997 --     8 C    0.978
    29   1 H    0.997 --     8 C    0.978
    30   1 H    0.992 --     8 C    0.976
    31   1 H    0.990 --     9 C    0.927
    32   1 H    0.988 --     9 C    0.923
    33   1 H    0.995 --    10 C    0.970
    34   1 H    0.998 --    10 C    0.965
    35   1 H    0.997 --    11 C    0.975
    36   1 H    0.999 --    11 C    0.970
    37   1 H    0.997 --    12 C    0.986
    38   1 H    0.997 --    12 C    0.985
    39   1 H    0.999 --    12 C    0.984
    40   1 H    0.991 --    13 C    0.930
    41   1 H    0.991 --    13 C    0.932
    42   1 H    0.995 --    14 C    0.970
    43   1 H    0.997 --    14 C    0.966
    44   1 H    0.997 --    15 C    0.975
    45   1 H    0.999 --    15 C    0.971
    46   1 H    0.997 --    16 C    0.986
    47   1 H    0.997 --    16 C    0.984
    48   1 H    0.999 --    16 C    0.983
 ---------------------------------------------------------------------------

molecular dipole:
                 x           y           z       tot (Debye)
 q only:        0.946      -2.776      -1.592
   full:        1.178      -2.929      -1.344       8.722

           -------------------------------------------------
          | TOTAL ENERGY              -52.497955314654 Eh   |
          | GRADIENT NORM               0.000333463812 Eh/α |
          | HOMO-LUMO GAP               6.405990267458 eV   |
           -------------------------------------------------

 * finished run on 2024/12/20 at 06:57:33.089
