   * xtb version 6.7.1 (edcfbbe) compiled by 'conda@3ef47c1a292c' on 2024-11-25

   ID    Z sym.   atoms
    1    6 C      1, 2, 4, 5, 7, 9-22
    2    8 O      3
    3    7 N      6, 8
    4    1 H      23-45

          program call               : xtb C0780.xyz --opt --namespace C0780 --charge +1
          :  Hamiltonian                  GFN2-xTB          :
 * total energy  :   -61.9611150 Eh     change       -0.8917240E-09 Eh
 * total energy  :   -61.9670254 Eh     change       -0.5910387E-02 Eh
 * total energy  :   -61.9681875 Eh     change       -0.1162094E-02 Eh
 * total energy  :   -61.9684689 Eh     change       -0.2814446E-03 Eh
 * total energy  :   -61.9687846 Eh     change       -0.3157007E-03 Eh
 * total energy  :   -61.9689840 Eh     change       -0.1993675E-03 Eh
 * total energy  :   -61.9692342 Eh     change       -0.2502055E-03 Eh
 * total energy  :   -61.9695393 Eh     change       -0.3050813E-03 Eh
 * total energy  :   -61.9698494 Eh     change       -0.3100596E-03 Eh
 * total energy  :   -61.9701815 Eh     change       -0.3321339E-03 Eh
 * total energy  :   -61.9759834 Eh     change       -0.2368960E-04 Eh
 * total energy  :   -61.9760037 Eh     change       -0.2027189E-04 Eh
 * total energy  :   -61.9760182 Eh     change       -0.1454674E-04 Eh
 * total energy  :   -61.9760278 Eh     change       -0.9596902E-05 Eh
 * total energy  :   -61.9760348 Eh     change       -0.6954840E-05 Eh
 * total energy  :   -61.9760405 Eh     change       -0.5758002E-05 Eh
 * total energy  :   -61.9760458 Eh     change       -0.5275100E-05 Eh
 * total energy  :   -61.9760508 Eh     change       -0.5007457E-05 Eh
 * total energy  :   -61.9760554 Eh     change       -0.4601138E-05 Eh
   *** GEOMETRY OPTIMIZATION CONVERGED AFTER 58 ITERATIONS ***

 final structure:
================
45
 xtb: 6.7.1 (edcfbbe)
C           -0.95500713731244        1.66888460683112       -1.66745101216978
C           -0.56059181793197        0.90544994546519       -0.40989118491118
O            0.35438174416566        1.59832157843613        0.42764344388654
C            1.64636872757925        1.75442944638862       -0.10855816373281
C            2.53955251294161        2.27160083324091        1.02701346297102
N            2.45999286551495        1.36380365791454        2.14226178438566
C            1.48726671697907        1.36520746640938        3.04687225125109
N            1.57477060434638        0.31459819874951        3.85443701874888
C            2.68287972851708       -0.41552389933992        3.47477131625716
C            3.23975712307822        0.24729685705317        2.36308169337485
C            4.37306257126347       -0.24290895058479        1.72549296582987
C            4.92598172478784       -1.40050592383875        2.23361139830114
C            4.37569691194745       -2.05567492641667        3.33896894356106
C            3.24930869406731       -1.58023481357665        3.97837858882767
C            0.80068928498891        0.12828746854194        5.05539166264610
C            1.52015538152711        0.80074954467085        6.24158571259375
C            1.78644356229468        2.24644389493281        5.92461464466819
C            2.97926264693078        2.62152146141902        5.31560019575697
C            3.20434861103018        3.94117820143895        4.96240269811596
C            2.23681328546780        4.89945443690892        5.21167843130738
C            1.04698891482249        4.53499304308305        5.82074220734629
C            0.82118436169842        3.21527113697726        6.17020596106084
H           -1.30226038601715        2.66554259940594       -1.40769300305094
H           -1.75977015981444        1.13820061839534       -2.16706545357736
H           -0.12083973578064        1.75326458328985       -2.35947897141413
H           -1.43602897170253        0.75129010441404        0.22453280977224
H           -0.13888743864235       -0.07432798265203       -0.67764433654460
H            2.02190281339960        0.78872089270033       -0.48132341808793
H            1.66128770193187        2.47957084148372       -0.93102821364150
H            3.57385207820674        2.35464092853281        0.69393176271778
H            2.17739282203159        3.24872981168949        1.35157955777912
H            0.71673513399298        2.11063701148054        3.09359744743241
H            4.80348598158699        0.25423979021409        0.87172014816195
H            5.80639526957807       -1.81308321541244        1.76751650739278
H            4.84672480640509       -2.95595330744623        3.69973603874465
H            2.83236818265931       -2.09134732544546        4.83052692564431
H           -0.17909404263084        0.58586464346615        4.90660181545238
H            0.67342281339039       -0.94018421870046        5.23584380180592
H            0.88356336928381        0.71091293218090        7.12124131698429
H            2.45871576239702        0.28006295365244        6.43770922482993
H            3.74942703555795        1.88127796282990        5.14141363894109
H            4.13991337255817        4.22143929871960        4.50221427059341
H            2.41426336634271        5.92941105837267        4.94419752975696
H            0.29632847123017        5.28140409111580        6.02931165509488
H           -0.10477526466253        2.93682266306287        6.65168492510677

          :  Hamiltonian                  GFN2-xTB          :
         :: total energy             -61.976055395999 Eh    ::
         :: gradient norm              0.000214063195 Eh/a0 ::
         :: HOMO-LUMO gap              2.750865263094 eV    ::
         :: SCC energy               -62.970121605881 Eh    ::
         :: -> dispersion             -0.047053980615 Eh    ::
         :: repulsion energy           0.994066209882 Eh    ::

    * Orbital Energies and Occupations

         #    Occupation            Energy/Eh            Energy/eV
      -------------------------------------------------------------
         1        2.0000           -0.8708230             -23.6963
       ...           ...                  ...                  ...
        45        2.0000           -0.5766536             -15.6915
        46        2.0000           -0.5753882             -15.6571
        47        2.0000           -0.5725660             -15.5803
        48        2.0000           -0.5679394             -15.4544
        49        2.0000           -0.5570345             -15.1577
        50        2.0000           -0.5484454             -14.9240
        51        2.0000           -0.5399374             -14.6924
        52        2.0000           -0.5389430             -14.6654
        53        2.0000           -0.5296740             -14.4132
        54        2.0000           -0.5261930             -14.3184
        55        2.0000           -0.5173077             -14.0767
        56        2.0000           -0.5107855             -13.8992
        57        2.0000           -0.5071917             -13.8014 (HOMO)
        58                         -0.4060992             -11.0505 (LUMO)
        59                         -0.3591893              -9.7740
        60                         -0.3505413              -9.5387
        61                         -0.3311213              -9.0103
        62                         -0.3288052              -8.9472
        63                         -0.2339195              -6.3653
        64                         -0.2020796              -5.4989
        65                         -0.1655896              -4.5059
        66                         -0.1246910              -3.3930
        67                         -0.0964698              -2.6251
        68                         -0.0612208              -1.6659
       ...                                ...                  ...
       111                          0.5566567              15.1474
      -------------------------------------------------------------
                  HL-Gap            0.1010924 Eh            2.7509 eV

     #   Z          covCN         q      C6AA      α(0)
     1   6 C        3.750    -0.123    22.915     6.827
     2   6 C        3.692     0.078    19.453     6.311
     3   8 O        1.700    -0.331    19.537     5.968
     4   6 C        3.696     0.078    19.443     6.308
     5   6 C        3.743    -0.024    21.067     6.548
     6   7 N        2.831     0.040    20.534     6.730
     7   6 C        3.076     0.076    26.217     8.395
     8   7 N        2.829     0.037    20.602     6.741
     9   6 C        3.121     0.042    26.890     8.493
    10   6 C        3.118     0.040    26.946     8.502
    11   6 C        2.909    -0.033    28.826     8.804
    12   6 C        2.925    -0.019    28.479     8.752
    13   6 C        2.925    -0.019    28.490     8.753
    14   6 C        2.909    -0.032    28.796     8.799
    15   6 C        3.745    -0.017    20.953     6.530
    16   6 C        3.809    -0.074    21.909     6.663
    17   6 C        2.971     0.002    27.976     8.676
    18   6 C        2.924    -0.045    29.122     8.850
    19   6 C        2.918    -0.032    28.807     8.801
    20   6 C        2.920    -0.028    28.698     8.785
    21   6 C        2.919    -0.026    28.645     8.777
    22   6 C        2.924    -0.039    28.969     8.826
    23   1 H        0.925     0.060     2.204     2.321
    24   1 H        0.925     0.060     2.203     2.321
    25   1 H        0.925     0.047     2.353     2.399
    26   1 H        0.924     0.059     2.211     2.325
    27   1 H        0.923     0.026     2.639     2.540
    28   1 H        0.923     0.040     2.455     2.450
    29   1 H        0.924     0.061     2.188     2.313
    30   1 H        0.925     0.089     1.885     2.147
    31   1 H        0.924     0.093     1.847     2.125
    32   1 H        0.926     0.114     1.662     2.016
    33   1 H        0.926     0.067     2.120     2.277
    34   1 H        0.926     0.078     1.995     2.209
    35   1 H        0.926     0.079     1.992     2.207
    36   1 H        0.926     0.070     2.082     2.256
    37   1 H        0.924     0.080     1.980     2.200
    38   1 H        0.924     0.085     1.926     2.170
    39   1 H        0.925     0.075     2.027     2.227
    40   1 H        0.924     0.059     2.205     2.322
    41   1 H        0.925     0.021     2.714     2.576
    42   1 H        0.926     0.040     2.452     2.449
    43   1 H        0.926     0.049     2.326     2.385
    44   1 H        0.926     0.051     2.302     2.373
    45   1 H        0.926     0.043     2.408     2.427

Wiberg/Mayer (AO) data.
largest (>0.10) Wiberg bond orders for each atom

     #   Z sym  total        # sym  WBO       # sym  WBO       # sym  WBO
 ---------------------------------------------------------------------------
     1   6 C    3.991 --     2 C    1.014    25 H    0.985    23 H    0.985
                            24 H    0.982
     2   6 C    3.939 --     1 C    1.014    26 H    0.970    27 H    0.969
                             3 O    0.961
     3   8 O    2.066 --     4 C    0.997     2 C    0.961
     4   6 C    3.958 --     3 O    0.997     5 C    0.980    28 H    0.965
                            29 H    0.960
     5   6 C    3.950 --     6 N    0.980     4 C    0.980    30 H    0.965
                            31 H    0.964
     6   7 N    3.682 --     7 C    1.363    10 C    1.124     5 C    0.980
     7   6 C    3.954 --     8 N    1.368     6 N    1.363    32 H    0.951
     8   7 N    3.680 --     7 C    1.368     9 C    1.123    15 C    0.975
     9   6 C    3.953 --    14 C    1.342    10 C    1.273     8 N    1.123
    10   6 C    3.952 --    11 C    1.341     9 C    1.273     6 N    1.124
    11   6 C    3.986 --    12 C    1.493    10 C    1.341    33 H    0.964
                            14 C    0.118
    12   6 C    3.986 --    11 C    1.493    13 C    1.380    34 H    0.966
    13   6 C    3.986 --    14 C    1.493    12 C    1.380    35 H    0.966
    14   6 C    3.986 --    13 C    1.493     9 C    1.342    36 H    0.963
                            11 C    0.118
    15   6 C    3.943 --     8 N    0.975    37 H    0.967    16 C    0.966
                            38 H    0.964
    16   6 C    3.984 --    17 C    1.012    40 H    0.972    15 C    0.966
                            39 H    0.964
    17   6 C    3.988 --    22 C    1.411    18 C    1.408    16 C    1.012
                            20 C    0.108
    18   6 C    3.992 --    19 C    1.440    17 C    1.408    41 H    0.969
                            21 C    0.110
    19   6 C    3.992 --    20 C    1.442    18 C    1.440    42 H    0.970
                            22 C    0.111
    20   6 C    3.990 --    19 C    1.442    21 C    1.435    43 H    0.970
                            17 C    0.108
    21   6 C    3.991 --    22 C    1.447    20 C    1.435    44 H    0.970
                            18 C    0.110
    22   6 C    3.991 --    21 C    1.447    17 C    1.411    45 H    0.968
                            19 C    0.111
    23   1 H    0.996 --     1 C    0.985
    24   1 H    0.996 --     1 C    0.982
    25   1 H    0.998 --     1 C    0.985
    26   1 H    0.997 --     2 C    0.970
    27   1 H    0.999 --     2 C    0.969
    28   1 H    0.998 --     4 C    0.965
    29   1 H    0.996 --     4 C    0.960
    30   1 H    0.991 --     5 C    0.965
    31   1 H    0.990 --     5 C    0.964
    32   1 H    0.986 --     7 C    0.951
    33   1 H    0.995 --    11 C    0.964
    34   1 H    0.993 --    12 C    0.966
    35   1 H    0.993 --    13 C    0.966
    36   1 H    0.994 --    14 C    0.963
    37   1 H    0.993 --    15 C    0.967
    38   1 H    0.991 --    15 C    0.964
    39   1 H    0.994 --    16 C    0.964
    40   1 H    0.996 --    16 C    0.972
    41   1 H    1.000 --    18 C    0.969
    42   1 H    0.998 --    19 C    0.970
    43   1 H    0.997 --    20 C    0.970
    44   1 H    0.997 --    21 C    0.970
    45   1 H    0.998 --    22 C    0.968
 ---------------------------------------------------------------------------

molecular dipole:
                 x           y           z       tot (Debye)
 q only:        4.015       1.412       5.261
   full:        3.961       1.468       5.132      16.895

           -------------------------------------------------
          | TOTAL ENERGY              -61.976055395999 Eh   |
          | GRADIENT NORM               0.000214063195 Eh/α |
          | HOMO-LUMO GAP               2.750865263094 eV   |
           -------------------------------------------------

 * finished run on 2024/12/20 at 06:57:26.606
