   * xtb version 6.7.1 (edcfbbe) compiled by 'conda@3ef47c1a292c' on 2024-11-25

   ID    Z sym.   atoms
    1    6 C      1-10, 12-14, 16-18, 20-25
    2    7 N      11, 19
    3   17 Cl     15, 28
    4    8 O      26, 27
    5    1 H      29-61

          program call               : xtb C0781.xyz --opt --namespace C0781 --charge +1
          :  Hamiltonian                  GFN2-xTB          :
 * total energy  :   -86.7234904 Eh     change       -0.2990092E-08 Eh
 * total energy  :   -86.7309133 Eh     change       -0.7422973E-02 Eh
 * total energy  :   -86.7327042 Eh     change       -0.1790841E-02 Eh
 * total energy  :   -86.7331028 Eh     change       -0.3985863E-03 Eh
 * total energy  :   -86.7335687 Eh     change       -0.4659214E-03 Eh
 * total energy  :   -86.7338072 Eh     change       -0.2385536E-03 Eh
 * total energy  :   -86.7342179 Eh     change       -0.4106236E-03 Eh
 * total energy  :   -86.7345542 Eh     change       -0.3363625E-03 Eh
 * total energy  :   -86.7349598 Eh     change       -0.4055996E-03 Eh
 * total energy  :   -86.7351647 Eh     change       -0.2049216E-03 Eh
 * total energy  :   -86.7395129 Eh     change       -0.1170430E-04 Eh
 * total energy  :   -86.7395256 Eh     change       -0.1267442E-04 Eh
 * total energy  :   -86.7395384 Eh     change       -0.1274140E-04 Eh
 * total energy  :   -86.7395555 Eh     change       -0.1710431E-04 Eh
 * total energy  :   -86.7395769 Eh     change       -0.2143236E-04 Eh
 * total energy  :   -86.7395879 Eh     change       -0.1096069E-04 Eh
 * total energy  :   -86.7396030 Eh     change       -0.1514180E-04 Eh
 * total energy  :   -86.7396112 Eh     change       -0.8196544E-05 Eh
 * total energy  :   -86.7396159 Eh     change       -0.4730560E-05 Eh
   *** GEOMETRY OPTIMIZATION CONVERGED AFTER 44 ITERATIONS ***

 final structure:
================
61
 xtb: 6.7.1 (edcfbbe)
C            1.21516938428816       -0.28744860548984       -0.28371434113261
C            0.93156256943551        0.06530540903636        1.17124921322045
C            1.31883005276304        1.50051262388671        1.53128888257096
C            0.55817190378065        2.58612521014575        0.76646282684975
C           -0.96324103445015        2.54190926156489        0.92220988126635
C           -1.46662504184289        2.63930688242289        2.36326030158145
C           -1.05036102218126        3.90742361286417        3.11320095952398
C           -1.46452881489691        5.22045913442841        2.44257922164036
C           -2.96708733570174        5.37576806640781        2.20646650410437
C           -3.78968783825342        5.52794303480099        3.49095458595876
N           -3.60891431894288        6.83233111423561        4.09066031803799
C           -4.14647770118688        7.99167640711895        3.57110170406881
C           -4.96218833295625        8.22341556027633        2.47137654268648
C           -5.34049862910165        9.53130521467488        2.22543644072927
Cl          -6.34574265699925        9.87512163083042        0.88194147738656
C           -4.91404583491671       10.58786053313515        3.06323999254453
C           -4.11139420277644       10.35451286955498        4.16578011900352
C           -3.73185383237481        9.04071003457294        4.40854619508989
N           -2.96402987403691        8.47047672094453        5.40471331629393
C           -2.90631319444378        7.14819755559055        5.18574817221558
C           -2.20495484499920        6.16711468688562        6.03983809574379
C           -2.34640218902166        9.19751014623563        6.49351698600285
C           -0.86457854896545        9.49430235363458        6.23361870312716
C           -0.63997294467341       10.59256406162920        5.18647974391009
C           -1.14123750660120       11.93451261564921        5.68181022147656
O           -2.28881497581789       12.16246016701971        5.97465424162957
O           -0.17374179792132       12.82883066696045        5.76349296510358
Cl          -5.40442845241142       12.18970766138200        2.70955772411712
H            0.58955474877519        0.29018603140944       -0.95932232456648
H            1.01626709313698       -1.34171760645770       -0.45973624795865
H            2.25715903767953       -0.09175436317452       -0.52621316843705
H           -0.12513588326496       -0.10261132838468        1.38729752206775
H            1.50338052716819       -0.60836562013537        1.81367332451755
H            1.17637532856919        1.64259078664914        2.60517763228526
H            2.38434397054107        1.63253739547853        1.32848627318840
H            0.93105973674057        3.56014787847543        1.09290294378658
H            0.78994844695860        2.49924260106901       -0.29604937823246
H           -1.39425396063746        3.35026452307584        0.32673582415616
H           -1.33598316900650        1.60729935243353        0.50101289841794
H           -2.55643684889636        2.55911870312471        2.35621448463425
H           -1.09345381790402        1.78328266779443        2.92695029459089
H           -1.46735649150134        3.84789272523080        4.12267191921835
H            0.03545698150028        3.91481019889500        3.21827441899866
H           -1.10063255646247        6.06227247093100        3.04003153358952
H           -0.96726008092129        5.28437976740690        1.47497145070333
H           -3.13675805765891        6.24833398757777        1.57349951132347
H           -3.33885806767703        4.50352160597290        1.67136761583131
H           -4.85236890156697        5.42023732496019        3.26007084261210
H           -3.51229483472026        4.75972990921421        4.21137693743588
H           -5.30297372977245        7.43172661442382        1.82608664539090
H           -3.79780304511459       11.17284415793901        4.79559210062106
H           -1.41173589947052        5.66838200616830        5.48309784629952
H           -1.76313575690889        6.64524906114018        6.90766115299335
H           -2.90035553979295        5.40152184582177        6.38477561683914
H           -2.88674858133436       10.13761636366979        6.61540221841495
H           -2.45551288777872        8.61810280175140        7.41247432504396
H           -0.41313481434796        9.80607649196110        7.17626295304427
H           -0.35487247492290        8.58707082211267        5.90400450929067
H            0.42360979906073       10.68570617102780        4.97191967858655
H           -1.16881500576014       10.34911328202987        4.26260563776757
H           -0.49482824941477       13.69084674004803        6.07804201274344

          :  Hamiltonian                  GFN2-xTB          :
         :: total energy             -86.739615928662 Eh    ::
         :: gradient norm              0.000703505876 Eh/a0 ::
         :: HOMO-LUMO gap              1.986323648126 eV    ::
         :: SCC energy               -87.850077586361 Eh    ::
         :: -> dispersion             -0.064054705936 Eh    ::
         :: repulsion energy           1.110461657700 Eh    ::

    * Orbital Energies and Occupations

         #    Occupation            Energy/Eh            Energy/eV
      -------------------------------------------------------------
         1        2.0000           -1.1595762             -31.5537
       ...           ...                  ...                  ...
        66        2.0000           -0.5312472             -14.4560
        67        2.0000           -0.5303245             -14.4309
        68        2.0000           -0.5272884             -14.3482
        69        2.0000           -0.5238376             -14.2543
        70        2.0000           -0.5235426             -14.2463
        71        2.0000           -0.5227860             -14.2257
        72        2.0000           -0.5121526             -13.9364
        73        2.0000           -0.5079146             -13.8211
        74        2.0000           -0.5064665             -13.7817
        75        2.0000           -0.5026409             -13.6776
        76        2.0000           -0.4859515             -13.2234
        77        2.0000           -0.4822374             -13.1223
        78        2.0000           -0.4790464             -13.0355 (HOMO)
        79                         -0.4060504             -11.0492 (LUMO)
        80                         -0.3644652              -9.9176
        81                         -0.3535968              -9.6219
        82                         -0.3447358              -9.3807
        83                         -0.2514680              -6.8428
        84                         -0.2449061              -6.6642
        85                         -0.2371893              -6.4542
        86                         -0.1769271              -4.8144
        87                         -0.1266553              -3.4465
        88                         -0.0975282              -2.6539
        89                         -0.0934169              -2.5420
       ...                                ...                  ...
       155                          0.5336117              14.5203
      -------------------------------------------------------------
                  HL-Gap            0.0729961 Eh            1.9863 eV

     #   Z          covCN         q      C6AA      α(0)
     1   6 C        3.751    -0.104    22.542     6.771
     2   6 C        3.799    -0.053    21.531     6.607
     3   6 C        3.800    -0.058    21.621     6.620
     4   6 C        3.800    -0.059    21.630     6.622
     5   6 C        3.800    -0.060    21.657     6.626
     6   6 C        3.800    -0.061    21.679     6.629
     7   6 C        3.800    -0.061    21.673     6.628
     8   6 C        3.800    -0.063    21.704     6.633
     9   6 C        3.801    -0.072    21.869     6.658
    10   6 C        3.740    -0.022    21.048     6.546
    11   7 N        2.828     0.019    20.923     6.794
    12   6 C        3.101     0.034    27.122     8.534
    13   6 C        2.953    -0.052    29.294     8.877
    14   6 C        2.922     0.093    25.930     8.351
    15  17 Cl       1.005    -0.080   101.644    15.424
    16   6 C        2.922     0.094    25.914     8.348
    17   6 C        2.953    -0.057    29.420     8.896
    18   6 C        3.097     0.035    27.107     8.533
    19   7 N        2.828     0.018    20.937     6.796
    20   6 C        3.078     0.118    25.323     8.250
    21   6 C        3.755    -0.137    23.191     6.867
    22   6 C        3.740    -0.031    21.214     6.572
    23   6 C        3.802    -0.064    21.733     6.637
    24   6 C        3.802    -0.100    22.416     6.741
    25   6 C        2.689     0.364    20.821     7.468
    26   8 O        0.856    -0.422    22.129     6.307
    27   8 O        1.660    -0.348    19.862     6.016
    28  17 Cl       1.006    -0.078   101.582    15.420
    29   1 H        0.925     0.034     2.527     2.486
    30   1 H        0.925     0.036     2.500     2.473
    31   1 H        0.925     0.037     2.494     2.470
    32   1 H        0.924     0.030     2.593     2.518
    33   1 H        0.924     0.031     2.574     2.509
    34   1 H        0.924     0.024     2.667     2.554
    35   1 H        0.924     0.034     2.536     2.491
    36   1 H        0.924     0.024     2.679     2.560
    37   1 H        0.924     0.039     2.459     2.452
    38   1 H        0.924     0.026     2.649     2.545
    39   1 H        0.924     0.042     2.419     2.432
    40   1 H        0.924     0.025     2.653     2.547
    41   1 H        0.924     0.045     2.386     2.415
    42   1 H        0.924     0.017     2.781     2.608
    43   1 H        0.924     0.045     2.378     2.412
    44   1 H        0.924     0.017     2.772     2.604
    45   1 H        0.925     0.059     2.212     2.326
    46   1 H        0.924     0.050     2.316     2.380
    47   1 H        0.925     0.074     2.037     2.232
    48   1 H        0.924     0.079     1.985     2.203
    49   1 H        0.925     0.084     1.938     2.177
    50   1 H        0.926     0.097     1.813     2.106
    51   1 H        0.926     0.126     1.566     1.957
    52   1 H        0.925     0.106     1.730     2.057
    53   1 H        0.925     0.092     1.857     2.131
    54   1 H        0.924     0.097     1.814     2.106
    55   1 H        0.924     0.117     1.639     2.002
    56   1 H        0.924     0.078     1.995     2.209
    57   1 H        0.924     0.074     2.043     2.235
    58   1 H        0.924     0.061     2.191     2.315
    59   1 H        0.925     0.088     1.901     2.156
    60   1 H        0.924     0.072     2.069     2.249
    61   1 H        0.804     0.347     0.596     1.213

Wiberg/Mayer (AO) data.
largest (>0.10) Wiberg bond orders for each atom

     #   Z sym  total        # sym  WBO       # sym  WBO       # sym  WBO
 ---------------------------------------------------------------------------
     1   6 C    3.997 --     2 C    1.020    31 H    0.987    30 H    0.987
                            29 H    0.986
     2   6 C    3.998 --     1 C    1.020     3 C    1.008    33 H    0.978
                            32 H    0.976
     3   6 C    3.997 --     2 C    1.008     4 C    1.007    35 H    0.977
                            34 H    0.976
     4   6 C    3.997 --     5 C    1.008     3 C    1.007    36 H    0.976
                            37 H    0.975
     5   6 C    3.996 --     6 C    1.008     4 C    1.008    38 H    0.975
                            39 H    0.974
     6   6 C    3.996 --     5 C    1.008     7 C    1.007    40 H    0.975
                            41 H    0.973
     7   6 C    3.996 --     8 C    1.007     6 C    1.007    43 H    0.974
                            42 H    0.971
     8   6 C    3.994 --     9 C    1.008     7 C    1.007    44 H    0.976
                            45 H    0.970
     9   6 C    3.984 --     8 C    1.008    10 C    0.986    46 H    0.973
                            47 H    0.965
    10   6 C    3.939 --     9 C    0.986    11 N    0.968    49 H    0.961
                            48 H    0.961
    11   7 N    3.665 --    20 C    1.329    12 C    1.131    10 C    0.968
    12   6 C    3.960 --    13 C    1.338    18 C    1.270    11 N    1.131
    13   6 C    3.979 --    14 C    1.443    12 C    1.338    50 H    0.957
                            17 C    0.104
    14   6 C    3.936 --    13 C    1.443    16 C    1.285    15 Cl   1.041
    15  17 Cl   1.206 --    14 C    1.041
    16   6 C    3.936 --    17 C    1.444    14 C    1.285    28 Cl   1.042
    17   6 C    3.972 --    16 C    1.444    18 C    1.338    51 H    0.939
                            13 C    0.104
    18   6 C    3.959 --    17 C    1.338    12 C    1.270    19 N    1.129
    19   7 N    3.661 --    20 C    1.322    18 C    1.129    22 C    0.971
    20   6 C    3.942 --    11 N    1.329    19 N    1.322    21 C    1.046
    21   6 C    3.976 --    20 C    1.046    53 H    0.969    54 H    0.951
                            52 H    0.943
    22   6 C    3.939 --    23 C    0.993    19 N    0.971    56 H    0.960
                            55 H    0.950
    23   6 C    3.989 --    24 C    0.994    22 C    0.993    58 H    0.972
                            57 H    0.971
    24   6 C    3.991 --    23 C    0.994    59 H    0.971    25 C    0.969
                            60 H    0.956
    25   6 C    3.915 --    26 O    1.729    27 O    1.184    24 C    0.969
    26   8 O    2.032 --    25 C    1.729    27 O    0.181
    27   8 O    2.248 --    25 C    1.184    61 H    0.853    26 O    0.181
    28  17 Cl   1.208 --    16 C    1.042
    29   1 H    0.999 --     1 C    0.986
    30   1 H    0.999 --     1 C    0.987
    31   1 H    0.999 --     1 C    0.987
    32   1 H    0.999 --     2 C    0.976
    33   1 H    0.999 --     2 C    0.978
    34   1 H    0.999 --     3 C    0.976
    35   1 H    0.999 --     3 C    0.977
    36   1 H    0.999 --     4 C    0.976
    37   1 H    0.998 --     4 C    0.975
    38   1 H    0.999 --     5 C    0.975
    39   1 H    0.998 --     5 C    0.974
    40   1 H    0.999 --     6 C    0.975
    41   1 H    0.998 --     6 C    0.973
    42   1 H    1.000 --     7 C    0.971
    43   1 H    0.998 --     7 C    0.974
    44   1 H    1.000 --     8 C    0.976
    45   1 H    0.996 --     8 C    0.970
    46   1 H    0.997 --     9 C    0.973
    47   1 H    0.994 --     9 C    0.965
    48   1 H    0.993 --    10 C    0.961
    49   1 H    0.992 --    10 C    0.961
    50   1 H    0.990 --    13 C    0.957
    51   1 H    0.984 --    17 C    0.939
    52   1 H    0.985 --    21 C    0.943
    53   1 H    0.991 --    21 C    0.969
    54   1 H    0.988 --    21 C    0.951
    55   1 H    0.986 --    22 C    0.950
    56   1 H    0.993 --    22 C    0.960
    57   1 H    0.994 --    23 C    0.971
    58   1 H    0.996 --    23 C    0.972
    59   1 H    0.992 --    24 C    0.971
    60   1 H    0.995 --    24 C    0.956
    61   1 H    0.880 --    27 O    0.853
 ---------------------------------------------------------------------------

molecular dipole:
                 x           y           z       tot (Debye)
 q only:       -4.323      13.664       9.082
   full:       -4.687      14.223       8.860      44.226

           -------------------------------------------------
          | TOTAL ENERGY              -86.739615928662 Eh   |
          | GRADIENT NORM               0.000703505876 Eh/α |
          | HOMO-LUMO GAP               1.986323648126 eV   |
           -------------------------------------------------

 * finished run on 2024/12/20 at 06:57:30.248
