   * xtb version 6.7.1 (edcfbbe) compiled by 'conda@3ef47c1a292c' on 2024-11-25

   ID    Z sym.   atoms
    1    8 O      1, 3, 22, 23
    2    7 N      2, 11, 15, 21
    3    6 C      4-10, 12-14, 16-20
    4    1 H      24-36

          program call               : xtb C0788.xyz --opt --namespace C0788 --charge +1
          :  Hamiltonian                  GFN2-xTB          :
 * total energy  :   -66.1307795 Eh     change       -0.1301956E-08 Eh
 * total energy  :   -66.1428222 Eh     change       -0.1204273E-01 Eh
 * total energy  :   -66.1456752 Eh     change       -0.2853037E-02 Eh
 * total energy  :   -66.1459887 Eh     change       -0.3134821E-03 Eh
 * total energy  :   -66.1463408 Eh     change       -0.3521114E-03 Eh
 * total energy  :   -66.1465249 Eh     change       -0.1840424E-03 Eh
 * total energy  :   -66.1468900 Eh     change       -0.3651161E-03 Eh
 * total energy  :   -66.1470864 Eh     change       -0.1963760E-03 Eh
 * total energy  :   -66.1473292 Eh     change       -0.2427761E-03 Eh
 * total energy  :   -66.1474205 Eh     change       -0.9135245E-04 Eh
 * total energy  :   -66.1475464 Eh     change       -0.1259028E-03 Eh
 * total energy  :   -66.1475775 Eh     change       -0.3113502E-04 Eh
 * total energy  :   -66.1476238 Eh     change       -0.4623599E-04 Eh
 * total energy  :   -66.1476542 Eh     change       -0.3046045E-04 Eh
 * total energy  :   -66.1476615 Eh     change       -0.7226570E-05 Eh
 * total energy  :   -66.1476679 Eh     change       -0.6414141E-05 Eh
 * total energy  :   -66.1476705 Eh     change       -0.2611194E-05 Eh
 * total energy  :   -66.1476733 Eh     change       -0.2834076E-05 Eh
   *** GEOMETRY OPTIMIZATION CONVERGED AFTER 18 ITERATIONS ***

 final structure:
================
36
 xtb: 6.7.1 (edcfbbe)
O            1.89542828856583        1.00173188092509       -0.61583393156221
N            2.67564516355367        0.31640521865570       -0.00464569059027
O            3.04342343269976        0.48175076916334        1.13030198630909
C            3.23456749461060       -0.83466250662163       -0.71525771097403
C            4.04610381862574       -1.72543983303469       -0.02752991479871
C            4.57244502419205       -2.81313395240020       -0.69709134616999
C            4.27755871388553       -3.00822264934555       -2.04960192887973
C            3.45735769798548       -2.10167788086456       -2.72744496843652
C            2.93786525882777       -1.00990579508868       -2.05912178621412
C            4.82540594443581       -4.16607802439442       -2.75386426004035
N            4.09714922758968       -5.06648944855157       -3.43385533430235
C            2.66417757555724       -5.10780658847153       -3.57156202060528
C            4.95213869874139       -6.01295805339549       -3.95292974450131
C            6.25075256305314       -5.64254352084362       -3.55208762410900
N            6.12500482838314       -4.48840840181788       -2.80947351494610
C            7.23911360149432       -3.75579955325781       -2.26556569309842
C            7.36005098425230       -6.39374776320687       -3.90839272216274
C            7.10859722985275       -7.51621914226819       -4.67634263003543
C            5.82448965028862       -7.89344360957322       -5.08324804689645
C            4.72218331857182       -7.14645321533272       -4.72678043281801
N            8.24680150553057       -8.34568907836181       -5.08062205294615
O            9.33084780951198       -7.99566000546222       -4.68687484827989
O            8.00659719357693       -9.30181781267653       -5.76948850035140
H            4.25103546789979       -1.55495611161334        1.01886118146311
H            5.18407499509906       -3.52552892384114       -0.16563440069168
H            3.25261794938910       -2.23440239710229       -3.77815010893119
H            2.30613669983569       -0.29106861320692       -2.55949970686008
H            2.37183779031360       -4.83732769600063       -4.58763923887179
H            2.31133322367851       -6.11834858135926       -3.36563401540314
H            2.20120600822802       -4.41896066722697       -2.86868995878309
H            6.91330538572754       -2.77352459022163       -1.93105771377787
H            7.67613222733754       -4.29816265809127       -1.42554910473438
H            8.00191440885047       -3.63596446061183       -3.03535491162011
H            8.37004949188550       -6.14892929367607       -3.61859553847723
H            5.72161512296004       -8.78530715272633       -5.68363242448439
H            3.73172620501048       -7.43123988809546       -5.03964134242224

          :  Hamiltonian                  GFN2-xTB          :
         :: total energy             -66.147673328215 Eh    ::
         :: gradient norm              0.000879891782 Eh/a0 ::
         :: HOMO-LUMO gap              2.443559648297 eV    ::
         :: SCC energy               -67.012140860910 Eh    ::
         :: -> dispersion             -0.039858759278 Eh    ::
         :: repulsion energy           0.864467532695 Eh    ::

    * Orbital Energies and Occupations

         #    Occupation            Energy/Eh            Energy/eV
      -------------------------------------------------------------
         1        2.0000           -0.9064427             -24.6656
       ...           ...                  ...                  ...
        46        2.0000           -0.6203907             -16.8817
        47        2.0000           -0.6051198             -16.4661
        48        2.0000           -0.5972612             -16.2523
        49        2.0000           -0.5899602             -16.0536
        50        2.0000           -0.5838692             -15.8879
        51        2.0000           -0.5814386             -15.8218
        52        2.0000           -0.5776071             -15.7175
        53        2.0000           -0.5772630             -15.7081
        54        2.0000           -0.5749255             -15.6445
        55        2.0000           -0.5653306             -15.3834
        56        2.0000           -0.5596297             -15.2283
        57        2.0000           -0.5545507             -15.0901
        58        2.0000           -0.5478138             -14.9068 (HOMO)
        59                         -0.4580146             -12.4632 (LUMO)
        60                         -0.4389721             -11.9450
        61                         -0.4228954             -11.5076
        62                         -0.3980046             -10.8303
        63                         -0.3899336             -10.6106
        64                         -0.3705147             -10.0822
        65                         -0.3639332              -9.9031
        66                         -0.2639538              -7.1825
        67                         -0.2631453              -7.1605
        68                         -0.2052658              -5.5856
        69                         -0.1663404              -4.5264
       ...                                ...                  ...
       105                          0.5054268              13.7534
      -------------------------------------------------------------
                  HL-Gap            0.0897992 Eh            2.4436 eV

     #   Z          covCN         q      C6AA      α(0)
     1   8 O        0.929    -0.350    20.671     6.097
     2   7 N        2.757     0.558    13.394     5.435
     3   8 O        0.929    -0.349    20.657     6.095
     4   6 C        2.916     0.018    27.601     8.615
     5   6 C        2.916    -0.013    28.344     8.730
     6   6 C        2.924    -0.024    28.614     8.772
     7   6 C        2.973     0.003    27.949     8.672
     8   6 C        2.923    -0.025    28.616     8.772
     9   6 C        2.916    -0.013    28.345     8.731
    10   6 C        3.093     0.113    25.404     8.261
    11   7 N        2.827     0.027    20.774     6.769
    12   6 C        3.690    -0.077    22.168     6.738
    13   6 C        3.098     0.044    26.891     8.498
    14   6 C        3.109     0.043    26.892     8.496
    15   7 N        2.824     0.029    20.743     6.764
    16   6 C        3.690    -0.078    22.190     6.741
    17   6 C        2.909    -0.029    28.728     8.789
    18   6 C        2.923     0.012    27.744     8.638
    19   6 C        2.924    -0.016    28.407     8.740
    20   6 C        2.910    -0.028    28.712     8.786
    21   7 N        2.758     0.561    13.359     5.428
    22   8 O        0.930    -0.355    20.771     6.112
    23   8 O        0.929    -0.342    20.523     6.076
    24   1 H        0.926     0.111     1.688     2.032
    25   1 H        0.926     0.072     2.068     2.249
    26   1 H        0.926     0.071     2.072     2.251
    27   1 H        0.926     0.111     1.690     2.033
    28   1 H        0.924     0.101     1.779     2.086
    29   1 H        0.925     0.103     1.759     2.074
    30   1 H        0.925     0.095     1.833     2.117
    31   1 H        0.925     0.095     1.830     2.115
    32   1 H        0.924     0.103     1.758     2.074
    33   1 H        0.924     0.105     1.739     2.062
    34   1 H        0.926     0.114     1.664     2.017
    35   1 H        0.926     0.120     1.610     1.984
    36   1 H        0.926     0.091     1.872     2.140

Wiberg/Mayer (AO) data.
largest (>0.10) Wiberg bond orders for each atom

     #   Z sym  total        # sym  WBO       # sym  WBO       # sym  WBO
 ---------------------------------------------------------------------------
     1   8 O    1.972 --     2 N    1.475     3 O    0.390
     2   7 N    3.918 --     3 O    1.476     1 O    1.475     4 C    0.930
     3   8 O    1.973 --     2 N    1.476     1 O    0.390
     4   6 C    3.969 --     9 C    1.398     5 C    1.398     2 N    0.930
     5   6 C    3.979 --     6 C    1.451     4 C    1.398    24 H    0.953
                             8 C    0.107
     6   6 C    3.982 --     5 C    1.451     7 C    1.375    25 H    0.966
                             9 C    0.107
     7   6 C    3.979 --     8 C    1.375     6 C    1.375    10 C    1.044
     8   6 C    3.983 --     9 C    1.451     7 C    1.375    26 H    0.966
                             5 C    0.107
     9   6 C    3.979 --     8 C    1.451     4 C    1.398    27 H    0.953
                             6 C    0.107
    10   6 C    3.948 --    15 N    1.324    11 N    1.312     7 C    1.044
    11   7 N    3.669 --    10 C    1.312    13 C    1.139    12 C    0.989
    12   6 C    3.935 --    11 N    0.989    30 H    0.972    29 H    0.966
                            28 H    0.962
    13   6 C    3.957 --    20 C    1.337    14 C    1.266    11 N    1.139
    14   6 C    3.957 --    17 C    1.350    13 C    1.266    15 N    1.131
    15   7 N    3.671 --    10 C    1.324    14 C    1.131    16 C    0.989
    16   6 C    3.933 --    15 N    0.989    31 H    0.972    33 H    0.965
                            32 H    0.961
    17   6 C    3.976 --    18 C    1.445    14 C    1.350    34 H    0.950
                            20 C    0.116
    18   6 C    3.970 --    17 C    1.445    19 C    1.349    21 N    0.931
    19   6 C    3.974 --    20 C    1.494    18 C    1.349    35 H    0.952
    20   6 C    3.981 --    19 C    1.494    13 C    1.337    36 H    0.960
                            17 C    0.116
    21   7 N    3.919 --    23 O    1.482    22 O    1.470    18 C    0.931
    22   8 O    1.966 --    21 N    1.470    23 O    0.388
    23   8 O    1.978 --    21 N    1.482    22 O    0.388
    24   1 H    0.987 --     5 C    0.953
    25   1 H    0.994 --     6 C    0.966
    26   1 H    0.994 --     8 C    0.966
    27   1 H    0.987 --     9 C    0.953
    28   1 H    0.989 --    12 C    0.962
    29   1 H    0.989 --    12 C    0.966
    30   1 H    0.990 --    12 C    0.972
    31   1 H    0.990 --    16 C    0.972
    32   1 H    0.988 --    16 C    0.961
    33   1 H    0.988 --    16 C    0.965
    34   1 H    0.986 --    17 C    0.950
    35   1 H    0.985 --    19 C    0.952
    36   1 H    0.991 --    20 C    0.960
 ---------------------------------------------------------------------------

molecular dipole:
                 x           y           z       tot (Debye)
 q only:        8.708      -8.847      -5.909
   full:        8.656      -8.824      -5.903      34.817

           -------------------------------------------------
          | TOTAL ENERGY              -66.147673328215 Eh   |
          | GRADIENT NORM               0.000879891782 Eh/α |
          | HOMO-LUMO GAP               2.443559648297 eV   |
           -------------------------------------------------

 * finished run on 2024/12/20 at 06:57:44.257
