   * xtb version 6.7.1 (edcfbbe) compiled by 'conda@3ef47c1a292c' on 2024-11-25

   ID    Z sym.   atoms
    1    6 C      1, 2, 4, 6-8
    2    7 N      3, 5
    3    1 H      9-17

          program call               : xtb C0785.xyz --opt --namespace C0785 --charge +1
          :  Hamiltonian                  GFN2-xTB          :
 * total energy  :   -22.8496659 Eh     change       -0.8209859E-09 Eh
 * total energy  :   -22.8528911 Eh     change       -0.3225141E-02 Eh
 * total energy  :   -22.8533601 Eh     change       -0.4690624E-03 Eh
 * total energy  :   -22.8534028 Eh     change       -0.4267689E-04 Eh
 * total energy  :   -22.8534211 Eh     change       -0.1831039E-04 Eh
 * total energy  :   -22.8534269 Eh     change       -0.5795141E-05 Eh
 * total energy  :   -22.8534312 Eh     change       -0.4251279E-05 Eh
   *** GEOMETRY OPTIMIZATION CONVERGED AFTER 7 ITERATIONS ***

 final structure:
================
17
 xtb: 6.7.1 (edcfbbe)
C            1.31672732656229       -0.24892121493877        0.11082694351028
C            0.31541937471001       -0.90601146054187       -0.83631172119735
N            0.72757763032166       -0.08760712506005        1.43024443804800
C            0.76379731154763       -1.09734613938122        2.32072030918910
N            0.21508417434029       -1.04143286368855        3.49696330074151
C           -0.42190739145449        0.06142026782382        3.86134346603097
C           -0.51464763010396        1.15568125075912        3.00313292917695
C            0.08531856490576        1.03934446959777        1.76453530047264
H            1.60536046272685        0.73280217172886       -0.26903748690978
H            2.20999467197350       -0.86986710886969        0.20076706864440
H            0.02914579875754       -1.89278282946162       -0.48108265560267
H           -0.57928473829682       -0.29754143698274       -0.94412211611871
H            0.77286376019223       -1.01549482661367       -1.81506804108998
H            1.28257353183906       -2.00609387120631        2.04331019061865
H           -0.85764099119055        0.05799936518447        4.85113382199256
H           -1.02949757435153        2.05996539643638        3.28469362263789
H            0.06238571752051        1.83905595521404        1.03613062985556

          :  Hamiltonian                  GFN2-xTB          :
         :: total energy             -22.853431183597 Eh    ::
         :: gradient norm              0.000783437482 Eh/a0 ::
         :: HOMO-LUMO gap              2.382811722181 eV    ::
         :: SCC energy               -23.216319167089 Eh    ::
         :: -> dispersion             -0.011057696134 Eh    ::
         :: repulsion energy           0.362887983492 Eh    ::

    * Orbital Energies and Occupations

         #    Occupation            Energy/Eh            Energy/eV
      -------------------------------------------------------------
         1        2.0000           -0.9105309             -24.7768
       ...           ...                  ...                  ...
         9        2.0000           -0.7559864             -20.5714
        10        2.0000           -0.7361283             -20.0311
        11        2.0000           -0.7200507             -19.5936
        12        2.0000           -0.7041502             -19.1609
        13        2.0000           -0.6900937             -18.7784
        14        2.0000           -0.6882937             -18.7294
        15        2.0000           -0.6827360             -18.5782
        16        2.0000           -0.6555553             -17.8386
        17        2.0000           -0.6522872             -17.7496
        18        2.0000           -0.6379095             -17.3584
        19        2.0000           -0.6257699             -17.0281
        20        2.0000           -0.6162543             -16.7691
        21        2.0000           -0.5774860             -15.7142 (HOMO)
        22                         -0.4899193             -13.3314 (LUMO)
        23                         -0.4637281             -12.6187
        24                         -0.3404672              -9.2646
        25                         -0.1952363              -5.3127
        26                         -0.0987270              -2.6865
        27                         -0.0674500              -1.8354
        28                         -0.0600482              -1.6340
        29                         -0.0439158              -1.1950
        30                         -0.0321465              -0.8748
        31                         -0.0133045              -0.3620
        32                         -0.0027672              -0.0753
       ...                                ...                  ...
        41                          0.3971225              10.8063
      -------------------------------------------------------------
                  HL-Gap            0.0875667 Eh            2.3828 eV

     #   Z          covCN         q      C6AA      α(0)
     1   6 C        3.753    -0.031    21.188     6.564
     2   6 C        3.753    -0.126    22.970     6.834
     3   7 N        2.748     0.095    19.600     6.575
     4   6 C        2.886     0.122    25.329     8.251
     5   7 N        1.837    -0.130    24.592     7.349
     6   6 C        2.921     0.096    25.873     8.341
     7   6 C        2.908    -0.015    28.384     8.736
     8   6 C        2.901     0.054    26.788     8.486
     9   1 H        0.924     0.099     1.793     2.094
    10   1 H        0.924     0.101     1.779     2.086
    11   1 H        0.925     0.072     2.065     2.247
    12   1 H        0.925     0.071     2.078     2.254
    13   1 H        0.925     0.097     1.810     2.104
    14   1 H        0.925     0.127     1.555     1.950
    15   1 H        0.925     0.127     1.555     1.950
    16   1 H        0.926     0.121     1.602     1.979
    17   1 H        0.925     0.119     1.618     1.989

Wiberg/Mayer (AO) data.
largest (>0.10) Wiberg bond orders for each atom

     #   Z sym  total        # sym  WBO       # sym  WBO       # sym  WBO
 ---------------------------------------------------------------------------
     1   6 C    3.927 --     2 C    0.990     9 H    0.962    10 H    0.960
                             3 N    0.956
     2   6 C    3.975 --     1 C    0.990    12 H    0.983    11 H    0.982
                            13 H    0.971
     3   7 N    3.763 --     8 C    1.332     4 C    1.299     1 C    0.956
     4   6 C    3.945 --     5 N    1.511     3 N    1.299    14 H    0.943
                             7 C    0.108
     5   7 N    3.111 --     4 C    1.511     6 C    1.414
     6   6 C    3.943 --     5 N    1.414     7 C    1.399    15 H    0.951
     7   6 C    3.976 --     8 C    1.468     6 C    1.399    16 H    0.956
                             4 C    0.108
     8   6 C    3.952 --     7 C    1.468     3 N    1.332    17 H    0.951
     9   1 H    0.990 --     1 C    0.962
    10   1 H    0.990 --     1 C    0.960
    11   1 H    0.995 --     2 C    0.982
    12   1 H    0.995 --     2 C    0.983
    13   1 H    0.989 --     2 C    0.971
    14   1 H    0.984 --     4 C    0.943
    15   1 H    0.984 --     6 C    0.951
    16   1 H    0.985 --     7 C    0.956
    17   1 H    0.986 --     8 C    0.951
 ---------------------------------------------------------------------------

molecular dipole:
                 x           y           z       tot (Debye)
 q only:        0.718       0.209       3.028
   full:        0.738       0.516       2.845       7.583

           -------------------------------------------------
          | TOTAL ENERGY              -22.853431183597 Eh   |
          | GRADIENT NORM               0.000783437482 Eh/α |
          | HOMO-LUMO GAP               2.382811722181 eV   |
           -------------------------------------------------

 * finished run on 2024/12/20 at 06:57:35.033
