   * xtb version 6.7.1 (edcfbbe) compiled by 'conda@3ef47c1a292c' on 2024-11-25

   ID    Z sym.   atoms
    1    8 O      1, 17
    2    6 C      2-9, 11, 12, 14-16, 18-23
    3    7 N      10, 13
    4    1 H      24-40

          program call               : xtb C0787.xyz --opt --namespace C0787 --charge +1
          :  Hamiltonian                  GFN2-xTB          :
 * total energy  :   -62.8943959 Eh     change       -0.9037606E-09 Eh
 * total energy  :   -62.9025248 Eh     change       -0.8128935E-02 Eh
 * total energy  :   -62.9049022 Eh     change       -0.2377446E-02 Eh
 * total energy  :   -62.9053573 Eh     change       -0.4550423E-03 Eh
 * total energy  :   -62.9056392 Eh     change       -0.2819324E-03 Eh
 * total energy  :   -62.9058621 Eh     change       -0.2228506E-03 Eh
 * total energy  :   -62.9061815 Eh     change       -0.3194724E-03 Eh
 * total energy  :   -62.9066457 Eh     change       -0.4641741E-03 Eh
 * total energy  :   -62.9072013 Eh     change       -0.5555718E-03 Eh
 * total energy  :   -62.9078061 Eh     change       -0.6047819E-03 Eh
 * total energy  :   -62.9258285 Eh     change       -0.2634422E-04 Eh
 * total energy  :   -62.9258480 Eh     change       -0.1950281E-04 Eh
 * total energy  :   -62.9258653 Eh     change       -0.1735916E-04 Eh
 * total energy  :   -62.9258841 Eh     change       -0.1870990E-04 Eh
 * total energy  :   -62.9259019 Eh     change       -0.1787418E-04 Eh
 * total energy  :   -62.9259192 Eh     change       -0.1724404E-04 Eh
 * total energy  :   -62.9259325 Eh     change       -0.1336217E-04 Eh
 * total energy  :   -62.9259395 Eh     change       -0.6989229E-05 Eh
 * total energy  :   -62.9259423 Eh     change       -0.2802387E-05 Eh
   *** GEOMETRY OPTIMIZATION CONVERGED AFTER 171 ITERATIONS ***

 final structure:
================
40
 xtb: 6.7.1 (edcfbbe)
O            4.16033046776481       -1.66989877031260        0.82976982350155
C            3.58674168298892       -0.60848126071136        0.91823314095889
C            4.13053177289984        0.57792800984049        1.57154687187988
C            3.52246371255491        1.83696413876148        1.52053720776136
C            4.10474378833012        2.90889657066542        2.16754646451972
C            5.28836745443502        2.74546107163059        2.87418055845055
C            5.90165429514604        1.50293583069292        2.92691043614498
C            5.33116191617794        0.42752556937451        2.27784179249694
C            2.16724474146939       -0.48702765941608        0.29120327327474
N            1.70766783783245       -1.80720287871704       -0.02096942071316
C            0.71098291766709       -2.49545349493009        0.60646455159091
C            0.75210183519789       -3.77410738249034        0.14769422056448
N            1.79327045602856       -3.85697845910430       -0.72950102799180
C            2.35458616619093       -2.65302202184063       -0.82065526128117
C            2.10846418973316       -4.95945483655485       -1.58822027773464
C            1.84833506112079       -4.52143503393104       -3.05827008192361
O            1.65994811663288       -3.34744561112521       -3.28043220404796
C            1.85465780420350       -5.56962181895999       -4.07429651111418
C            1.46469299427272       -5.20976496096292       -5.37089620375869
C            1.44411613378678       -6.14817165377451       -6.38213246058207
C            1.81938894045203       -7.45675079188188       -6.11736264675643
C            2.21766475660506       -7.82227736514675       -4.83887306921111
C            2.23506900381254       -6.89173051451824       -3.81888087154784
H            2.61008558107428        1.99198571068848        0.96679472499292
H            3.63553975414741        3.87933563293800        2.12245331741189
H            5.73181224647004        3.58863094048480        3.38086332346710
H            6.82374899833865        1.37592936233704        3.47232330540868
H            5.79291111733795       -0.54776571405660        2.30556241547096
H            1.47281764034261       -0.01474632150854        0.98560820166609
H            2.24671953452439        0.11539345393744       -0.61843149950107
H            0.05009895713894       -2.03829925474937        1.31395832290059
H            0.13064557244739       -4.61222206726325        0.38777175559659
H            3.19210781401679       -2.40399956020328       -1.44077721318110
H            3.16524743884572       -5.22572512807679       -1.49366848203605
H            1.48866885850513       -5.81554951426957       -1.32242893042084
H            1.17734246788538       -4.18596413356260       -5.55622574803708
H            1.13797487246241       -5.86245127742997       -7.37629032471097
H            1.80485180911627       -8.19303948188102       -6.90598875884339
H            2.51595466671533       -8.83981639829531       -4.63904257792829
H            2.56000662534712       -7.19756292567542       -2.83671013673480

          :  Hamiltonian                  GFN2-xTB          :
         :: total energy             -62.925942328843 Eh    ::
         :: gradient norm              0.000557631379 Eh/a0 ::
         :: HOMO-LUMO gap              3.129033695042 eV    ::
         :: SCC energy               -63.940961614742 Eh    ::
         :: -> dispersion             -0.039895724588 Eh    ::
         :: repulsion energy           1.015019285900 Eh    ::

    * Orbital Energies and Occupations

         #    Occupation            Energy/Eh            Energy/eV
      -------------------------------------------------------------
         1        2.0000           -0.8698143             -23.6689
       ...           ...                  ...                  ...
        45        2.0000           -0.5859579             -15.9447
        46        2.0000           -0.5855138             -15.9326
        47        2.0000           -0.5635080             -15.3338
        48        2.0000           -0.5477118             -14.9040
        49        2.0000           -0.5465147             -14.8714
        50        2.0000           -0.5306138             -14.4387
        51        2.0000           -0.5302262             -14.4282
        52        2.0000           -0.5253442             -14.2953
        53        2.0000           -0.5219649             -14.2034
        54        2.0000           -0.5215363             -14.1917
        55        2.0000           -0.5182316             -14.1018
        56        2.0000           -0.5176951             -14.0872
        57        2.0000           -0.5173034             -14.0765 (HOMO)
        58                         -0.4023135             -10.9475 (LUMO)
        59                         -0.4017663             -10.9326
        60                         -0.3797356             -10.3331
        61                         -0.3495369              -9.5114
        62                         -0.3341560              -9.0928
        63                         -0.3337765              -9.0825
        64                         -0.3064531              -8.3390
        65                         -0.3060338              -8.3276
        66                         -0.1971451              -5.3646
        67                         -0.1967429              -5.3536
        68                         -0.1584944              -4.3129
       ...                                ...                  ...
       109                          0.5576024              15.1731
      -------------------------------------------------------------
                  HL-Gap            0.1149899 Eh            3.1290 eV

     #   Z          covCN         q      C6AA      α(0)
     1   8 O        0.857    -0.358    20.862     6.124
     2   6 C        2.823     0.227    23.227     7.897
     3   6 C        2.970    -0.017    28.423     8.745
     4   6 C        2.919    -0.027    28.668     8.780
     5   6 C        2.917    -0.019    28.485     8.752
     6   6 C        2.920    -0.007    28.200     8.708
     7   6 C        2.916    -0.018    28.456     8.748
     8   6 C        2.927    -0.009    28.250     8.716
     9   6 C        3.744    -0.050    21.549     6.622
    10   7 N        2.873     0.074    19.953     6.634
    11   6 C        3.066    -0.008    28.143     8.699
    12   6 C        3.066    -0.008    28.142     8.699
    13   7 N        2.873     0.075    19.943     6.633
    14   6 C        3.092     0.071    26.300     8.406
    15   6 C        3.744    -0.050    21.551     6.623
    16   6 C        2.823     0.228    23.226     7.897
    17   8 O        0.857    -0.358    20.860     6.123
    18   6 C        2.970    -0.017    28.427     8.746
    19   6 C        2.927    -0.009    28.251     8.717
    20   6 C        2.916    -0.018    28.458     8.748
    21   6 C        2.920    -0.007    28.202     8.709
    22   6 C        2.917    -0.019    28.486     8.752
    23   6 C        2.919    -0.027    28.671     8.781
    24   1 H        0.926     0.043     2.405     2.425
    25   1 H        0.926     0.061     2.185     2.311
    26   1 H        0.926     0.067     2.124     2.279
    27   1 H        0.926     0.065     2.141     2.288
    28   1 H        0.926     0.073     2.055     2.242
    29   1 H        0.925     0.099     1.790     2.092
    30   1 H        0.924     0.104     1.749     2.068
    31   1 H        0.926     0.100     1.784     2.089
    32   1 H        0.926     0.100     1.783     2.088
    33   1 H        0.926     0.127     1.554     1.949
    34   1 H        0.924     0.104     1.750     2.069
    35   1 H        0.925     0.100     1.789     2.092
    36   1 H        0.926     0.073     2.055     2.242
    37   1 H        0.926     0.065     2.142     2.289
    38   1 H        0.926     0.066     2.125     2.280
    39   1 H        0.926     0.061     2.187     2.313
    40   1 H        0.926     0.043     2.409     2.427

Wiberg/Mayer (AO) data.
largest (>0.10) Wiberg bond orders for each atom

     #   Z sym  total        # sym  WBO       # sym  WBO       # sym  WBO
 ---------------------------------------------------------------------------
     1   8 O    2.100 --     2 C    1.807
     2   6 C    3.929 --     1 O    1.807     3 C    1.079     9 C    0.922
     3   6 C    3.983 --     4 C    1.354     8 C    1.350     2 C    1.079
     4   6 C    3.991 --     5 C    1.472     3 C    1.354    24 H    0.967
                             7 C    0.102
     5   6 C    3.990 --     4 C    1.472     6 C    1.418    25 H    0.968
     6   6 C    3.985 --     7 C    1.427     5 C    1.418    26 H    0.968
     7   6 C    3.989 --     8 C    1.464     6 C    1.427    27 H    0.967
                             4 C    0.102
     8   6 C    3.984 --     7 C    1.464     3 C    1.350    28 H    0.964
     9   6 C    3.948 --    10 N    0.996    29 H    0.957    30 H    0.941
                             2 C    0.922
    10   7 N    3.707 --    14 C    1.346    11 C    1.209     9 C    0.996
    11   6 C    3.947 --    12 C    1.606    10 N    1.209    31 H    0.962
    12   6 C    3.947 --    11 C    1.606    13 N    1.209    32 H    0.962
    13   7 N    3.708 --    14 C    1.347    12 C    1.209    15 C    0.996
    14   6 C    3.943 --    13 N    1.347    10 N    1.346    33 H    0.952
    15   6 C    3.948 --    13 N    0.996    35 H    0.957    34 H    0.941
                            16 C    0.923
    16   6 C    3.929 --    17 O    1.808    18 C    1.078    15 C    0.923
    17   8 O    2.099 --    16 C    1.808
    18   6 C    3.983 --    23 C    1.354    19 C    1.350    16 C    1.078
    19   6 C    3.984 --    20 C    1.464    18 C    1.350    36 H    0.964
    20   6 C    3.989 --    19 C    1.464    21 C    1.427    37 H    0.967
                            23 C    0.102
    21   6 C    3.985 --    20 C    1.427    22 C    1.418    38 H    0.968
    22   6 C    3.990 --    23 C    1.472    21 C    1.418    39 H    0.968
    23   6 C    3.991 --    22 C    1.472    18 C    1.354    40 H    0.966
                            20 C    0.102
    24   1 H    0.998 --     4 C    0.967
    25   1 H    0.996 --     5 C    0.968
    26   1 H    0.995 --     6 C    0.968
    27   1 H    0.995 --     7 C    0.967
    28   1 H    0.995 --     8 C    0.964
    29   1 H    0.990 --     9 C    0.957
    30   1 H    0.988 --     9 C    0.941
    31   1 H    0.990 --    11 C    0.962
    32   1 H    0.990 --    12 C    0.962
    33   1 H    0.984 --    14 C    0.952
    34   1 H    0.988 --    15 C    0.941
    35   1 H    0.990 --    15 C    0.957
    36   1 H    0.995 --    19 C    0.964
    37   1 H    0.995 --    20 C    0.967
    38   1 H    0.995 --    21 C    0.968
    39   1 H    0.996 --    22 C    0.968
    40   1 H    0.998 --    23 C    0.966
 ---------------------------------------------------------------------------

molecular dipole:
                 x           y           z       tot (Debye)
 q only:        4.044      -5.162      -1.166
   full:        3.975      -5.181      -1.114      16.838

           -------------------------------------------------
          | TOTAL ENERGY              -62.925942328843 Eh   |
          | GRADIENT NORM               0.000557631379 Eh/α |
          | HOMO-LUMO GAP               3.129033695042 eV   |
           -------------------------------------------------

 * finished run on 2024/12/20 at 06:57:43.132
