   * xtb version 6.7.1 (edcfbbe) compiled by 'conda@3ef47c1a292c' on 2024-11-25

   ID    Z sym.   atoms
    1    7 N      1
    2    6 C      2, 3, 6-8
    3    8 O      4, 5
    4    1 H      9-20

          program call               : xtb C0789.xyz --opt --namespace C0789 --charge +1
          :  Hamiltonian                  GFN2-xTB          :
 * total energy  :   -27.4519131 Eh     change       -0.4100542E-10 Eh
 * total energy  :   -27.4563286 Eh     change       -0.4415564E-02 Eh
 * total energy  :   -27.4573516 Eh     change       -0.1022918E-02 Eh
 * total energy  :   -27.4576623 Eh     change       -0.3107449E-03 Eh
 * total energy  :   -27.4578007 Eh     change       -0.1383599E-03 Eh
 * total energy  :   -27.4579474 Eh     change       -0.1467300E-03 Eh
 * total energy  :   -27.4581959 Eh     change       -0.2484673E-03 Eh
 * total energy  :   -27.4584680 Eh     change       -0.2721408E-03 Eh
 * total energy  :   -27.4592374 Eh     change       -0.7694198E-03 Eh
 * total energy  :   -27.4597799 Eh     change       -0.5424285E-03 Eh
 * total energy  :   -27.4617048 Eh     change       -0.6656713E-04 Eh
 * total energy  :   -27.4617274 Eh     change       -0.2256982E-04 Eh
 * total energy  :   -27.4617525 Eh     change       -0.2506914E-04 Eh
 * total energy  :   -27.4617976 Eh     change       -0.4513978E-04 Eh
 * total energy  :   -27.4618193 Eh     change       -0.2166998E-04 Eh
 * total energy  :   -27.4618589 Eh     change       -0.3963087E-04 Eh
 * total energy  :   -27.4618663 Eh     change       -0.7328255E-05 Eh
 * total energy  :   -27.4618719 Eh     change       -0.5612810E-05 Eh
 * total energy  :   -27.4618740 Eh     change       -0.2094405E-05 Eh
   *** GEOMETRY OPTIMIZATION CONVERGED AFTER 28 ITERATIONS ***

 final structure:
================
20
 xtb: 6.7.1 (edcfbbe)
N            1.05148867645148       -2.22138992916827       -0.30783165547705
C            0.40620816534610       -0.93760357401218       -0.69480774571175
C            0.79748360852257        0.01969373214615        0.44956732130350
O            1.30274612412322       -0.45248328456389        1.43992261570482
O            0.52769245692090        1.27191559007675        0.23456516671398
C           -1.13602574379128       -1.07108834784555       -0.78984372070131
C           -1.69828930321821        0.13105686235175       -1.54445329162927
C           -1.53150981148233       -2.36439560788038       -1.50524899377621
H            1.88455811579522       -2.44546557569996       -0.85789915365836
H            0.37918446537868       -2.99744489169703       -0.36934195589504
H            1.34122990068017       -2.04037426376631        0.69928567100673
H            0.79429492623520       -0.56880765378972       -1.64669281480016
H            0.76345262711880        1.85043020011566        0.98288345103871
H           -1.55202940557436       -1.08492580083122        0.22268630767581
H           -1.37112136095102        0.11606419283517       -2.58077337866976
H           -2.78316687269993        0.09792857398019       -1.53085496532811
H           -1.38491516766233        1.06753429862267       -1.09506084985328
H           -1.39891103223247       -3.25629788769217       -0.89191845948514
H           -2.59089090153764       -2.31887417902392       -1.74216671863502
H           -0.99301946742264       -2.47793245415755       -2.44342682982345

          :  Hamiltonian                  GFN2-xTB          :
         :: total energy             -27.461873962287 Eh    ::
         :: gradient norm              0.000510984256 Eh/a0 ::
         :: HOMO-LUMO gap              4.687188077970 eV    ::
         :: SCC energy               -27.773189938337 Eh    ::
         :: -> dispersion             -0.012119700787 Eh    ::
         :: repulsion energy           0.311315976050 Eh    ::

    * Orbital Energies and Occupations

         #    Occupation            Energy/Eh            Energy/eV
      -------------------------------------------------------------
         1        2.0000           -0.9245999             -25.1596
       ...           ...                  ...                  ...
        12        2.0000           -0.7373939             -20.0655
        13        2.0000           -0.7213400             -19.6287
        14        2.0000           -0.7130508             -19.4031
        15        2.0000           -0.6773264             -18.4310
        16        2.0000           -0.6619561             -18.0127
        17        2.0000           -0.6562419             -17.8573
        18        2.0000           -0.6518106             -17.7367
        19        2.0000           -0.6351155             -17.2824
        20        2.0000           -0.6162069             -16.7678
        21        2.0000           -0.6088784             -16.5684
        22        2.0000           -0.6003293             -16.3358
        23        2.0000           -0.5898512             -16.0507
        24        2.0000           -0.5850531             -15.9201 (HOMO)
        25                         -0.4128021             -11.2329 (LUMO)
        26                         -0.2487545              -6.7690
        27                         -0.1611378              -4.3848
        28                         -0.1526131              -4.1528
        29                         -0.1229730              -3.3463
        30                         -0.0867947              -2.3618
        31                         -0.0660668              -1.7978
        32                         -0.0422089              -1.1486
        33                         -0.0180893              -0.4922
        34                         -0.0100386              -0.2732
        35                         -0.0048302              -0.1314
       ...                                ...                  ...
        44                          0.4564105              12.4196
      -------------------------------------------------------------
                  HL-Gap            0.1722510 Eh            4.6872 eV

     #   Z          covCN         q      C6AA      α(0)
     1   7 N        3.488    -0.167    24.607     7.367
     2   6 C        3.782    -0.014    20.838     6.503
     3   6 C        2.694     0.358    20.930     7.488
     4   8 O        0.857    -0.392    21.531     6.221
     5   8 O        1.659    -0.309    19.168     5.910
     6   6 C        3.849    -0.017    20.849     6.495
     7   6 C        3.757    -0.134    23.123     6.856
     8   6 C        3.755    -0.135    23.147     6.860
     9   1 H        0.859     0.264     0.829     1.427
    10   1 H        0.859     0.277     0.786     1.388
    11   1 H        0.855     0.303     0.705     1.316
    12   1 H        0.924     0.120     1.612     1.985
    13   1 H        0.804     0.374     0.536     1.150
    14   1 H        0.924     0.063     2.164     2.301
    15   1 H        0.925     0.064     2.151     2.293
    16   1 H        0.925     0.078     1.996     2.209
    17   1 H        0.925     0.070     2.090     2.261
    18   1 H        0.924     0.045     2.388     2.416
    19   1 H        0.925     0.091     1.865     2.136
    20   1 H        0.925     0.061     2.191     2.314

Wiberg/Mayer (AO) data.
largest (>0.10) Wiberg bond orders for each atom

     #   Z sym  total        # sym  WBO       # sym  WBO       # sym  WBO
 ---------------------------------------------------------------------------
     1   7 N    3.648 --     2 C    0.948     9 H    0.917    10 H    0.882
                            11 H    0.822
     2   6 C    3.913 --     6 C    0.950     1 N    0.948    12 H    0.947
                             3 C    0.938
     3   6 C    3.928 --     4 O    1.710     5 O    1.240     2 C    0.938
     4   8 O    2.096 --     3 C    1.710     5 O    0.187
     5   8 O    2.296 --     3 C    1.240    13 H    0.832     4 O    0.187
     6   6 C    3.974 --     7 C    1.006     8 C    1.004    14 H    0.966
                             2 C    0.950
     7   6 C    3.982 --     6 C    1.006    15 H    0.983    16 H    0.978
                            17 H    0.978
     8   6 C    3.987 --     6 C    1.004    20 H    0.984    19 H    0.972
                            18 H    0.968
     9   1 H    0.930 --     1 N    0.917
    10   1 H    0.923 --     1 N    0.882
    11   1 H    0.908 --     1 N    0.822
    12   1 H    0.986 --     2 C    0.947
    13   1 H    0.860 --     5 O    0.832
    14   1 H    0.996 --     6 C    0.966
    15   1 H    0.996 --     7 C    0.983
    16   1 H    0.994 --     7 C    0.978
    17   1 H    0.995 --     7 C    0.978
    18   1 H    0.998 --     8 C    0.968
    19   1 H    0.991 --     8 C    0.972
    20   1 H    0.996 --     8 C    0.984
 ---------------------------------------------------------------------------

molecular dipole:
                 x           y           z       tot (Debye)
 q only:        0.781      -2.767      -1.202
   full:        0.963      -2.823      -1.112       8.093

           -------------------------------------------------
          | TOTAL ENERGY              -27.461873962287 Eh   |
          | GRADIENT NORM               0.000510984256 Eh/α |
          | HOMO-LUMO GAP               4.687188077970 eV   |
           -------------------------------------------------

 * finished run on 2024/12/20 at 06:57:44.692
