   * xtb version 6.7.1 (edcfbbe) compiled by 'conda@3ef47c1a292c' on 2024-11-25

   ID    Z sym.   atoms
    1    6 C      1, 2, 4, 6-11
    2    8 O      3
    3    7 N      5
    4    1 H      12-23

          program call               : xtb C0782.xyz --opt --namespace C0782 --charge +1
          :  Hamiltonian                  GFN2-xTB          :
 * total energy  :   -31.9583011 Eh     change       -0.3936833E-09 Eh
 * total energy  :   -31.9632433 Eh     change       -0.4942246E-02 Eh
 * total energy  :   -31.9645399 Eh     change       -0.1296548E-02 Eh
 * total energy  :   -31.9649446 Eh     change       -0.4046823E-03 Eh
 * total energy  :   -31.9653064 Eh     change       -0.3618955E-03 Eh
 * total energy  :   -31.9655847 Eh     change       -0.2782157E-03 Eh
 * total energy  :   -31.9659892 Eh     change       -0.4045044E-03 Eh
 * total energy  :   -31.9664382 Eh     change       -0.4489909E-03 Eh
 * total energy  :   -31.9667350 Eh     change       -0.2968453E-03 Eh
 * total energy  :   -31.9668818 Eh     change       -0.1467884E-03 Eh
 * total energy  :   -31.9670215 Eh     change       -0.4031438E-04 Eh
 * total energy  :   -31.9670608 Eh     change       -0.3933132E-04 Eh
 * total energy  :   -31.9670770 Eh     change       -0.1622954E-04 Eh
 * total energy  :   -31.9671244 Eh     change       -0.4732548E-04 Eh
 * total energy  :   -31.9671688 Eh     change       -0.4442854E-04 Eh
 * total energy  :   -31.9671922 Eh     change       -0.2341736E-04 Eh
 * total energy  :   -31.9672039 Eh     change       -0.1168256E-04 Eh
 * total energy  :   -31.9672100 Eh     change       -0.6066731E-05 Eh
 * total energy  :   -31.9672137 Eh     change       -0.3773216E-05 Eh
   *** GEOMETRY OPTIMIZATION CONVERGED AFTER 21 ITERATIONS ***

 final structure:
================
23
 xtb: 6.7.1 (edcfbbe)
C            0.99483892371770        0.78266632758264       -1.26416921395862
C            0.31672917377191        1.28884104973664       -0.03921314989455
O           -0.86389493935679        1.31709615101969        0.15635840955269
C            1.29781991784465        1.80126375648776        1.05260621303690
N            0.59076275395415        2.01411145897926        2.29507253352420
C            0.61688823929931        1.03198258077579        3.21417654845076
C           -0.11702807702502        1.09926040916815        4.37143033080701
C           -0.91950170120838        2.21606701753812        4.58865760708237
C           -0.93809778184296        3.21338393309028        3.63331889583522
C           -0.18084218315093        3.10811622479616        2.46995145378175
C           -0.21255930808816        4.18192618514141        1.44596247708191
H            0.29986325305742        0.78568666014775       -2.10009199705578
H            1.30110435607615       -0.24958616719200       -1.09242609694035
H            1.88200670442730        1.36101473969009       -1.50570711853410
H            2.09146266794840        1.06572842682247        1.19417471243834
H            1.74944969418666        2.72992910804429        0.69761818754490
H            1.24474808604966        0.17967785136889        3.00080018320131
H           -0.06952792660231        0.29415847958404        5.08598377259311
H           -1.51629744708768        2.30002448527457        5.48284758799739
H           -1.55234477874129        4.08867438348646        3.77301858987915
H           -0.82799140923537        5.00730514245414        1.78992361929622
H            0.78424332309947        4.56913888102317        1.23592930703869
H           -0.63783154109400        3.81206291498174        0.51378714724213

          :  Hamiltonian                  GFN2-xTB          :
         :: total energy             -31.967213735764 Eh    ::
         :: gradient norm              0.000858642979 Eh/a0 ::
         :: HOMO-LUMO gap              2.919010655245 eV    ::
         :: SCC energy               -32.463853008231 Eh    ::
         :: -> dispersion             -0.017980015027 Eh    ::
         :: repulsion energy           0.496639272467 Eh    ::

    * Orbital Energies and Occupations

         #    Occupation            Energy/Eh            Energy/eV
      -------------------------------------------------------------
         1        2.0000           -0.8774317             -23.8761
       ...           ...                  ...                  ...
        17        2.0000           -0.6745753             -18.3561
        18        2.0000           -0.6612890             -17.9946
        19        2.0000           -0.6556695             -17.8417
        20        2.0000           -0.6527891             -17.7633
        21        2.0000           -0.6447207             -17.5437
        22        2.0000           -0.6315185             -17.1845
        23        2.0000           -0.6250736             -17.0091
        24        2.0000           -0.6164865             -16.7755
        25        2.0000           -0.6160132             -16.7626
        26        2.0000           -0.6092489             -16.5785
        27        2.0000           -0.6072520             -16.5242
        28        2.0000           -0.5919566             -16.1080
        29        2.0000           -0.5577361             -15.1768 (HOMO)
        30                         -0.4504644             -12.2578 (LUMO)
        31                         -0.4172250             -11.3533
        32                         -0.4040978             -10.9961
        33                         -0.2999370              -8.1617
        34                         -0.1736211              -4.7245
        35                         -0.0948849              -2.5819
        36                         -0.0866640              -2.3582
        37                         -0.0446540              -1.2151
        38                         -0.0417694              -1.1366
        39                         -0.0369241              -1.0048
        40                         -0.0063685              -0.1733
       ...                                ...                  ...
        56                          0.5025124              13.6741
      -------------------------------------------------------------
                  HL-Gap            0.1072717 Eh            2.9190 eV

     #   Z          covCN         q      C6AA      α(0)
     1   6 C        3.754    -0.156    23.589     6.925
     2   6 C        2.807     0.247    22.858     7.833
     3   8 O        0.857    -0.321    20.173     6.022
     4   6 C        3.760    -0.065    21.786     6.654
     5   7 N        2.752     0.097    19.563     6.569
     6   6 C        2.889     0.030    27.321     8.570
     7   6 C        2.915    -0.015    28.378     8.736
     8   6 C        2.922     0.012    27.751     8.639
     9   6 C        2.922    -0.022    28.555     8.763
    10   6 C        2.926     0.100    25.792     8.329
    11   6 C        3.758    -0.139    23.220     6.870
    12   1 H        0.925     0.108     1.714     2.047
    13   1 H        0.924     0.109     1.709     2.044
    14   1 H        0.925     0.086     1.915     2.164
    15   1 H        0.924     0.105     1.743     2.065
    16   1 H        0.924     0.112     1.677     2.025
    17   1 H        0.926     0.100     1.785     2.089
    18   1 H        0.926     0.105     1.736     2.061
    19   1 H        0.926     0.105     1.741     2.063
    20   1 H        0.926     0.104     1.752     2.070
    21   1 H        0.925     0.097     1.811     2.104
    22   1 H        0.925     0.091     1.867     2.137
    23   1 H        0.925     0.109     1.705     2.042

Wiberg/Mayer (AO) data.
largest (>0.10) Wiberg bond orders for each atom

     #   Z sym  total        # sym  WBO       # sym  WBO       # sym  WBO
 ---------------------------------------------------------------------------
     1   6 C    3.981 --     2 C    1.028    14 H    0.966    12 H    0.966
                            13 H    0.931
     2   6 C    3.924 --     3 O    1.892     1 C    1.028     4 C    0.920
     3   8 O    2.126 --     2 C    1.892
     4   6 C    3.947 --     5 N    0.990    15 H    0.952    16 H    0.937
                             2 C    0.920
     5   7 N    3.747 --     6 C    1.294    10 C    1.286     4 C    0.990
     6   6 C    3.959 --     7 C    1.497     5 N    1.294    17 H    0.955
                             9 C    0.101
     7   6 C    3.983 --     6 C    1.497     8 C    1.385    18 H    0.959
     8   6 C    3.969 --     9 C    1.462     7 C    1.385    19 H    0.961
     9   6 C    3.983 --     8 C    1.462    10 C    1.393    20 H    0.959
                             6 C    0.101
    10   6 C    3.956 --     9 C    1.393     5 N    1.286    11 C    1.053
    11   6 C    3.979 --    10 C    1.053    21 H    0.974    22 H    0.946
                            23 H    0.942
    12   1 H    0.987 --     1 C    0.966
    13   1 H    0.988 --     1 C    0.931
    14   1 H    0.993 --     1 C    0.966
    15   1 H    0.989 --     4 C    0.952
    16   1 H    0.987 --     4 C    0.937
    17   1 H    0.990 --     6 C    0.955
    18   1 H    0.988 --     7 C    0.959
    19   1 H    0.989 --     8 C    0.961
    20   1 H    0.989 --     9 C    0.959
    21   1 H    0.990 --    11 C    0.974
    22   1 H    0.992 --    11 C    0.946
    23   1 H    0.988 --    11 C    0.942
 ---------------------------------------------------------------------------

molecular dipole:
                 x           y           z       tot (Debye)
 q only:        1.296       4.120       4.195
   full:        1.520       4.049       4.222      15.362

           -------------------------------------------------
          | TOTAL ENERGY              -31.967213735764 Eh   |
          | GRADIENT NORM               0.000858642979 Eh/α |
          | HOMO-LUMO GAP               2.919010655245 eV   |
           -------------------------------------------------

 * finished run on 2024/12/20 at 06:57:30.781
