   * xtb version 6.7.1 (edcfbbe) compiled by 'conda@3ef47c1a292c' on 2024-11-25

   ID    Z sym.   atoms
    1    6 C      1, 2, 4-10
    2    7 N      3
    3    1 H      11-28

          program call               : xtb C0794.xyz --opt --namespace C0794 --charge +1
          :  Hamiltonian                  GFN2-xTB          :
 * total energy  :   -30.8688797 Eh     change       -0.6567689E-09 Eh
 * total energy  :   -30.8959103 Eh     change       -0.2703054E-01 Eh
 * total energy  :   -30.8999018 Eh     change       -0.3991511E-02 Eh
 * total energy  :   -30.9003055 Eh     change       -0.4037389E-03 Eh
 * total energy  :   -30.9003509 Eh     change       -0.4538138E-04 Eh
 * total energy  :   -30.9003943 Eh     change       -0.4335935E-04 Eh
 * total energy  :   -30.9004193 Eh     change       -0.2501340E-04 Eh
 * total energy  :   -30.9004654 Eh     change       -0.4607092E-04 Eh
 * total energy  :   -30.9004862 Eh     change       -0.2085556E-04 Eh
 * total energy  :   -30.9005051 Eh     change       -0.1887488E-04 Eh
 * total energy  :   -30.9005127 Eh     change       -0.7608714E-05 Eh
 * total energy  :   -30.9005189 Eh     change       -0.6220329E-05 Eh
 * total energy  :   -30.9005232 Eh     change       -0.4291852E-05 Eh
   *** GEOMETRY OPTIMIZATION CONVERGED AFTER 13 ITERATIONS ***

 final structure:
================
28
 xtb: 6.7.1 (edcfbbe)
C            0.68500422963183        0.16420538893182       -0.04992434768778
C            0.50266156568849       -0.85086895498822       -1.17028336813046
N            1.00418066765824       -2.22354391406977       -0.86538643077342
C            0.41123843592278       -2.69867981261945        0.42665747346929
C           -1.03868791944922       -2.67845302911976        0.42225614171752
C           -2.23513835746652       -2.65839997131046        0.44782958531762
C            0.52590062512369       -3.18037678763403       -1.91669582019128
C            1.00944011260962       -2.95329262508511       -3.33843544561248
C            2.49728721268922       -2.27401139679270       -0.71408955495365
C            3.32342074037541       -1.35267725368782       -1.60170190736228
H           -0.00761690348136       -0.00736497165236        0.76933482848504
H            0.46774657090053        1.15039642839714       -0.45236957342019
H            1.69971088142320        0.18435021924853        0.33688593869948
H           -0.56278868506972       -0.93817624497964       -1.39311067795920
H            1.01445050358337       -0.50392625736479       -2.06608630335318
H            0.75654518167212       -3.72038693662072        0.61215924310994
H            0.76912548722136       -2.06305827340714        1.23996782586325
H           -3.28507270898863       -2.65066903863834        0.47977947187906
H            0.82772784268938       -4.18253582949441       -1.60255597278074
H           -0.56601643100556       -3.14129543543274       -1.89805160038736
H            2.07314525738581       -3.13996009305079       -3.44619120130530
H            0.49206949183194       -3.66833285823220       -3.97406452810934
H            0.77101755135792       -1.96124351404009       -3.70909562706559
H            2.73502913581170       -2.03185762773251        0.32379630896283
H            2.79824635481981       -3.30903739266350       -0.88831511838129
H            3.19145789178359       -0.30583665024312       -1.34566931006948
H            4.36968723340349       -1.59720721013881       -1.43117038549618
H            3.12682803187773       -1.48300995757888       -2.65961964446503

          :  Hamiltonian                  GFN2-xTB          :
         :: total energy             -30.900523220444 Eh    ::
         :: gradient norm              0.000499934048 Eh/a0 ::
         :: HOMO-LUMO gap              6.510116474804 eV    ::
         :: SCC energy               -31.423210223440 Eh    ::
         :: -> dispersion             -0.021425998273 Eh    ::
         :: repulsion energy           0.522687002996 Eh    ::

    * Orbital Energies and Occupations

         #    Occupation            Energy/Eh            Energy/eV
      -------------------------------------------------------------
         1        2.0000           -0.8582514             -23.3542
       ...           ...                  ...                  ...
        17        2.0000           -0.6524875             -17.7551
        18        2.0000           -0.6383120             -17.3694
        19        2.0000           -0.6335776             -17.2405
        20        2.0000           -0.6279260             -17.0867
        21        2.0000           -0.6232540             -16.9596
        22        2.0000           -0.6217383             -16.9184
        23        2.0000           -0.6123238             -16.6622
        24        2.0000           -0.6080775             -16.5466
        25        2.0000           -0.6005452             -16.3417
        26        2.0000           -0.5955589             -16.2060
        27        2.0000           -0.5909588             -16.0808
        28        2.0000           -0.5715206             -15.5519
        29        2.0000           -0.5644118             -15.3584 (HOMO)
        30                         -0.3251695              -8.8483 (LUMO)
        31                         -0.3032540              -8.2520
        32                         -0.2284980              -6.2177
        33                         -0.1712459              -4.6598
        34                         -0.1595075              -4.3404
        35                         -0.1462234              -3.9789
        36                         -0.0829564              -2.2574
        37                         -0.0507494              -1.3810
        38                         -0.0468873              -1.2759
        39                         -0.0409849              -1.1153
        40                         -0.0328980              -0.8952
       ...                                ...                  ...
        58                          1.2788488              34.7992
      -------------------------------------------------------------
                  HL-Gap            0.2392424 Eh            6.5101 eV

     #   Z          covCN         q      C6AA      α(0)
     1   6 C        3.751    -0.127    22.998     6.839
     2   6 C        3.751    -0.029    21.159     6.560
     3   7 N        3.619     0.106    19.419     6.545
     4   6 C        3.772    -0.018    20.924     6.518
     5   6 C        1.962    -0.029    31.849     9.114
     6   6 C        1.909    -0.072    33.056     9.285
     7   6 C        3.760    -0.029    21.132     6.553
     8   6 C        3.751    -0.128    23.011     6.841
     9   6 C        3.751    -0.028    21.129     6.555
    10   6 C        3.751    -0.129    23.043     6.846
    11   1 H        0.925     0.067     2.119     2.276
    12   1 H        0.925     0.081     1.967     2.193
    13   1 H        0.925     0.064     2.154     2.295
    14   1 H        0.924     0.085     1.929     2.172
    15   1 H        0.925     0.091     1.865     2.136
    16   1 H        0.924     0.096     1.821     2.110
    17   1 H        0.924     0.106     1.730     2.057
    18   1 H        0.928     0.126     1.566     1.957
    19   1 H        0.924     0.079     1.989     2.205
    20   1 H        0.924     0.086     1.920     2.167
    21   1 H        0.925     0.070     2.090     2.261
    22   1 H        0.925     0.084     1.936     2.176
    23   1 H        0.925     0.065     2.146     2.291
    24   1 H        0.924     0.081     1.971     2.196
    25   1 H        0.924     0.081     1.973     2.197
    26   1 H        0.925     0.070     2.091     2.261
    27   1 H        0.925     0.082     1.961     2.190
    28   1 H        0.925     0.070     2.090     2.261

Wiberg/Mayer (AO) data.
largest (>0.10) Wiberg bond orders for each atom

     #   Z sym  total        # sym  WBO       # sym  WBO       # sym  WBO
 ---------------------------------------------------------------------------
     1   6 C    3.983 --     2 C    1.021    11 H    0.982    13 H    0.979
                            12 H    0.974
     2   6 C    3.933 --     1 C    1.021    14 H    0.965    15 H    0.962
                             3 N    0.930
     3   7 N    3.799 --     2 C    0.930     7 C    0.928     9 C    0.927
                             4 C    0.924
     4   6 C    3.943 --     5 C    1.048    16 H    0.949    17 H    0.943
                             3 N    0.924
     5   6 C    3.978 --     6 C    2.896     4 C    1.048
     6   6 C    3.964 --     5 C    2.896    18 H    0.961
     7   6 C    3.934 --     8 C    1.023    19 H    0.967    20 H    0.963
                             3 N    0.928
     8   6 C    3.982 --     7 C    1.023    23 H    0.980    21 H    0.979
                            22 H    0.972
     9   6 C    3.936 --    10 C    1.022    25 H    0.969    24 H    0.967
                             3 N    0.927
    10   6 C    3.980 --     9 C    1.022    26 H    0.980    28 H    0.976
                            27 H    0.972
    11   1 H    0.996 --     1 C    0.982
    12   1 H    0.993 --     1 C    0.974
    13   1 H    0.996 --     1 C    0.979
    14   1 H    0.993 --     2 C    0.965
    15   1 H    0.992 --     2 C    0.962
    16   1 H    0.991 --     4 C    0.949
    17   1 H    0.988 --     4 C    0.943
    18   1 H    0.984 --     6 C    0.961
    19   1 H    0.993 --     7 C    0.967
    20   1 H    0.993 --     7 C    0.963
    21   1 H    0.995 --     8 C    0.979
    22   1 H    0.992 --     8 C    0.972
    23   1 H    0.996 --     8 C    0.980
    24   1 H    0.993 --     9 C    0.967
    25   1 H    0.994 --     9 C    0.969
    26   1 H    0.995 --    10 C    0.980
    27   1 H    0.993 --    10 C    0.972
    28   1 H    0.995 --    10 C    0.976
 ---------------------------------------------------------------------------

molecular dipole:
                 x           y           z       tot (Debye)
 q only:        1.837      -3.933      -1.814
   full:        1.838      -4.033      -1.744      12.106

           -------------------------------------------------
          | TOTAL ENERGY              -30.900523220444 Eh   |
          | GRADIENT NORM               0.000499934048 Eh/α |
          | HOMO-LUMO GAP               6.510116474804 eV   |
           -------------------------------------------------

 * finished run on 2024/12/20 at 06:58:03.555
