   * xtb version 6.7.1 (edcfbbe) compiled by 'conda@3ef47c1a292c' on 2024-11-25

   ID    Z sym.   atoms
    1    6 C      1, 3, 5-8, 12-20
    2    7 N      2, 4, 9-11
    3    1 H      21-38

          program call               : xtb C0797.xyz --opt --namespace C0797 --charge +1
          :  Hamiltonian                  GFN2-xTB          :
 * total energy  :   -55.5285932 Eh     change       -0.6401848E-09 Eh
 * total energy  :   -55.5366954 Eh     change       -0.8102261E-02 Eh
 * total energy  :   -55.5380180 Eh     change       -0.1322586E-02 Eh
 * total energy  :   -55.5381785 Eh     change       -0.1604435E-03 Eh
 * total energy  :   -55.5383235 Eh     change       -0.1449800E-03 Eh
 * total energy  :   -55.5383949 Eh     change       -0.7145269E-04 Eh
 * total energy  :   -55.5385104 Eh     change       -0.1155054E-03 Eh
 * total energy  :   -55.5386780 Eh     change       -0.1675813E-03 Eh
 * total energy  :   -55.5388790 Eh     change       -0.2009946E-03 Eh
 * total energy  :   -55.5391001 Eh     change       -0.2210755E-03 Eh
 * total energy  :   -55.5442900 Eh     change        0.5374520E-05 Eh
 * total energy  :   -55.5443204 Eh     change       -0.3034323E-04 Eh
 * total energy  :   -55.5443326 Eh     change       -0.1225519E-04 Eh
 * total energy  :   -55.5443424 Eh     change       -0.9799280E-05 Eh
 * total energy  :   -55.5443589 Eh     change       -0.1650943E-04 Eh
 * total energy  :   -55.5443684 Eh     change       -0.9495868E-05 Eh
 * total energy  :   -55.5443755 Eh     change       -0.7100315E-05 Eh
 * total energy  :   -55.5443819 Eh     change       -0.6410787E-05 Eh
 * total energy  :   -55.5443868 Eh     change       -0.4894401E-05 Eh
   *** GEOMETRY OPTIMIZATION CONVERGED AFTER 101 ITERATIONS ***

 final structure:
================
38
 xtb: 6.7.1 (edcfbbe)
C            1.66289191144034        1.10023997812026       -0.15132679710370
N            0.86984026029884        1.59913147899312        0.94236682747299
C            0.40101566880940        0.88187282318853        1.97062909792540
N           -0.28562362212385        1.70587372725611        2.77263173852687
C           -0.25891882509998        2.96201065354967        2.23848328391719
C            0.46740742204926        2.89609414893604        1.09432013681392
C           -1.01190469280486        1.31700591990546        3.96614499201442
C           -2.31243842605661        0.67233684433776        3.60512002701623
N           -2.36003264571267       -0.46279908477074        2.87070465365304
N           -3.58196175080415       -0.80103330736945        2.70293390929225
N           -4.35909718790985        0.07681429572234        3.30337931032877
C           -3.61354145660271        1.03645032072664        3.88846041225852
C           -5.79742498359238       -0.04320498953357        3.28744006956050
C           -6.36929841999748        0.24945094438722        4.65089006203178
C           -6.09777213766068       -0.60724948880495        5.71133194900601
C           -6.59688966049490       -0.33422237702014        6.97204826691714
C           -7.37137948375997        0.79507659593433        7.18253785737047
C           -7.64519090050912        1.65096112748760        6.12963525378594
C           -7.14218235055382        1.38161510098929        4.86806077624154
C            0.57794325414946       -0.56234550422233        2.19123277368364
H            1.91176249294223        1.92518098318685       -0.81458460838256
H            1.10638401852990        0.35110452303629       -0.71585582190507
H            2.58689562224449        0.65442122966007        0.21776169502651
H           -0.74338542243470        3.79490606449443        2.70422876874775
H            0.72088152352015        3.66302404562593        0.39224713252199
H           -0.39787184239958        0.61393454677731        4.53630364637282
H           -1.19327242255344        2.20759510879477        4.56922223612902
H           -4.03557830196828        1.84551546476680        4.44480358945619
H           -6.20481029307039        0.65005405142736        2.54411810495761
H           -6.01724150820324       -1.06580355523072        2.96994186476886
H           -5.49915849641344       -1.49148388980544        5.54455084571037
H           -6.38569640393093       -1.00595358611571        7.78977401296956
H           -7.76395809775062        1.00524295563506        8.16528969099056
H           -8.25138801624510        2.52960038184472        6.28808931819380
H           -7.36056647162693        2.04992286436095        4.04718992754196
H            1.18148889946915       -0.74622045564074        3.08009638213751
H           -0.40644623603465       -1.01483812827980        2.35393887948882
H            1.05883898282972       -1.03409181234238        1.34142973455741

          :  Hamiltonian                  GFN2-xTB          :
         :: total energy             -55.544386834462 Eh    ::
         :: gradient norm              0.000326108493 Eh/a0 ::
         :: HOMO-LUMO gap              2.942013704152 eV    ::
         :: SCC energy               -56.409645675866 Eh    ::
         :: -> dispersion             -0.036831001995 Eh    ::
         :: repulsion energy           0.865258841404 Eh    ::

    * Orbital Energies and Occupations

         #    Occupation            Energy/Eh            Energy/eV
      -------------------------------------------------------------
         1        2.0000           -0.8759478             -23.8358
       ...           ...                  ...                  ...
        39        2.0000           -0.5730002             -15.5921
        40        2.0000           -0.5691966             -15.4886
        41        2.0000           -0.5635124             -15.3340
        42        2.0000           -0.5608497             -15.2615
        43        2.0000           -0.5570392             -15.1578
        44        2.0000           -0.5445588             -14.8182
        45        2.0000           -0.5304898             -14.4354
        46        2.0000           -0.5268881             -14.3374
        47        2.0000           -0.5126987             -13.9512
        48        2.0000           -0.5081285             -13.8269
        49        2.0000           -0.5001199             -13.6090
        50        2.0000           -0.4920117             -13.3883
        51        2.0000           -0.4899116             -13.3312 (HOMO)
        52                         -0.3817946             -10.3892 (LUMO)
        53                         -0.3521080              -9.5813
        54                         -0.3457937              -9.4095
        55                         -0.3150441              -8.5728
        56                         -0.3105645              -8.4509
        57                         -0.3098017              -8.4301
        58                         -0.1857394              -5.0542
        59                         -0.1683136              -4.5800
        60                         -0.1169447              -3.1822
        61                         -0.0946933              -2.5767
        62                         -0.0484734              -1.3190
       ...                                ...                  ...
        98                          0.5765935              15.6899
      -------------------------------------------------------------
                  HL-Gap            0.1081170 Eh            2.9420 eV

     #   Z          covCN         q      C6AA      α(0)
     1   6 C        3.692    -0.079    22.211     6.744
     2   7 N        2.871     0.047    20.418     6.711
     3   6 C        3.097     0.114    25.378     8.256
     4   7 N        2.878     0.037    20.589     6.739
     5   6 C        3.045    -0.011    28.250     8.717
     6   6 C        3.049    -0.012    28.276     8.721
     7   6 C        3.744    -0.021    21.020     6.540
     8   6 C        3.119     0.040    26.932     8.500
     9   7 N        2.070    -0.198    25.991     7.563
    10   7 N        2.181    -0.109    23.839     7.246
    11   7 N        3.026     0.105    19.426     6.546
    12   6 C        2.981    -0.024    28.597     8.772
    13   6 C        3.747    -0.024    21.068     6.547
    14   6 C        2.973     0.000    28.016     8.682
    15   6 C        2.923    -0.036    28.888     8.814
    16   6 C        2.919    -0.025    28.623     8.773
    17   6 C        2.920    -0.024    28.609     8.771
    18   6 C        2.919    -0.025    28.631     8.775
    19   6 C        2.923    -0.037    28.909     8.817
    20   6 C        3.754    -0.153    23.520     6.915
    21   1 H        0.925     0.100     1.783     2.088
    22   1 H        0.924     0.098     1.805     2.101
    23   1 H        0.924     0.096     1.819     2.109
    24   1 H        0.927     0.096     1.817     2.108
    25   1 H        0.927     0.100     1.789     2.092
    26   1 H        0.924     0.092     1.858     2.132
    27   1 H        0.924     0.083     1.951     2.185
    28   1 H        0.927     0.055     2.260     2.351
    29   1 H        0.924     0.071     2.076     2.253
    30   1 H        0.924     0.091     1.866     2.136
    31   1 H        0.926     0.038     2.473     2.459
    32   1 H        0.926     0.048     2.349     2.397
    33   1 H        0.926     0.050     2.324     2.384
    34   1 H        0.926     0.048     2.345     2.395
    35   1 H        0.926     0.037     2.495     2.470
    36   1 H        0.925     0.099     1.793     2.094
    37   1 H        0.924     0.139     1.467     1.894
    38   1 H        0.925     0.093     1.851     2.127

Wiberg/Mayer (AO) data.
largest (>0.10) Wiberg bond orders for each atom

     #   Z sym  total        # sym  WBO       # sym  WBO       # sym  WBO
 ---------------------------------------------------------------------------
     1   6 C    3.939 --     2 N    0.990    21 H    0.975    23 H    0.967
                            22 H    0.965
     2   7 N    3.693 --     3 C    1.325     6 C    1.204     1 C    0.990
     3   6 C    3.948 --     2 N    1.325     4 N    1.321    20 C    1.054
     4   7 N    3.688 --     3 C    1.321     5 C    1.207     7 C    0.964
     5   6 C    3.950 --     6 C    1.612     4 N    1.207    24 H    0.963
     6   6 C    3.948 --     5 C    1.612     2 N    1.204    25 H    0.962
     7   6 C    3.947 --     8 C    0.992    27 H    0.967     4 N    0.964
                            26 H    0.952
     8   6 C    3.969 --    12 C    1.477     9 N    1.341     7 C    0.992
     9   7 N    3.058 --    10 N    1.473     8 C    1.341    11 N    0.117
    10   7 N    3.011 --     9 N    1.473    11 N    1.271    12 C    0.128
    11   7 N    3.726 --    12 C    1.292    10 N    1.271    13 C    0.968
                             9 N    0.117
    12   6 C    3.960 --     8 C    1.477    11 N    1.292    28 H    0.967
                            10 N    0.128
    13   6 C    3.952 --    14 C    0.993    11 N    0.968    30 H    0.958
                            29 H    0.955
    14   6 C    3.983 --    19 C    1.419    15 C    1.411    13 C    0.993
                            17 C    0.110
    15   6 C    3.992 --    16 C    1.448    14 C    1.411    31 H    0.970
                            18 C    0.112
    16   6 C    3.991 --    15 C    1.448    17 C    1.436    32 H    0.970
                            19 C    0.111
    17   6 C    3.990 --    18 C    1.443    16 C    1.436    33 H    0.970
                            14 C    0.110
    18   6 C    3.991 --    17 C    1.443    19 C    1.439    34 H    0.970
                            15 C    0.112
    19   6 C    3.990 --    18 C    1.439    14 C    1.419    35 H    0.968
                            16 C    0.111
    20   6 C    3.968 --     3 C    1.054    38 H    0.972    36 H    0.944
                            37 H    0.920
    21   1 H    0.990 --     1 C    0.975
    22   1 H    0.990 --     1 C    0.965
    23   1 H    0.991 --     1 C    0.967
    24   1 H    0.990 --     5 C    0.963
    25   1 H    0.990 --     6 C    0.962
    26   1 H    0.991 --     7 C    0.952
    27   1 H    0.993 --     7 C    0.967
    28   1 H    0.997 --    12 C    0.967
    29   1 H    0.995 --    13 C    0.955
    30   1 H    0.991 --    13 C    0.958
    31   1 H    0.999 --    15 C    0.970
    32   1 H    0.997 --    16 C    0.970
    33   1 H    0.997 --    17 C    0.970
    34   1 H    0.997 --    18 C    0.970
    35   1 H    0.999 --    19 C    0.968
    36   1 H    0.990 --    20 C    0.944
    37   1 H    0.981 --    20 C    0.920
    38   1 H    0.991 --    20 C    0.972
 ---------------------------------------------------------------------------

molecular dipole:
                 x           y           z       tot (Debye)
 q only:       -1.491       2.627       4.463
   full:       -1.634       3.203       4.754      15.151

           -------------------------------------------------
          | TOTAL ENERGY              -55.544386834462 Eh   |
          | GRADIENT NORM               0.000326108493 Eh/α |
          | HOMO-LUMO GAP               2.942013704152 eV   |
           -------------------------------------------------

 * finished run on 2024/12/20 at 06:58:14.000
