   * xtb version 6.7.1 (edcfbbe) compiled by 'conda@3ef47c1a292c' on 2024-11-25

   ID    Z sym.   atoms
    1    8 O      1
    2    6 C      2-8, 10-12
    3    7 N      9
    4    1 H      13-26

          program call               : xtb C0799.xyz --opt --namespace C0799 --charge +1
          :  Hamiltonian                  GFN2-xTB          :
 * total energy  :   -35.0847519 Eh     change       -0.6996714E-10 Eh
 * total energy  :   -35.0915945 Eh     change       -0.6842616E-02 Eh
 * total energy  :   -35.0929199 Eh     change       -0.1325336E-02 Eh
 * total energy  :   -35.0929767 Eh     change       -0.5687098E-04 Eh
 * total energy  :   -35.0930123 Eh     change       -0.3558312E-04 Eh
 * total energy  :   -35.0930273 Eh     change       -0.1496325E-04 Eh
 * total energy  :   -35.0930529 Eh     change       -0.2563441E-04 Eh
 * total energy  :   -35.0930790 Eh     change       -0.2611681E-04 Eh
 * total energy  :   -35.0930996 Eh     change       -0.2058765E-04 Eh
 * total energy  :   -35.0931157 Eh     change       -0.1607036E-04 Eh
 * total energy  :   -35.0931274 Eh     change       -0.1170332E-04 Eh
 * total energy  :   -35.0931374 Eh     change       -0.1005214E-04 Eh
 * total energy  :   -35.0931477 Eh     change       -0.1022096E-04 Eh
 * total energy  :   -35.0931576 Eh     change       -0.9952268E-05 Eh
 * total energy  :   -35.0931659 Eh     change       -0.8278486E-05 Eh
 * total energy  :   -35.0931721 Eh     change       -0.6227582E-05 Eh
 * total energy  :   -35.0931770 Eh     change       -0.4867832E-05 Eh
   *** GEOMETRY OPTIMIZATION CONVERGED AFTER 17 ITERATIONS ***

 final structure:
================
26
 xtb: 6.7.1 (edcfbbe)
O            1.49095034494025       -0.89245214076649        0.04725417704865
C            2.37620674755935       -0.09307953975161        0.15035460792976
C            3.16516386249980        0.10540203194625        1.39380563104447
C            4.17241220385292        1.06140878616112        1.47082786314414
C            4.88863310265379        1.22616964991286        2.64154250632651
C            4.61373073192028        0.43344406866404        3.75262699964405
C            3.60855037683290       -0.52125035183323        3.68301144412500
C            2.89177577985552       -0.67873920277506        2.50934671737100
N            5.40885839194484        0.64920574369941        4.99180780425406
C            5.15915023271890        2.02162629152142        5.48298922061130
C            6.84521447744252        0.46891762958802        4.68809447455213
C            5.05750574742540       -0.29255515222270        6.07275764159987
H            2.67760425923345        0.56667894350712       -0.68222900100710
H            4.39836591834790        1.68026646830131        0.61624392796756
H            5.65814139807502        1.98139911693455        2.66361016327816
H            3.35575855607492       -1.15556983070287        4.51464046837007
H            2.10633782162949       -1.41638345778021        2.44319532060754
H            5.71344573033753        2.19398158702170        6.40413587489866
H            5.46836652672790        2.75977218584838        4.74729091067665
H            4.09583175902706        2.15284015444055        5.67837287259205
H            7.43393114383736        0.58773018383909        5.59623016519414
H            7.01195013134063       -0.52870012863592        4.28453763716275
H            7.18647916024042        1.19883140265071        3.95890832075535
H            4.01794196041265       -0.16696027599607        6.36865899411698
H            5.22909441340114       -1.31921830880702        5.75479377376877
H            5.68510922166801       -0.09249585476518        6.93998148396744

          :  Hamiltonian                  GFN2-xTB          :
         :: total energy             -35.093176991712 Eh    ::
         :: gradient norm              0.000221087780 Eh/a0 ::
         :: HOMO-LUMO gap              2.513426850528 eV    ::
         :: SCC energy               -35.634517067483 Eh    ::
         :: -> dispersion             -0.021666430543 Eh    ::
         :: repulsion energy           0.541340075771 Eh    ::

    * Orbital Energies and Occupations

         #    Occupation            Energy/Eh            Energy/eV
      -------------------------------------------------------------
         1        2.0000           -0.8754410             -23.8220
       ...           ...                  ...                  ...
        20        2.0000           -0.6576192             -17.8947
        21        2.0000           -0.6571299             -17.8814
        22        2.0000           -0.6536067             -17.7855
        23        2.0000           -0.6502832             -17.6951
        24        2.0000           -0.6416355             -17.4598
        25        2.0000           -0.6360899             -17.3089
        26        2.0000           -0.6356799             -17.2977
        27        2.0000           -0.6258591             -17.0305
        28        2.0000           -0.6076135             -16.5340
        29        2.0000           -0.5785478             -15.7431
        30        2.0000           -0.5714507             -15.5500
        31        2.0000           -0.5684279             -15.4677
        32        2.0000           -0.5156973             -14.0328 (HOMO)
        33                         -0.4233306             -11.5194 (LUMO)
        34                         -0.3875418             -10.5455
        35                         -0.3449165              -9.3857
        36                         -0.2436115              -6.6290
        37                         -0.2384488              -6.4885
        38                         -0.1689490              -4.5973
        39                         -0.1516639              -4.1270
        40                         -0.1369657              -3.7270
        41                         -0.0773141              -2.1038
        42                         -0.0290267              -0.7899
        43                         -0.0226785              -0.6171
       ...                                ...                  ...
        62                          0.5604530              15.2507
      -------------------------------------------------------------
                  HL-Gap            0.0923667 Eh            2.5134 eV

     #   Z          covCN         q      C6AA      α(0)
     1   8 O        0.857    -0.277    19.371     5.901
     2   6 C        2.764     0.207    23.600     7.956
     3   6 C        2.969     0.007    27.868     8.659
     4   6 C        2.922    -0.017    28.431     8.744
     5   6 C        2.920    -0.036    28.902     8.816
     6   6 C        2.931     0.036    27.205     8.554
     7   6 C        2.917    -0.038    28.950     8.823
     8   6 C        2.926    -0.007    28.204     8.709
     9   7 N        3.624     0.137    18.904     6.458
    10   6 C        3.725    -0.092    22.368     6.753
    11   6 C        3.724    -0.092    22.378     6.755
    12   6 C        3.725    -0.095    22.416     6.760
    13   1 H        0.923     0.045     2.390     2.418
    14   1 H        0.926     0.079     1.986     2.204
    15   1 H        0.926     0.062     2.176     2.307
    16   1 H        0.926     0.074     2.045     2.236
    17   1 H        0.926     0.101     1.775     2.083
    18   1 H        0.925     0.101     1.778     2.085
    19   1 H        0.925     0.101     1.777     2.085
    20   1 H        0.925     0.099     1.792     2.093
    21   1 H        0.925     0.101     1.780     2.087
    22   1 H        0.925     0.100     1.789     2.092
    23   1 H        0.925     0.101     1.775     2.084
    24   1 H        0.925     0.102     1.765     2.078
    25   1 H        0.925     0.102     1.764     2.077
    26   1 H        0.925     0.101     1.780     2.087

Wiberg/Mayer (AO) data.
largest (>0.10) Wiberg bond orders for each atom

     #   Z sym  total        # sym  WBO       # sym  WBO       # sym  WBO
 ---------------------------------------------------------------------------
     1   8 O    2.123 --     2 C    1.930
     2   6 C    3.923 --     1 O    1.930     3 C    1.018    13 H    0.930
     3   6 C    3.987 --     8 C    1.395     4 C    1.387     2 C    1.018
     4   6 C    3.986 --     5 C    1.454     3 C    1.387    14 H    0.963
                             7 C    0.104
     5   6 C    3.990 --     4 C    1.454     6 C    1.403    15 H    0.959
                             8 C    0.109
     6   6 C    3.927 --     7 C    1.421     5 C    1.403     9 N    0.908
     7   6 C    3.988 --     8 C    1.437     6 C    1.421    16 H    0.960
                             4 C    0.104
     8   6 C    3.980 --     7 C    1.437     3 C    1.395    17 H    0.959
                             5 C    0.109
     9   7 N    3.812 --    12 C    0.958    11 C    0.951    10 C    0.950
                             6 C    0.908
    10   6 C    3.925 --    20 H    0.976    18 H    0.973    19 H    0.973
                             9 N    0.950
    11   6 C    3.924 --    22 H    0.976    21 H    0.973    23 H    0.972
                             9 N    0.951
    12   6 C    3.925 --    25 H    0.974    24 H    0.973    26 H    0.972
                             9 N    0.958
    13   1 H    0.998 --     2 C    0.930
    14   1 H    0.993 --     4 C    0.963
    15   1 H    0.996 --     5 C    0.959
    16   1 H    0.994 --     7 C    0.960
    17   1 H    0.989 --     8 C    0.959
    18   1 H    0.989 --    10 C    0.973
    19   1 H    0.990 --    10 C    0.973
    20   1 H    0.990 --    10 C    0.976
    21   1 H    0.989 --    11 C    0.973
    22   1 H    0.990 --    11 C    0.976
    23   1 H    0.990 --    11 C    0.972
    24   1 H    0.990 --    12 C    0.973
    25   1 H    0.990 --    12 C    0.974
    26   1 H    0.989 --    12 C    0.972
 ---------------------------------------------------------------------------

molecular dipole:
                 x           y           z       tot (Debye)
 q only:       10.426       1.561       9.131
   full:       10.618       1.725       9.181      35.946

           -------------------------------------------------
          | TOTAL ENERGY              -35.093176991712 Eh   |
          | GRADIENT NORM               0.000221087780 Eh/α |
          | HOMO-LUMO GAP               2.513426850528 eV   |
           -------------------------------------------------

 * finished run on 2024/12/20 at 06:58:16.902
