   * xtb version 6.7.1 (edcfbbe) compiled by 'conda@3ef47c1a292c' on 2024-11-25

   ID    Z sym.   atoms
    1    6 C      1-12, 14, 17-29, 31
    2    7 N      13, 15, 16
    3    8 O      30
    4    1 H      32-71

          program call               : xtb C0790.xyz --opt --namespace C0790 --charge +1
          :  Hamiltonian                  GFN2-xTB          :
 * total energy  :   -90.7290622 Eh     change       -0.2660428E-08 Eh
 * total energy  :   -90.7353857 Eh     change       -0.6323472E-02 Eh
 * total energy  :   -90.7367653 Eh     change       -0.1379693E-02 Eh
 * total energy  :   -90.7372500 Eh     change       -0.4846999E-03 Eh
 * total energy  :   -90.7377790 Eh     change       -0.5289255E-03 Eh
 * total energy  :   -90.7381599 Eh     change       -0.3809330E-03 Eh
 * total energy  :   -90.7385313 Eh     change       -0.3713739E-03 Eh
 * total energy  :   -90.7388382 Eh     change       -0.3069434E-03 Eh
 * total energy  :   -90.7390801 Eh     change       -0.2418479E-03 Eh
 * total energy  :   -90.7393018 Eh     change       -0.2217292E-03 Eh
 * total energy  :   -90.7451999 Eh     change       -0.1223258E-04 Eh
 * total energy  :   -90.7452093 Eh     change       -0.9388880E-05 Eh
 * total energy  :   -90.7452182 Eh     change       -0.8884314E-05 Eh
 * total energy  :   -90.7452277 Eh     change       -0.9485586E-05 Eh
 * total energy  :   -90.7452371 Eh     change       -0.9396080E-05 Eh
 * total energy  :   -90.7452450 Eh     change       -0.7881584E-05 Eh
 * total energy  :   -90.7452513 Eh     change       -0.6283320E-05 Eh
 * total energy  :   -90.7452566 Eh     change       -0.5316036E-05 Eh
 * total energy  :   -90.7452614 Eh     change       -0.4828973E-05 Eh
   *** GEOMETRY OPTIMIZATION CONVERGED AFTER 86 ITERATIONS ***

 final structure:
================
71
 xtb: 6.7.1 (edcfbbe)
C            1.33098818509591       -1.08291570795855        0.33904076669640
C            1.08159073310928       -1.04727669586412        1.84209986494394
C            1.38422924731381        0.31318628923182        2.47196631316494
C            0.51302664703510        1.46598928146790        1.96901716097148
C           -0.98874153768782        1.29494531498282        2.20665809404658
C           -1.39917027602263        1.13294661805635        3.67205341127569
C           -0.97475276772576        2.27834193327175        4.59413877770773
C           -1.46262427896228        3.66484258185596        4.17008807885868
C           -2.98263596212402        3.82189115060888        4.08635534202803
C           -3.72214695632405        3.67975223917162        5.41929723232750
C           -3.42300876413324        4.79142543055530        6.42827109210121
C           -4.01392004537313        6.15002750237233        6.03485228181068
N           -5.44843447933025        6.20859579367016        6.22759354491806
C           -6.07072814518567        6.49636105982841        7.38429178424964
N           -5.45939291722532        6.79632956140609        8.53529718764079
N           -7.40374461508028        6.50070987359735        7.21492814806637
C           -7.66669992788915        6.19070799370008        5.88657885509636
C           -6.42490462831859        6.00340006725654        5.25933478420681
C           -6.34245373586269        5.68671682124471        3.91365477537454
C           -7.53237152783839        5.55705873461125        3.22082419279236
C           -8.76379954859185        5.73883967099878        3.84445429671037
C           -8.85430694215849        6.06032531614468        5.18655256559544
C           -8.38181850716233        6.86116419350344        8.22829495173853
C           -8.19178739264364        6.08486206623920        9.50644574049325
C           -7.87768341865064        6.73792265519413       10.69825589912151
C           -7.72489956288627        6.02736848536726       11.86813541519166
C           -7.88022109635970        4.63620313641953       11.88206664735705
C           -8.18127306296721        3.98050020213130       10.68752283146438
C           -8.33475389975539        4.70378103190603        9.51928664563342
O           -7.72016904303325        4.04069563811632       13.07662903507783
C           -7.92755262964458        2.64875986461104       13.19161490378761
H            0.63927563480811       -0.43305931054270       -0.19089025033105
H            1.20053125453557       -2.09384090238957       -0.03992855711560
H            2.34599466039010       -0.76245042757519        0.11459577218960
H            0.04780913651657       -1.33143515862609        2.04681843436467
H            1.72252291316310       -1.79082217103561        2.32191568392181
H            1.28206480877613        0.22767325345584        3.55595406185807
H            2.42739408211908        0.56554333465574        2.26531253462914
H            0.85367103893976        2.38568428805584        2.45003177124606
H            0.67384344214697        1.59130587445297        0.89674408235424
H           -1.50302586675193        2.15901073047200        1.77882323094875
H           -1.33899686288762        0.41771003225060        1.65986125837192
H           -2.48499769999699        1.01512003635498        3.71347579730489
H           -0.96691840405553        0.21018525957728        4.06264079643910
H           -1.32957023474632        2.05693991609618        5.60375704371119
H            0.11479036085905        2.30906653929637        4.64247291809460
H           -1.05423033912608        4.40201754038480        4.86573977952356
H           -1.04873450268975        3.89761818231947        3.18819909773915
H           -3.19338295564817        4.79932419514450        3.64480017126170
H           -3.37753972027472        3.07207981492863        3.40036548934261
H           -4.79813909673481        3.64711483973980        5.22910802678154
H           -3.44691911524327        2.72643164628604        5.87032339278948
H           -3.81598518354058        4.49950659258275        7.40581430668295
H           -2.34408775964008        4.90629268004332        6.52849117270968
H           -3.55635750717171        6.95157020466992        6.62172011839816
H           -3.81492340822885        6.35567814022649        4.98311886241239
H           -4.46899306391573        6.64926486518709        8.62650606980259
H           -6.01469357879706        6.83495044973177        9.38065401258317
H           -5.39732322730450        5.53949099466343        3.41911254931960
H           -7.50508982912062        5.30952093207749        2.17194969337761
H           -9.66790929527825        5.62876146689731        3.26773646509929
H           -9.81333751269779        6.20266375468657        5.65699595702309
H           -8.31252316896343        7.93648405204839        8.42464569649671
H           -9.36645297066695        6.65307562639989        7.80616653706158
H           -7.78426983346194        7.81505399546407       10.71578487362703
H           -7.49879559581425        6.52519426322964       12.79674922679800
H           -8.31165920524486        2.91104341679401       10.66206106468728
H           -8.58089442964724        4.18316253857273        8.60489474792438
H           -8.94327769299636        2.37144682421449       12.89667405076760
H           -7.20323253991123        2.08554716574242       12.59601358921114
H           -7.78316587506175        2.41884641944176       14.24523985037336

          :  Hamiltonian                  GFN2-xTB          :
         :: total energy             -90.745261398817 Eh    ::
         :: gradient norm              0.000201984387 Eh/a0 ::
         :: HOMO-LUMO gap              2.482151836788 eV    ::
         :: SCC energy               -92.152218179325 Eh    ::
         :: -> dispersion             -0.070930861719 Eh    ::
         :: repulsion energy           1.406956780508 Eh    ::

    * Orbital Energies and Occupations

         #    Occupation            Energy/Eh            Energy/eV
      -------------------------------------------------------------
         1        2.0000           -0.8640019             -23.5107
       ...           ...                  ...                  ...
        72        2.0000           -0.5196124             -14.1394
        73        2.0000           -0.5181958             -14.1008
        74        2.0000           -0.5154197             -14.0253
        75        2.0000           -0.5109811             -13.9045
        76        2.0000           -0.5069509             -13.7948
        77        2.0000           -0.5007745             -13.6268
        78        2.0000           -0.4905438             -13.3484
        79        2.0000           -0.4875681             -13.2674
        80        2.0000           -0.4836963             -13.1620
        81        2.0000           -0.4835257             -13.1574
        82        2.0000           -0.4705380             -12.8040
        83        2.0000           -0.4661264             -12.6839
        84        2.0000           -0.4640064             -12.6263 (HOMO)
        85                         -0.3727890             -10.1441 (LUMO)
        86                         -0.3413314              -9.2881
        87                         -0.3363420              -9.1523
        88                         -0.3310145              -9.0074
        89                         -0.3277116              -8.9175
        90                         -0.2157006              -5.8695
        91                         -0.2085972              -5.6762
        92                         -0.1709220              -4.6510
        93                         -0.1234301              -3.3587
        94                         -0.1156857              -3.1480
        95                         -0.0625220              -1.7013
       ...                                ...                  ...
       164                          0.5661519              15.4058
      -------------------------------------------------------------
                  HL-Gap            0.0912174 Eh            2.4822 eV

     #   Z          covCN         q      C6AA      α(0)
     1   6 C        3.751    -0.102    22.517     6.767
     2   6 C        3.799    -0.052    21.517     6.604
     3   6 C        3.800    -0.058    21.613     6.619
     4   6 C        3.800    -0.058    21.612     6.619
     5   6 C        3.800    -0.057    21.604     6.618
     6   6 C        3.800    -0.058    21.617     6.620
     7   6 C        3.800    -0.059    21.632     6.622
     8   6 C        3.800    -0.060    21.660     6.626
     9   6 C        3.800    -0.060    21.655     6.626
    10   6 C        3.800    -0.063    21.717     6.635
    11   6 C        3.800    -0.068    21.797     6.647
    12   6 C        3.739    -0.015    20.917     6.526
    13   7 N        2.817    -0.029    21.810     6.936
    14   6 C        3.000     0.196    23.832     8.008
    15   7 N        2.637    -0.251    26.536     7.651
    16   7 N        2.819    -0.030    21.825     6.939
    17   6 C        3.088     0.037    27.075     8.529
    18   6 C        3.088     0.039    27.025     8.521
    19   6 C        2.911    -0.037    28.932     8.820
    20   6 C        2.926    -0.025    28.621     8.773
    21   6 C        2.926    -0.024    28.604     8.771
    22   6 C        2.910    -0.037    28.929     8.820
    23   6 C        3.745    -0.018    20.960     6.531
    24   6 C        2.968    -0.023    28.582     8.769
    25   6 C        2.921    -0.048    29.188     8.860
    26   6 C        2.919    -0.054    29.351     8.884
    27   6 C        2.865     0.154    24.662     8.140
    28   6 C        2.916    -0.065    29.619     8.924
    29   6 C        2.922    -0.039    28.968     8.826
    30   8 O        1.706    -0.244    18.047     5.736
    31   6 C        3.644     0.027    20.457     6.501
    32   1 H        0.925     0.034     2.537     2.491
    33   1 H        0.925     0.034     2.537     2.491
    34   1 H        0.925     0.035     2.513     2.479
    35   1 H        0.924     0.029     2.595     2.519
    36   1 H        0.924     0.029     2.603     2.523
    37   1 H        0.924     0.027     2.626     2.534
    38   1 H        0.924     0.031     2.571     2.508
    39   1 H        0.924     0.026     2.637     2.539
    40   1 H        0.924     0.035     2.522     2.484
    41   1 H        0.924     0.024     2.672     2.556
    42   1 H        0.924     0.035     2.512     2.479
    43   1 H        0.924     0.024     2.681     2.560
    44   1 H        0.924     0.037     2.488     2.467
    45   1 H        0.924     0.024     2.676     2.558
    46   1 H        0.924     0.040     2.452     2.449
    47   1 H        0.924     0.024     2.672     2.556
    48   1 H        0.924     0.044     2.401     2.423
    49   1 H        0.924     0.020     2.733     2.585
    50   1 H        0.924     0.047     2.356     2.400
    51   1 H        0.924     0.029     2.602     2.523
    52   1 H        0.925     0.054     2.273     2.358
    53   1 H        0.924     0.034     2.534     2.489
    54   1 H        0.925     0.066     2.135     2.285
    55   1 H        0.924     0.059     2.209     2.324
    56   1 H        0.925     0.087     1.905     2.159
    57   1 H        0.860     0.215     1.032     1.592
    58   1 H        0.860     0.226     0.984     1.554
    59   1 H        0.926     0.067     2.122     2.278
    60   1 H        0.926     0.071     2.074     2.252
    61   1 H        0.926     0.071     2.074     2.252
    62   1 H        0.926     0.061     2.186     2.312
    63   1 H        0.924     0.070     2.083     2.257
    64   1 H        0.924     0.087     1.909     2.161
    65   1 H        0.925     0.044     2.394     2.419
    66   1 H        0.926     0.068     2.103     2.268
    67   1 H        0.926     0.054     2.274     2.358
    68   1 H        0.926     0.040     2.444     2.445
    69   1 H        0.924     0.053     2.282     2.362
    70   1 H        0.924     0.049     2.334     2.389
    71   1 H        0.925     0.080     1.981     2.201

Wiberg/Mayer (AO) data.
largest (>0.10) Wiberg bond orders for each atom

     #   Z sym  total        # sym  WBO       # sym  WBO       # sym  WBO
 ---------------------------------------------------------------------------
     1   6 C    3.997 --     2 C    1.020    34 H    0.988    33 H    0.987
                            32 H    0.986
     2   6 C    3.998 --     1 C    1.020     3 C    1.008    36 H    0.978
                            35 H    0.976
     3   6 C    3.997 --     2 C    1.008     4 C    1.008    38 H    0.977
                            37 H    0.976
     4   6 C    3.997 --     5 C    1.008     3 C    1.008    39 H    0.975
                            40 H    0.975
     5   6 C    3.997 --     4 C    1.008     6 C    1.008    41 H    0.975
                            42 H    0.974
     6   6 C    3.997 --     5 C    1.008     7 C    1.007    43 H    0.976
                            44 H    0.975
     7   6 C    3.997 --     8 C    1.008     6 C    1.007    45 H    0.975
                            46 H    0.974
     8   6 C    3.996 --     7 C    1.008     9 C    1.007    47 H    0.973
                            48 H    0.973
     9   6 C    3.996 --    10 C    1.008     8 C    1.007    50 H    0.972
                            49 H    0.970
    10   6 C    3.993 --     9 C    1.008    11 C    1.007    51 H    0.976
                            52 H    0.971
    11   6 C    3.988 --    10 C    1.007    12 C    0.991    53 H    0.976
                            54 H    0.966
    12   6 C    3.946 --    11 C    0.991    13 N    0.969    55 H    0.965
                            56 H    0.959
    13   7 N    3.599 --    14 C    1.266    18 C    1.090    12 C    0.969
    14   6 C    3.972 --    15 N    1.271    16 N    1.267    13 N    1.266
    15   7 N    3.353 --    14 C    1.271    57 H    0.929    58 H    0.902
    16   7 N    3.597 --    14 C    1.267    17 C    1.090    23 C    0.959
    17   6 C    3.949 --    22 C    1.367    18 C    1.284    16 N    1.090
    18   6 C    3.950 --    19 C    1.366    17 C    1.284    13 N    1.090
    19   6 C    3.986 --    20 C    1.465    18 C    1.366    59 H    0.960
                            22 C    0.114
    20   6 C    3.982 --    19 C    1.465    21 C    1.407    60 H    0.967
    21   6 C    3.982 --    22 C    1.465    20 C    1.407    61 H    0.967
    22   6 C    3.986 --    21 C    1.465    17 C    1.367    62 H    0.962
                            19 C    0.114
    23   6 C    3.946 --    24 C    0.995    63 H    0.960    16 N    0.959
                            64 H    0.957
    24   6 C    3.979 --    29 C    1.409    25 C    1.374    23 C    0.995
    25   6 C    3.990 --    26 C    1.478    24 C    1.374    65 H    0.965
    26   6 C    3.987 --    25 C    1.478    27 C    1.331    66 H    0.966
                            29 C    0.104
    27   6 C    3.940 --    28 C    1.352    26 C    1.331    30 O    1.109
    28   6 C    3.988 --    29 C    1.455    27 C    1.352    67 H    0.965
    29   6 C    3.992 --    28 C    1.455    24 C    1.409    68 H    0.969
                            26 C    0.104
    30   8 O    2.280 --    27 C    1.109    31 C    0.973
    31   6 C    3.933 --    71 H    0.978    70 H    0.976    69 H    0.976
                            30 O    0.973
    32   1 H    0.999 --     1 C    0.986
    33   1 H    0.999 --     1 C    0.987
    34   1 H    0.999 --     1 C    0.988
    35   1 H    0.999 --     2 C    0.976
    36   1 H    0.999 --     2 C    0.978
    37   1 H    0.999 --     3 C    0.976
    38   1 H    0.999 --     3 C    0.977
    39   1 H    0.999 --     4 C    0.975
    40   1 H    0.999 --     4 C    0.975
    41   1 H    0.999 --     5 C    0.975
    42   1 H    0.999 --     5 C    0.974
    43   1 H    0.999 --     6 C    0.976
    44   1 H    0.999 --     6 C    0.975
    45   1 H    0.999 --     7 C    0.975
    46   1 H    0.998 --     7 C    0.974
    47   1 H    0.999 --     8 C    0.973
    48   1 H    0.998 --     8 C    0.973
    49   1 H    1.000 --     9 C    0.970
    50   1 H    0.998 --     9 C    0.972
    51   1 H    0.999 --    10 C    0.976
    52   1 H    0.997 --    10 C    0.971
    53   1 H    0.999 --    11 C    0.976
    54   1 H    0.995 --    11 C    0.966
    55   1 H    0.996 --    12 C    0.965
    56   1 H    0.992 --    12 C    0.959
    57   1 H    0.953 --    15 N    0.929
    58   1 H    0.948 --    15 N    0.902
    59   1 H    0.995 --    19 C    0.960
    60   1 H    0.995 --    20 C    0.967
    61   1 H    0.995 --    21 C    0.967
    62   1 H    0.996 --    22 C    0.962
    63   1 H    0.994 --    23 C    0.960
    64   1 H    0.991 --    23 C    0.957
    65   1 H    0.997 --    25 C    0.965
    66   1 H    0.995 --    26 C    0.966
    67   1 H    0.997 --    28 C    0.965
    68   1 H    0.998 --    29 C    0.969
    69   1 H    0.997 --    31 C    0.976
    70   1 H    0.997 --    31 C    0.976
    71   1 H    0.993 --    31 C    0.978
 ---------------------------------------------------------------------------

molecular dipole:
                 x           y           z       tot (Debye)
 q only:      -11.634      10.635      13.734
   full:      -11.652      10.593      13.908      53.402

           -------------------------------------------------
          | TOTAL ENERGY              -90.745261398817 Eh   |
          | GRADIENT NORM               0.000201984387 Eh/α |
          | HOMO-LUMO GAP               2.482151836788 eV   |
           -------------------------------------------------

 * finished run on 2024/12/20 at 06:57:51.078
