   * xtb version 6.7.1 (edcfbbe) compiled by 'conda@3ef47c1a292c' on 2024-11-25

   ID    Z sym.   atoms
    1    6 C      1-4, 6-14
    2    7 N      5
    3    1 H      15-34

          program call               : xtb C0791.xyz --opt --namespace C0791 --charge +1
          :  Hamiltonian                  GFN2-xTB          :
 * total energy  :   -40.3217858 Eh     change       -0.7941026E-10 Eh
 * total energy  :   -40.3699683 Eh     change       -0.4818249E-01 Eh
 * total energy  :   -40.3761375 Eh     change       -0.6169201E-02 Eh
 * total energy  :   -40.3773888 Eh     change       -0.1251254E-02 Eh
 * total energy  :   -40.3779370 Eh     change       -0.5482648E-03 Eh
 * total energy  :   -40.3783045 Eh     change       -0.3675031E-03 Eh
 * total energy  :   -40.3785992 Eh     change       -0.2947070E-03 Eh
 * total energy  :   -40.3788642 Eh     change       -0.2649577E-03 Eh
 * total energy  :   -40.3790924 Eh     change       -0.2282287E-03 Eh
 * total energy  :   -40.3792464 Eh     change       -0.1539519E-03 Eh
 * total energy  :   -40.3797538 Eh     change       -0.5683147E-04 Eh
 * total energy  :   -40.3797892 Eh     change       -0.3545791E-04 Eh
 * total energy  :   -40.3797085 Eh     change        0.8073481E-04 Eh
 * total energy  :   -40.3798294 Eh     change       -0.1209200E-03 Eh
 * total energy  :   -40.3798519 Eh     change       -0.2244408E-04 Eh
 * total energy  :   -40.3798579 Eh     change       -0.6071225E-05 Eh
 * total energy  :   -40.3798665 Eh     change       -0.8573607E-05 Eh
 * total energy  :   -40.3798716 Eh     change       -0.5129620E-05 Eh
 * total energy  :   -40.3798734 Eh     change       -0.1770130E-05 Eh
   *** GEOMETRY OPTIMIZATION CONVERGED AFTER 32 ITERATIONS ***

 final structure:
================
34
 xtb: 6.7.1 (edcfbbe)
C            2.02707253097270       -0.27752421127346        0.83149115247711
C            1.28696623497855        0.46606567201619        1.93684450918232
C            1.20187833640739        1.97447147671635        1.68673217519781
C            0.39183302475936        2.44913093184918        0.47695488168172
N           -1.10214910581827        2.53367419006053        0.59725307461094
C           -1.52164300231885        3.10222567525451        1.91305576887681
C           -0.87068077410970        4.36536112686471        2.20295712166816
C           -0.34110939874945        5.41126379357082        2.44281863472179
C           -1.60263498538730        3.47396865346277       -0.45959229523276
C           -0.97236998705540        3.32523611899976       -1.75627394742525
C           -0.46482980717591        3.27049742834735       -2.83878020868301
C           -1.75846061208590        1.19845890174157        0.45692516830583
C           -1.46359531430953        0.47943825484634       -0.82600764988849
C           -1.02497525131743       -0.76550998468602       -0.86494703436829
H            1.50730541677718       -0.21437288904955       -0.12189681210561
H            2.12322117844228       -1.32794488822756        1.09142541865716
H            3.02670620839053        0.13051043296904        0.70690673251761
H            0.30106483277653        0.02317710139461        2.08480314313633
H            1.83490926826936        0.32720752910199        2.87050427281487
H            0.87924207039034        2.48595003222684        2.59336489851925
H            2.22083468600221        2.31902190312702        1.49445867024789
H            0.73139883897332        3.45903797967850        0.23810783950731
H            0.60017084623896        1.80773806802952       -0.38074140213599
H           -2.60587047374804        3.25638920076243        1.89360988026165
H           -1.29503483521084        2.38230473370507        2.70360740695981
H            0.11571361903909        6.32868174028764        2.67304515445612
H           -2.68323345212236        3.33639830237356       -0.56593184995893
H           -1.41471799237703        4.49504944552839       -0.10778433258973
H           -0.03160560918302        3.20955188939570       -3.79341631458393
H           -1.44872436161595        0.57619600668530        1.29754514204996
H           -2.84007949645320        1.35675107036678        0.53284789311886
H           -1.68861899376069        1.01134450591768       -1.73816056327472
H           -0.87308676398479       -1.27525328830280       -1.79951772923114
H           -0.81891687565304       -1.33588690372646        0.02564120050494

          :  Hamiltonian                  GFN2-xTB          :
         :: total energy             -40.379873411482 Eh    ::
         :: gradient norm              0.000738598752 Eh/a0 ::
         :: HOMO-LUMO gap              5.170006849641 eV    ::
         :: SCC energy               -41.144451647258 Eh    ::
         :: -> dispersion             -0.030991757831 Eh    ::
         :: repulsion energy           0.764578235776 Eh    ::

    * Orbital Energies and Occupations

         #    Occupation            Energy/Eh            Energy/eV
      -------------------------------------------------------------
         1        2.0000           -0.8571707             -23.3248
       ...           ...                  ...                  ...
        26        2.0000           -0.6161705             -16.7669
        27        2.0000           -0.6086156             -16.5613
        28        2.0000           -0.6018891             -16.3782
        29        2.0000           -0.5901678             -16.0593
        30        2.0000           -0.5770841             -15.7033
        31        2.0000           -0.5746397             -15.6367
        32        2.0000           -0.5679245             -15.4540
        33        2.0000           -0.5660014             -15.4017
        34        2.0000           -0.5621246             -15.2962
        35        2.0000           -0.5584161             -15.1953
        36        2.0000           -0.5563636             -15.1394
        37        2.0000           -0.5534479             -15.0601
        38        2.0000           -0.5466271             -14.8745 (HOMO)
        39                         -0.3566329              -9.7045 (LUMO)
        40                         -0.3274579              -8.9106
        41                         -0.3136974              -8.5361
        42                         -0.3049978              -8.2994
        43                         -0.2966921              -8.0734
        44                         -0.2108459              -5.7374
        45                         -0.1586722              -4.3177
        46                         -0.1483981              -4.0381
        47                         -0.1374959              -3.7415
        48                         -0.0818410              -2.2270
        49                         -0.0711525              -1.9362
       ...                                ...                  ...
        76                          1.2831180              34.9154
      -------------------------------------------------------------
                  HL-Gap            0.1899943 Eh            5.1700 eV

     #   Z          covCN         q      C6AA      α(0)
     1   6 C        3.752    -0.115    22.769     6.805
     2   6 C        3.799    -0.060    21.656     6.626
     3   6 C        3.800    -0.075    21.941     6.669
     4   6 C        3.748    -0.032    21.205     6.568
     5   7 N        3.621     0.113    19.298     6.524
     6   6 C        3.768    -0.013    20.851     6.508
     7   6 C        1.963    -0.030    31.856     9.115
     8   6 C        1.909    -0.071    33.039     9.283
     9   6 C        3.765    -0.014    20.862     6.510
    10   6 C        1.962    -0.028    31.821     9.110
    11   6 C        1.909    -0.073    33.086     9.290
    12   6 C        3.762    -0.028    21.110     6.550
    13   6 C        2.884    -0.046    29.133     8.849
    14   6 C        2.838    -0.078    29.929     8.965
    15   1 H        0.925     0.035     2.522     2.483
    16   1 H        0.925     0.055     2.260     2.351
    17   1 H        0.925     0.050     2.320     2.382
    18   1 H        0.924     0.030     2.590     2.517
    19   1 H        0.924     0.057     2.236     2.339
    20   1 H        0.925     0.056     2.244     2.343
    21   1 H        0.924     0.074     2.044     2.236
    22   1 H        0.924     0.081     1.965     2.192
    23   1 H        0.924     0.091     1.865     2.136
    24   1 H        0.924     0.095     1.834     2.118
    25   1 H        0.924     0.102     1.763     2.077
    26   1 H        0.928     0.125     1.571     1.960
    27   1 H        0.924     0.097     1.817     2.108
    28   1 H        0.924     0.103     1.754     2.071
    29   1 H        0.928     0.125     1.577     1.964
    30   1 H        0.924     0.087     1.906     2.159
    31   1 H        0.924     0.077     2.013     2.219
    32   1 H        0.926     0.063     2.167     2.302
    33   1 H        0.926     0.077     2.009     2.217
    34   1 H        0.926     0.069     2.094     2.263

Wiberg/Mayer (AO) data.
largest (>0.10) Wiberg bond orders for each atom

     #   Z sym  total        # sym  WBO       # sym  WBO       # sym  WBO
 ---------------------------------------------------------------------------
     1   6 C    3.993 --     2 C    1.021    17 H    0.986    16 H    0.985
                            15 H    0.981
     2   6 C    3.994 --     1 C    1.021     3 C    1.006    19 H    0.974
                            18 H    0.968
     3   6 C    3.984 --     2 C    1.006     4 C    1.006    20 H    0.968
                            21 H    0.963
     4   6 C    3.926 --     3 C    1.006    22 H    0.967    23 H    0.958
                             5 N    0.920
     5   7 N    3.802 --    12 C    0.928     6 C    0.927     9 C    0.922
                             4 C    0.920
     6   6 C    3.945 --     7 C    1.047    24 H    0.948    25 H    0.945
                             5 N    0.927
     7   6 C    3.978 --     8 C    2.895     6 C    1.047
     8   6 C    3.962 --     7 C    2.895    26 H    0.961
     9   6 C    3.942 --    10 C    1.050    27 H    0.948    28 H    0.941
                             5 N    0.922
    10   6 C    3.978 --    11 C    2.892     9 C    1.050
    11   6 C    3.963 --    10 C    2.892    29 H    0.962
    12   6 C    3.936 --    13 C    1.017    31 H    0.955    30 H    0.954
                             5 N    0.928
    13   6 C    3.981 --    14 C    1.976    12 C    1.017    32 H    0.957
    14   6 C    3.983 --    13 C    1.976    33 H    0.972    34 H    0.970
    15   1 H    0.999 --     1 C    0.981
    16   1 H    0.997 --     1 C    0.985
    17   1 H    0.997 --     1 C    0.986
    18   1 H    0.999 --     2 C    0.968
    19   1 H    0.996 --     2 C    0.974
    20   1 H    0.997 --     3 C    0.968
    21   1 H    0.994 --     3 C    0.963
    22   1 H    0.993 --     4 C    0.967
    23   1 H    0.992 --     4 C    0.958
    24   1 H    0.991 --     6 C    0.948
    25   1 H    0.989 --     6 C    0.945
    26   1 H    0.984 --     8 C    0.961
    27   1 H    0.990 --     9 C    0.948
    28   1 H    0.989 --     9 C    0.941
    29   1 H    0.984 --    11 C    0.962
    30   1 H    0.992 --    12 C    0.954
    31   1 H    0.994 --    12 C    0.955
    32   1 H    0.996 --    13 C    0.957
    33   1 H    0.993 --    14 C    0.972
    34   1 H    0.995 --    14 C    0.970
 ---------------------------------------------------------------------------

molecular dipole:
                 x           y           z       tot (Debye)
 q only:       -1.470       4.529       0.986
   full:       -1.638       4.606       1.046      12.707

           -------------------------------------------------
          | TOTAL ENERGY              -40.379873411482 Eh   |
          | GRADIENT NORM               0.000738598752 Eh/α |
          | HOMO-LUMO GAP               5.170006849641 eV   |
           -------------------------------------------------

 * finished run on 2024/12/20 at 06:57:52.109
