   * xtb version 6.7.1 (edcfbbe) compiled by 'conda@3ef47c1a292c' on 2024-11-25

   ID    Z sym.   atoms
    1    6 C      1, 2, 4
    2    7 N      3
    3    8 O      5, 6
    4    1 H      7-14

          program call               : xtb C0793.xyz --opt --namespace C0793 --charge +1
          :  Hamiltonian                  GFN2-xTB          :
 * total energy  :   -21.1148523 Eh     change       -0.1746159E-10 Eh
 * total energy  :   -21.1185001 Eh     change       -0.3647822E-02 Eh
 * total energy  :   -21.1193393 Eh     change       -0.8391362E-03 Eh
 * total energy  :   -21.1195451 Eh     change       -0.2057953E-03 Eh
 * total energy  :   -21.1195711 Eh     change       -0.2606378E-04 Eh
 * total energy  :   -21.1195797 Eh     change       -0.8561456E-05 Eh
 * total energy  :   -21.1195835 Eh     change       -0.3788975E-05 Eh
   *** GEOMETRY OPTIMIZATION CONVERGED AFTER 7 ITERATIONS ***

 final structure:
================
14
 xtb: 6.7.1 (edcfbbe)
C            1.04640554139473        0.92240601711441        2.37685633017557
C            0.41290519112918       -0.12582820567246        1.47579000276993
N            0.79886979787401        0.12241022269941        0.05000333293148
C           -1.12211047108999       -0.08608168720182        1.62319245720218
O           -1.68473453643524       -0.29881626937791        2.64541371379745
O           -1.69962931146333        0.22693401178928        0.46049905182467
H            2.13133684146224        0.85729951736343        2.35361158868280
H            0.72206304444509        0.75371109562700        3.40091345936494
H            0.73907074158317        1.92635631235395        2.09224185255023
H            0.75211356478468       -1.12488509281525        1.76670816407494
H            0.40289834347840        1.02470349472763       -0.25303092248052
H            1.82224805702811        0.15498973634373       -0.04554775978813
H            0.41676488310998       -0.60413534858735       -0.57032908411389
H           -2.66787168730103        0.26550619563594        0.54296781300834

          :  Hamiltonian                  GFN2-xTB          :
         :: total energy             -21.119583465116 Eh    ::
         :: gradient norm              0.000847939977 Eh/a0 ::
         :: HOMO-LUMO gap              5.185166107467 eV    ::
         :: SCC energy               -21.342831857311 Eh    ::
         :: -> dispersion             -0.006571487528 Eh    ::
         :: repulsion energy           0.223248392195 Eh    ::

    * Orbital Energies and Occupations

         #    Occupation            Energy/Eh            Energy/eV
      -------------------------------------------------------------
         1        2.0000           -0.9271907             -25.2301
       ...           ...                  ...                  ...
         6        2.0000           -0.8158410             -22.2002
         7        2.0000           -0.8004414             -21.7811
         8        2.0000           -0.7920438             -21.5526
         9        2.0000           -0.7667084             -20.8632
        10        2.0000           -0.7543508             -20.5269
        11        2.0000           -0.7509973             -20.4357
        12        2.0000           -0.7157097             -19.4755
        13        2.0000           -0.6854903             -18.6531
        14        2.0000           -0.6715854             -18.2748
        15        2.0000           -0.6504566             -17.6998
        16        2.0000           -0.6427206             -17.4893
        17        2.0000           -0.6397516             -17.4085
        18        2.0000           -0.5972282             -16.2514 (HOMO)
        19                         -0.4066769             -11.0662 (LUMO)
        20                         -0.2760175              -7.5108
        21                         -0.1711242              -4.6565
        22                         -0.1555977              -4.2340
        23                         -0.1112446              -3.0271
        24                         -0.1001077              -2.7241
        25                         -0.0421580              -1.1472
        26                         -0.0215734              -0.5870
        27                         -0.0044256              -0.1204
        28                          0.0166268               0.4524
        29                          0.0545410               1.4841
       ...                                ...                  ...
        32                          0.5216028              14.1935
      -------------------------------------------------------------
                  HL-Gap            0.1905513 Eh            5.1852 eV

     #   Z          covCN         q      C6AA      α(0)
     1   6 C        3.755    -0.145    23.349     6.890
     2   6 C        3.778    -0.002    20.635     6.472
     3   7 N        3.484    -0.134    23.904     7.262
     4   6 C        2.688     0.355    20.980     7.496
     5   8 O        0.856    -0.320    20.151     6.019
     6   8 O        1.659    -0.378    20.420     6.100
     7   1 H        0.925     0.087     1.908     2.160
     8   1 H        0.925     0.120     1.617     1.989
     9   1 H        0.925     0.082     1.959     2.189
    10   1 H        0.924     0.126     1.567     1.958
    11   1 H        0.859     0.287     0.755     1.361
    12   1 H        0.859     0.278     0.781     1.385
    13   1 H        0.859     0.280     0.777     1.380
    14   1 H        0.804     0.365     0.554     1.169

Wiberg/Mayer (AO) data.
largest (>0.10) Wiberg bond orders for each atom

     #   Z sym  total        # sym  WBO       # sym  WBO       # sym  WBO
 ---------------------------------------------------------------------------
     1   6 C    3.964 --     2 C    1.000     9 H    0.979     7 H    0.976
                             8 H    0.964
     2   6 C    3.905 --     1 C    1.000    10 H    0.944     4 C    0.929
                             3 N    0.925
     3   7 N    3.672 --     2 C    0.925    12 H    0.906    13 H    0.905
                            11 H    0.898
     4   6 C    3.938 --     5 O    1.836     6 O    1.138     2 C    0.929
     5   8 O    2.132 --     4 C    1.836     6 O    0.190
     6   8 O    2.204 --     4 C    1.138    14 H    0.842     5 O    0.190
     7   1 H    0.992 --     1 C    0.976
     8   1 H    0.986 --     1 C    0.964
     9   1 H    0.993 --     1 C    0.979
    10   1 H    0.984 --     2 C    0.944
    11   1 H    0.918 --     3 N    0.898
    12   1 H    0.922 --     3 N    0.906
    13   1 H    0.922 --     3 N    0.905
    14   1 H    0.867 --     6 O    0.842
 ---------------------------------------------------------------------------

molecular dipole:
                 x           y           z       tot (Debye)
 q only:        1.354       0.521       0.301
   full:        1.305       0.510      -0.019       3.562

           -------------------------------------------------
          | TOTAL ENERGY              -21.119583465116 Eh   |
          | GRADIENT NORM               0.000847939977 Eh/α |
          | HOMO-LUMO GAP               5.185166107467 eV   |
           -------------------------------------------------

 * finished run on 2024/12/20 at 06:58:02.974
