   * xtb version 6.7.1 (edcfbbe) compiled by 'conda@3ef47c1a292c' on 2024-11-25

   ID    Z sym.   atoms
    1    6 C      1-8, 10-26
    2    7 N      9
    3    1 H      27-80

          program call               : xtb C0796.xyz --opt --namespace C0796 --charge +1
          :  Hamiltonian                  GFN2-xTB          :
 * total energy  :   -83.6250724 Eh     change       -0.1199680E-09 Eh
 * total energy  :   -83.6329613 Eh     change       -0.7888910E-02 Eh
 * total energy  :   -83.6348786 Eh     change       -0.1917244E-02 Eh
 * total energy  :   -83.6350623 Eh     change       -0.1837815E-03 Eh
 * total energy  :   -83.6352921 Eh     change       -0.2297933E-03 Eh
 * total energy  :   -83.6354307 Eh     change       -0.1385678E-03 Eh
 * total energy  :   -83.6355847 Eh     change       -0.1540085E-03 Eh
 * total energy  :   -83.6357090 Eh     change       -0.1243335E-03 Eh
 * total energy  :   -83.6358896 Eh     change       -0.1805735E-03 Eh
 * total energy  :   -83.6360622 Eh     change       -0.1725375E-03 Eh
 * total energy  :   -83.6402936 Eh     change       -0.1110174E-04 Eh
 * total energy  :   -83.6403032 Eh     change       -0.9523303E-05 Eh
 * total energy  :   -83.6403102 Eh     change       -0.7003189E-05 Eh
 * total energy  :   -83.6403158 Eh     change       -0.5627270E-05 Eh
 * total energy  :   -83.6403214 Eh     change       -0.5607344E-05 Eh
 * total energy  :   -83.6403281 Eh     change       -0.6691063E-05 Eh
 * total energy  :   -83.6403356 Eh     change       -0.7458368E-05 Eh
 * total energy  :   -83.6403430 Eh     change       -0.7488863E-05 Eh
 * total energy  :   -83.6403459 Eh     change       -0.2819005E-05 Eh
   *** GEOMETRY OPTIMIZATION CONVERGED AFTER 68 ITERATIONS ***

 final structure:
================
80
 xtb: 6.7.1 (edcfbbe)
C            2.69763265254463       -0.79878629908987       -1.13888112309129
C            2.05998523389685       -2.12719203009931       -1.52781269027894
C            1.91998540933086       -3.09669614963338       -0.35298653184930
C            1.03024311037651       -2.60066363062818        0.78902250544314
C           -0.41377187232113       -2.28897158776861        0.39089882101851
C           -1.18916025363335       -3.46078959189646       -0.21742445148209
C           -1.22385566211823       -4.73589849389040        0.63556781213716
C           -1.75642859092483       -4.57774444974331        2.06415922638757
N           -3.21207707948179       -4.83363137218828        2.29126964409233
C           -3.52982544905122       -6.29148507837485        2.13886751811060
C           -2.97256076911960       -7.26874953038076        3.18065975491946
C           -3.86249558118486       -7.56814695470305        4.39536409148082
C           -5.28823393249566       -8.01963311072064        4.06876034734797
C           -5.38875205335136       -9.22871238964447        3.13648763825256
C           -4.69111900429554      -10.49251246789481        3.64451815535288
C           -5.19857190659485      -11.01217170849436        4.99073320744923
C           -6.67307193125730      -11.39670901411605        4.97091928097904
C           -3.56900164419291       -4.39593963604708        3.67582106276625
C           -3.59738557712594       -2.88569433045476        3.94670318221929
C           -4.99154227809120       -2.24592039399804        3.92392752807506
C           -5.99270312615489       -2.83722239277810        4.92021976106053
C           -5.53130259463565       -2.84642001625487        6.37890087767318
C           -5.16803746200159       -1.47381569800674        6.94974585865026
C           -6.29798836641742       -0.44330955896016        6.91680700994204
C           -7.51452237499793       -0.85727221691088        7.73591675331565
C           -4.03649918784043       -4.10802865865495        1.30982993588673
H            2.05118577400630       -0.22557757979641       -0.47886312468297
H            2.88545547542103       -0.20032574083249       -2.02656375057353
H            3.64622859991793       -0.96587556309894       -0.63394571217291
H            1.08499342129915       -1.94453958429983       -1.98387763957790
H            2.68405808950503       -2.60766998407335       -2.28417115153874
H            1.54155164321103       -4.05021177770408       -0.72881466798577
H            2.91392441692946       -3.28548227529670        0.05851341437818
H            1.04080609257960       -3.34850665746121        1.58639569011505
H            1.46627879191095       -1.69145596820876        1.20440560162838
H           -0.93819639921393       -1.90170490658948        1.26990849192704
H           -0.41167344547729       -1.48218748035627       -0.34224131534426
H           -2.19817132440918       -3.11838957414520       -0.45212603971186
H           -0.72162284709947       -3.72776575143222       -1.16558861027474
H           -1.77193603886877       -5.50641451478791        0.09172643793022
H           -0.19907400560237       -5.09820246644250        0.72312239699203
H           -1.21684979246553       -5.26162976326921        2.72015093507214
H           -1.54174087358046       -3.56503720411507        2.40266870882359
H           -4.61617759662423       -6.38585730698944        2.12087425791182
H           -3.15799754626937       -6.58460020990026        1.15629738219682
H           -2.81250198918600       -8.21199406652434        2.65678491817628
H           -1.99208264339818       -6.95003542352198        3.53688591194108
H           -3.36963331436421       -8.36362537628844        4.95504265575711
H           -3.91964836795217       -6.70824291703361        5.06428608465665
H           -5.77941499743919       -8.25955985716897        5.01192252914541
H           -5.85709049608921       -7.19429515915424        3.62907648962799
H           -6.44633555685904       -9.44802348268727        2.98551639634166
H           -4.97494345687970       -8.97661224289182        2.15649583200920
H           -4.83550734085733      -11.27463832435901        2.89600259815265
H           -3.61568044206635      -10.31555679283607        3.72065414187540
H           -4.60963432891243      -11.89422341247510        5.25058958177123
H           -5.02560039817989      -10.26849714970059        5.77113656916371
H           -6.87206185014427      -12.09910833013427        4.16489603163576
H           -6.94827203779250      -11.86961503674669        5.91009213450570
H           -7.30941048510651      -10.52564171018202        4.83525265947647
H           -4.55512281515958       -4.80506998100715        3.89553323146733
H           -2.84852386976882       -4.86529100771792        4.34512949610614
H           -3.17472194059963       -2.72353947947683        4.93834570130752
H           -2.95660101382589       -2.34303265532021        3.25069484557378
H           -4.86254953356065       -1.18738252508323        4.15077219853908
H           -5.42678223062456       -2.30385808370462        2.92457970220461
H           -6.91240762925040       -2.25701162322753        4.84368468694384
H           -6.25141180179294       -3.86187226170981        4.63669215176803
H           -6.33349762243226       -3.27584858752206        6.97993142083557
H           -4.66756499163888       -3.50776628220408        6.48821675042728
H           -4.86131105454270       -1.61645210489111        7.98826505920460
H           -4.30742175809049       -1.06650405025928        6.41381073880271
H           -5.90672862339074        0.49353904730899        7.31898559638106
H           -6.60095210231840       -0.24952795161856        5.88596175158996
H           -7.22174270844778       -1.10404113505631        8.75375527452716
H           -8.23242116146318       -0.04218051369971        7.77649527594993
H           -8.01170332480092       -1.72053235243628        7.30056956191331
H           -3.77228824230273       -3.05437281268477        1.30085863568302
H           -3.88700863521975       -4.51819377998819        0.31406445994619
H           -5.08873337954992       -4.20761150821213        1.57034244570194

          :  Hamiltonian                  GFN2-xTB          :
         :: total energy             -83.640345861390 Eh    ::
         :: gradient norm              0.000191526310 Eh/a0 ::
         :: HOMO-LUMO gap              7.449274452383 eV    ::
         :: SCC energy               -84.862598511889 Eh    ::
         :: -> dispersion             -0.069001789966 Eh    ::
         :: repulsion energy           1.222252650499 Eh    ::

    * Orbital Energies and Occupations

         #    Occupation            Energy/Eh            Energy/eV
      -------------------------------------------------------------
         1        2.0000           -0.8450533             -22.9951
       ...           ...                  ...                  ...
        67        2.0000           -0.5291374             -14.3986
        68        2.0000           -0.5251459             -14.2899
        69        2.0000           -0.5245703             -14.2743
        70        2.0000           -0.5240233             -14.2594
        71        2.0000           -0.5050513             -13.7431
        72        2.0000           -0.5045613             -13.7298
        73        2.0000           -0.5042600             -13.7216
        74        2.0000           -0.5008383             -13.6285
        75        2.0000           -0.5003498             -13.6152
        76        2.0000           -0.5000624             -13.6074
        77        2.0000           -0.4962087             -13.5025
        78        2.0000           -0.4957380             -13.4897
        79        2.0000           -0.4954706             -13.4824 (HOMO)
        80                         -0.2217148              -6.0332 (LUMO)
        81                         -0.1591901              -4.3318
        82                         -0.1482517              -4.0341
        83                         -0.1313956              -3.5755
        84                         -0.0742996              -2.0218
        85                         -0.0701951              -1.9101
        86                         -0.0610855              -1.6622
        87                         -0.0544596              -1.4819
        88                         -0.0315270              -0.8579
        89                         -0.0302098              -0.8221
        90                         -0.0271564              -0.7390
       ...                                ...                  ...
       158                          0.2296943               6.2503
      -------------------------------------------------------------
                  HL-Gap            0.2737558 Eh            7.4493 eV

     #   Z          covCN         q      C6AA      α(0)
     1   6 C        3.751    -0.105    22.573     6.775
     2   6 C        3.799    -0.055    21.556     6.611
     3   6 C        3.801    -0.060    21.662     6.627
     4   6 C        3.800    -0.062    21.689     6.631
     5   6 C        3.800    -0.061    21.670     6.628
     6   6 C        3.799    -0.069    21.830     6.652
     7   6 C        3.799    -0.071    21.853     6.656
     8   6 C        3.754    -0.038    21.303     6.581
     9   7 N        3.619     0.115    19.267     6.519
    10   6 C        3.762    -0.039    21.310     6.580
    11   6 C        3.798    -0.071    21.864     6.658
    12   6 C        3.799    -0.070    21.841     6.654
    13   6 C        3.800    -0.061    21.672     6.628
    14   6 C        3.800    -0.062    21.692     6.631
    15   6 C        3.801    -0.060    21.663     6.627
    16   6 C        3.799    -0.055    21.558     6.611
    17   6 C        3.751    -0.105    22.574     6.776
    18   6 C        3.760    -0.039    21.313     6.581
    19   6 C        3.799    -0.071    21.861     6.657
    20   6 C        3.799    -0.069    21.815     6.650
    21   6 C        3.800    -0.062    21.687     6.631
    22   6 C        3.800    -0.061    21.683     6.630
    23   6 C        3.800    -0.060    21.661     6.626
    24   6 C        3.799    -0.055    21.555     6.610
    25   6 C        3.751    -0.105    22.574     6.776
    26   6 C        3.719    -0.085    22.252     6.738
    27   1 H        0.925     0.033     2.542     2.493
    28   1 H        0.925     0.040     2.452     2.449
    29   1 H        0.925     0.039     2.461     2.453
    30   1 H        0.924     0.029     2.599     2.521
    31   1 H        0.924     0.036     2.507     2.476
    32   1 H        0.924     0.025     2.656     2.549
    33   1 H        0.924     0.039     2.466     2.456
    34   1 H        0.924     0.021     2.713     2.576
    35   1 H        0.924     0.046     2.375     2.410
    36   1 H        0.924     0.015     2.806     2.620
    37   1 H        0.925     0.053     2.289     2.366
    38   1 H        0.924     0.032     2.556     2.500
    39   1 H        0.924     0.059     2.213     2.327
    40   1 H        0.924     0.045     2.389     2.417
    41   1 H        0.924     0.073     2.056     2.242
    42   1 H        0.924     0.074     2.042     2.235
    43   1 H        0.925     0.090     1.874     2.141
    44   1 H        0.924     0.087     1.906     2.159
    45   1 H        0.924     0.075     2.027     2.226
    46   1 H        0.924     0.074     2.045     2.236
    47   1 H        0.924     0.046     2.377     2.411
    48   1 H        0.924     0.060     2.200     2.319
    49   1 H        0.924     0.033     2.547     2.496
    50   1 H        0.925     0.053     2.280     2.361
    51   1 H        0.924     0.015     2.811     2.622
    52   1 H        0.924     0.046     2.373     2.409
    53   1 H        0.924     0.021     2.718     2.578
    54   1 H        0.924     0.039     2.464     2.455
    55   1 H        0.924     0.025     2.655     2.548
    56   1 H        0.924     0.036     2.504     2.475
    57   1 H        0.924     0.029     2.598     2.521
    58   1 H        0.925     0.039     2.460     2.453
    59   1 H        0.925     0.040     2.451     2.448
    60   1 H        0.925     0.033     2.543     2.494
    61   1 H        0.925     0.093     1.849     2.127
    62   1 H        0.925     0.078     2.001     2.212
    63   1 H        0.925     0.071     2.073     2.252
    64   1 H        0.924     0.045     2.390     2.417
    65   1 H        0.924     0.058     2.218     2.329
    66   1 H        0.924     0.032     2.557     2.501
    67   1 H        0.925     0.052     2.289     2.366
    68   1 H        0.924     0.018     2.759     2.597
    69   1 H        0.924     0.046     2.371     2.408
    70   1 H        0.924     0.021     2.719     2.579
    71   1 H        0.924     0.039     2.469     2.457
    72   1 H        0.924     0.025     2.663     2.552
    73   1 H        0.924     0.035     2.512     2.478
    74   1 H        0.924     0.029     2.600     2.521
    75   1 H        0.925     0.039     2.462     2.454
    76   1 H        0.925     0.040     2.454     2.450
    77   1 H        0.925     0.033     2.538     2.491
    78   1 H        0.925     0.100     1.784     2.089
    79   1 H        0.925     0.092     1.856     2.131
    80   1 H        0.925     0.089     1.884     2.146

Wiberg/Mayer (AO) data.
largest (>0.10) Wiberg bond orders for each atom

     #   Z sym  total        # sym  WBO       # sym  WBO       # sym  WBO
 ---------------------------------------------------------------------------
     1   6 C    3.996 --     2 C    1.020    29 H    0.987    28 H    0.987
                            27 H    0.986
     2   6 C    3.997 --     1 C    1.020     3 C    1.008    31 H    0.978
                            30 H    0.976
     3   6 C    3.997 --     2 C    1.008     4 C    1.007    33 H    0.976
                            32 H    0.975
     4   6 C    3.996 --     5 C    1.007     3 C    1.007    34 H    0.976
                            35 H    0.974
     5   6 C    3.995 --     4 C    1.007     6 C    1.007    36 H    0.972
                            37 H    0.972
     6   6 C    3.992 --     5 C    1.007     7 C    1.005    38 H    0.974
                            39 H    0.971
     7   6 C    3.986 --     6 C    1.005     8 C    1.004    41 H    0.966
                            40 H    0.965
     8   6 C    3.931 --     7 C    1.004    42 H    0.963    43 H    0.954
                             9 N    0.930
     9   7 N    3.803 --    26 C    0.963     8 C    0.930    18 C    0.927
                            10 C    0.926
    10   6 C    3.932 --    11 C    1.005    45 H    0.964    44 H    0.960
                             9 N    0.926
    11   6 C    3.985 --    10 C    1.005    12 C    1.004    46 H    0.965
                            47 H    0.965
    12   6 C    3.992 --    13 C    1.007    11 C    1.004    49 H    0.974
                            48 H    0.971
    13   6 C    3.995 --    12 C    1.007    14 C    1.007    51 H    0.972
                            50 H    0.971
    14   6 C    3.996 --    13 C    1.007    15 C    1.007    53 H    0.976
                            52 H    0.974
    15   6 C    3.997 --    16 C    1.008    14 C    1.007    54 H    0.976
                            55 H    0.975
    16   6 C    3.997 --    17 C    1.020    15 C    1.008    56 H    0.978
                            57 H    0.976
    17   6 C    3.996 --    16 C    1.020    58 H    0.987    59 H    0.987
                            60 H    0.986
    18   6 C    3.930 --    19 C    1.003    62 H    0.968    61 H    0.957
                             9 N    0.927
    19   6 C    3.986 --    20 C    1.005    18 C    1.003    63 H    0.967
                            64 H    0.964
    20   6 C    3.992 --    21 C    1.007    19 C    1.005    66 H    0.975
                            65 H    0.971
    21   6 C    3.995 --    22 C    1.008    20 C    1.007    67 H    0.972
                            68 H    0.972
    22   6 C    3.996 --    21 C    1.008    23 C    1.007    70 H    0.976
                            69 H    0.974
    23   6 C    3.997 --    24 C    1.008    22 C    1.007    71 H    0.976
                            72 H    0.975
    24   6 C    3.997 --    25 C    1.020    23 C    1.008    73 H    0.978
                            74 H    0.976
    25   6 C    3.996 --    24 C    1.020    75 H    0.987    76 H    0.987
                            77 H    0.986
    26   6 C    3.934 --    80 H    0.974    79 H    0.973    78 H    0.970
                             9 N    0.963
    27   1 H    0.999 --     1 C    0.986
    28   1 H    0.998 --     1 C    0.987
    29   1 H    0.998 --     1 C    0.987
    30   1 H    0.999 --     2 C    0.976
    31   1 H    0.999 --     2 C    0.978
    32   1 H    0.999 --     3 C    0.975
    33   1 H    0.998 --     3 C    0.976
    34   1 H    1.000 --     4 C    0.976
    35   1 H    0.998 --     4 C    0.974
    36   1 H    1.000 --     5 C    0.972
    37   1 H    0.997 --     5 C    0.972
    38   1 H    0.999 --     6 C    0.974
    39   1 H    0.996 --     6 C    0.971
    40   1 H    0.998 --     7 C    0.965
    41   1 H    0.994 --     7 C    0.966
    42   1 H    0.995 --     8 C    0.963
    43   1 H    0.992 --     8 C    0.954
    44   1 H    0.992 --    10 C    0.960
    45   1 H    0.994 --    10 C    0.964
    46   1 H    0.994 --    11 C    0.965
    47   1 H    0.998 --    11 C    0.965
    48   1 H    0.996 --    12 C    0.971
    49   1 H    0.999 --    12 C    0.974
    50   1 H    0.997 --    13 C    0.971
    51   1 H    1.000 --    13 C    0.972
    52   1 H    0.998 --    14 C    0.974
    53   1 H    1.000 --    14 C    0.976
    54   1 H    0.998 --    15 C    0.976
    55   1 H    0.999 --    15 C    0.975
    56   1 H    0.999 --    16 C    0.978
    57   1 H    0.999 --    16 C    0.976
    58   1 H    0.998 --    17 C    0.987
    59   1 H    0.998 --    17 C    0.987
    60   1 H    0.999 --    17 C    0.986
    61   1 H    0.991 --    18 C    0.957
    62   1 H    0.994 --    18 C    0.968
    63   1 H    0.995 --    19 C    0.967
    64   1 H    0.998 --    19 C    0.964
    65   1 H    0.996 --    20 C    0.971
    66   1 H    0.999 --    20 C    0.975
    67   1 H    0.997 --    21 C    0.972
    68   1 H    1.000 --    21 C    0.972
    69   1 H    0.998 --    22 C    0.974
    70   1 H    1.000 --    22 C    0.976
    71   1 H    0.999 --    23 C    0.976
    72   1 H    0.999 --    23 C    0.975
    73   1 H    0.999 --    24 C    0.978
    74   1 H    0.999 --    24 C    0.976
    75   1 H    0.998 --    25 C    0.987
    76   1 H    0.998 --    25 C    0.987
    77   1 H    0.999 --    25 C    0.986
    78   1 H    0.990 --    26 C    0.970
    79   1 H    0.991 --    26 C    0.973
    80   1 H    0.992 --    26 C    0.974
 ---------------------------------------------------------------------------

molecular dipole:
                 x           y           z       tot (Debye)
 q only:       -6.077      -9.040       4.657
   full:       -6.047      -9.084       4.612      30.111

           -------------------------------------------------
          | TOTAL ENERGY              -83.640345861390 Eh   |
          | GRADIENT NORM               0.000191526310 Eh/α |
          | HOMO-LUMO GAP               7.449274452383 eV   |
           -------------------------------------------------

 * finished run on 2024/12/20 at 06:58:11.431
