   * xtb version 6.7.1 (edcfbbe) compiled by 'conda@3ef47c1a292c' on 2024-11-25

   ID    Z sym.   atoms
    1    6 C      1, 2, 4, 6, 8, 9, 11-18, 21, 22
    2    8 O      3, 5, 19, 20
    3    7 N      7, 10
    4    1 H      23-43

          program call               : xtb C0798.xyz --opt --namespace C0798 --charge +1
          :  Hamiltonian                  GFN2-xTB          :
 * total energy  :   -66.7551381 Eh     change       -0.9944614E-09 Eh
 * total energy  :   -66.7661045 Eh     change       -0.1096638E-01 Eh
 * total energy  :   -66.7683332 Eh     change       -0.2228795E-02 Eh
 * total energy  :   -66.7687519 Eh     change       -0.4187019E-03 Eh
 * total energy  :   -66.7690163 Eh     change       -0.2643597E-03 Eh
 * total energy  :   -66.7691623 Eh     change       -0.1459930E-03 Eh
 * total energy  :   -66.7693329 Eh     change       -0.1706025E-03 Eh
 * total energy  :   -66.7695074 Eh     change       -0.1745426E-03 Eh
 * total energy  :   -66.7696974 Eh     change       -0.1899805E-03 Eh
 * total energy  :   -66.7699095 Eh     change       -0.2120872E-03 Eh
 * total energy  :   -66.7729562 Eh     change       -0.9902300E-05 Eh
 * total energy  :   -66.7729612 Eh     change       -0.5032482E-05 Eh
 * total energy  :   -66.7729702 Eh     change       -0.8960720E-05 Eh
 * total energy  :   -66.7729746 Eh     change       -0.4472012E-05 Eh
 * total energy  :   -66.7729802 Eh     change       -0.5576367E-05 Eh
 * total energy  :   -66.7729846 Eh     change       -0.4419246E-05 Eh
 * total energy  :   -66.7729903 Eh     change       -0.5658969E-05 Eh
 * total energy  :   -66.7729964 Eh     change       -0.6156148E-05 Eh
 * total energy  :   -66.7729987 Eh     change       -0.2258676E-05 Eh
   *** GEOMETRY OPTIMIZATION CONVERGED AFTER 68 ITERATIONS ***

 final structure:
================
43
 xtb: 6.7.1 (edcfbbe)
C            2.14850009992912       -0.98522018405649       -0.03006710475948
C            2.74350494300678       -0.99037508855589        1.36738072956896
O            1.94562860241503       -0.19547008234947        2.27017560975127
C            2.19248958798046        1.08686247919154        2.34508395288459
O            3.03878031952470        1.71079785877785        1.76395852284378
C            1.23517576328603        1.76659011844584        3.35344465429059
N            1.33656129998142        3.19104169281553        3.20949849106343
C            2.43279812876540        3.92044090254606        3.45915534971572
C            3.64811664191270        3.45540756377427        4.15296604756244
N            2.26077251335588        5.16707405570527        3.00667278306705
C            0.99949473278417        5.26636978823924        2.44948779201823
C            0.41418336738879        3.99413531230912        2.55942002307765
C           -0.86311322819927        3.74604762317613        2.07582572892005
C           -1.52735872741171        4.80455534656427        1.48846501300141
C           -0.94681293259808        6.07005008300832        1.38448928571399
C            0.32340119893842        6.32619372230522        1.86080625429845
C            3.18744760835440        6.25398083094536        3.14548023223333
C            3.05426881699056        6.98582188768297        4.49810183265429
O            3.65032442558428        7.98914556793159        4.74630023542032
O            2.21048052450086        6.34594334460752        5.29719039221436
C            1.99602060145394        6.90478838639347        6.60880201799560
C            3.04457316846672        6.41352575554148        7.59212419307740
H            1.12198298235876       -1.34176156251528       -0.00685865149868
H            2.73247229477962       -1.64059796870786       -0.66861126507541
H            2.16914223912728        0.01807749671910       -0.44926913961956
H            2.73300485699709       -1.99147095881103        1.79997787139859
H            3.76222445940890       -0.59311089522754        1.35705783137939
H            0.21241762966609        1.44573783810885        3.15776562590361
H            1.50692112022807        1.44757077391434        4.36352881839811
H            3.45631520519581        2.54428307930153        4.71174546396117
H            4.43222278020322        3.23914862969022        3.42522030936794
H            4.01075321031015        4.21899165519870        4.83792506681752
H           -1.32698106285258        2.77610320020140        2.14969262977862
H           -2.52145225269984        4.65150708218838        1.10005797116928
H           -1.50643798113599        6.86611433723173        0.92026753730302
H            0.75967900553802        7.30826587549974        1.78145715951567
H            4.21653433376235        5.89774317438785        3.05058786108900
H            3.01537568712057        6.98508999735546        2.35252263112746
H            2.02347274846926        7.99476012214052        6.53253197544437
H            0.99584043583298        6.57296509359945        6.89107554963308
H            4.03294548324957        6.75358559222794        7.29231074015582
H            2.82586732188632        6.81613400176214        8.57609131210247
H            3.03956204620256        5.32744647072126        7.65015066503213

          :  Hamiltonian                  GFN2-xTB          :
         :: total energy             -66.772998707173 Eh    ::
         :: gradient norm              0.000361750380 Eh/a0 ::
         :: HOMO-LUMO gap              3.515109730579 eV    ::
         :: SCC energy               -67.645827150791 Eh    ::
         :: -> dispersion             -0.040966792691 Eh    ::
         :: repulsion energy           0.872828443617 Eh    ::

    * Orbital Energies and Occupations

         #    Occupation            Energy/Eh            Energy/eV
      -------------------------------------------------------------
         1        2.0000           -0.8770919             -23.8669
       ...           ...                  ...                  ...
        47        2.0000           -0.6032406             -16.4150
        48        2.0000           -0.5761985             -15.6792
        49        2.0000           -0.5724812             -15.5780
        50        2.0000           -0.5711956             -15.5430
        51        2.0000           -0.5688689             -15.4797
        52        2.0000           -0.5633861             -15.3305
        53        2.0000           -0.5628557             -15.3161
        54        2.0000           -0.5560061             -15.1297
        55        2.0000           -0.5550190             -15.1028
        56        2.0000           -0.5502114             -14.9720
        57        2.0000           -0.5493470             -14.9485
        58        2.0000           -0.5433678             -14.7858
        59        2.0000           -0.5334900             -14.5170 (HOMO)
        60                         -0.4043120             -11.0019 (LUMO)
        61                         -0.3614168              -9.8347
        62                         -0.3584121              -9.7529
        63                         -0.3545899              -9.6489
        64                         -0.3506576              -9.5419
        65                         -0.2330279              -6.3410
        66                         -0.1786952              -4.8625
        67                         -0.1408373              -3.8324
        68                         -0.1318481              -3.5878
        69                         -0.1183023              -3.2192
        70                         -0.0666618              -1.8140
       ...                                ...                  ...
       109                          0.5625231              15.3070
      -------------------------------------------------------------
                  HL-Gap            0.1291779 Eh            3.5151 eV

     #   Z          covCN         q      C6AA      α(0)
     1   6 C        3.751    -0.121    22.875     6.821
     2   6 C        3.697     0.070    19.571     6.328
     3   8 O        1.703    -0.237    17.929     5.717
     4   6 C        2.714     0.361    20.876     7.479
     5   8 O        0.856    -0.401    21.703     6.246
     6   6 C        3.742    -0.048    21.505     6.616
     7   7 N        2.832     0.019    20.908     6.791
     8   6 C        3.070     0.135    24.995     8.198
     9   6 C        3.755    -0.134    23.143     6.860
    10   7 N        2.833     0.025    20.805     6.774
    11   6 C        3.095     0.041    26.967     8.511
    12   6 C        3.094     0.040    26.991     8.515
    13   6 C        2.909    -0.034    28.836     8.805
    14   6 C        2.926    -0.019    28.480     8.752
    15   6 C        2.926    -0.019    28.471     8.750
    16   6 C        2.909    -0.032    28.806     8.801
    17   6 C        3.741    -0.052    21.579     6.628
    18   6 C        2.711     0.358    20.919     7.487
    19   8 O        0.856    -0.360    20.907     6.130
    20   8 O        1.702    -0.268    18.446     5.799
    21   6 C        3.697     0.071    19.545     6.324
    22   6 C        3.750    -0.120    22.869     6.820
    23   1 H        0.925     0.065     2.141     2.288
    24   1 H        0.925     0.073     2.058     2.243
    25   1 H        0.925     0.061     2.183     2.311
    26   1 H        0.924     0.081     1.969     2.194
    27   1 H        0.924     0.070     2.083     2.257
    28   1 H        0.925     0.110     1.696     2.036
    29   1 H        0.924     0.101     1.772     2.082
    30   1 H        0.925     0.089     1.885     2.147
    31   1 H        0.924     0.119     1.622     1.992
    32   1 H        0.925     0.097     1.814     2.106
    33   1 H        0.926     0.066     2.129     2.282
    34   1 H        0.926     0.079     1.984     2.203
    35   1 H        0.926     0.080     1.976     2.198
    36   1 H        0.926     0.070     2.086     2.259
    37   1 H        0.924     0.111     1.690     2.033
    38   1 H        0.924     0.116     1.647     2.007
    39   1 H        0.924     0.074     2.040     2.234
    40   1 H        0.924     0.069     2.093     2.263
    41   1 H        0.925     0.065     2.136     2.285
    42   1 H        0.925     0.072     2.066     2.248
    43   1 H        0.925     0.054     2.272     2.357

Wiberg/Mayer (AO) data.
largest (>0.10) Wiberg bond orders for each atom

     #   Z sym  total        # sym  WBO       # sym  WBO       # sym  WBO
 ---------------------------------------------------------------------------
     1   6 C    3.986 --     2 C    1.014    25 H    0.984    23 H    0.984
                            24 H    0.978
     2   6 C    3.896 --     1 C    1.014    27 H    0.970    26 H    0.969
                             3 O    0.903
     3   8 O    2.360 --     4 C    1.211     2 C    0.903     5 O    0.191
     4   6 C    3.934 --     5 O    1.740     3 O    1.211     6 C    0.917
     5   8 O    2.055 --     4 C    1.740     3 O    0.191
     6   6 C    3.954 --     7 N    0.997    28 H    0.953    29 H    0.942
                             4 C    0.917
     7   7 N    3.651 --     8 C    1.319    12 C    1.107     6 C    0.997
     8   6 C    3.953 --    10 N    1.329     7 N    1.319     9 C    1.050
     9   6 C    3.976 --     8 C    1.050    30 H    0.968    32 H    0.960
                            31 H    0.936
    10   7 N    3.664 --     8 C    1.329    11 C    1.111    17 C    0.994
    11   6 C    3.952 --    16 C    1.348    12 C    1.280    10 N    1.111
    12   6 C    3.950 --    13 C    1.349    11 C    1.280     7 N    1.107
    13   6 C    3.985 --    14 C    1.485    12 C    1.349    33 H    0.962
                            16 C    0.117
    14   6 C    3.982 --    13 C    1.485    15 C    1.387    34 H    0.966
    15   6 C    3.983 --    16 C    1.486    14 C    1.387    35 H    0.966
    16   6 C    3.984 --    15 C    1.486    11 C    1.348    36 H    0.963
                            13 C    0.117
    17   6 C    3.950 --    10 N    0.994    38 H    0.946    37 H    0.945
                            18 C    0.922
    18   6 C    3.935 --    19 O    1.786    20 O    1.161    17 C    0.922
    19   8 O    2.094 --    18 C    1.786    20 O    0.188
    20   8 O    2.317 --    18 C    1.161    21 C    0.911    19 O    0.188
    21   6 C    3.904 --    22 C    1.015    40 H    0.971    39 H    0.969
                            20 O    0.911
    22   6 C    3.988 --    21 C    1.015    43 H    0.986    41 H    0.984
                            42 H    0.979
    23   1 H    0.996 --     1 C    0.984
    24   1 H    0.994 --     1 C    0.978
    25   1 H    0.996 --     1 C    0.984
    26   1 H    0.993 --     2 C    0.969
    27   1 H    0.995 --     2 C    0.970
    28   1 H    0.987 --     6 C    0.953
    29   1 H    0.989 --     6 C    0.942
    30   1 H    0.991 --     9 C    0.968
    31   1 H    0.981 --     9 C    0.936
    32   1 H    0.989 --     9 C    0.960
    33   1 H    0.995 --    13 C    0.962
    34   1 H    0.993 --    14 C    0.966
    35   1 H    0.993 --    15 C    0.966
    36   1 H    0.995 --    16 C    0.963
    37   1 H    0.987 --    17 C    0.945
    38   1 H    0.986 --    17 C    0.946
    39   1 H    0.994 --    21 C    0.969
    40   1 H    0.995 --    21 C    0.971
    41   1 H    0.996 --    22 C    0.984
    42   1 H    0.994 --    22 C    0.979
    43   1 H    0.997 --    22 C    0.986
 ---------------------------------------------------------------------------

molecular dipole:
                 x           y           z       tot (Debye)
 q only:        2.695       6.428       6.122
   full:        2.665       6.266       6.215      23.433

           -------------------------------------------------
          | TOTAL ENERGY              -66.772998707173 Eh   |
          | GRADIENT NORM               0.000361750380 Eh/α |
          | HOMO-LUMO GAP               3.515109730579 eV   |
           -------------------------------------------------

 * finished run on 2024/12/20 at 06:58:16.309
