   * xtb version 6.7.1 (edcfbbe) compiled by 'conda@3ef47c1a292c' on 2024-11-25

   ID    Z sym.   atoms
    1    6 C      1-7, 9-26
    2    7 N      8
    3    1 H      27-80

          program call               : xtb C0792.xyz --opt --namespace C0792 --charge +1
          :  Hamiltonian                  GFN2-xTB          :
 * total energy  :   -83.6089176 Eh     change       -0.2419682E-09 Eh
 * total energy  :   -83.6187101 Eh     change       -0.9792557E-02 Eh
 * total energy  :   -83.6215430 Eh     change       -0.2832859E-02 Eh
 * total energy  :   -83.6219945 Eh     change       -0.4515522E-03 Eh
 * total energy  :   -83.6224298 Eh     change       -0.4353173E-03 Eh
 * total energy  :   -83.6226953 Eh     change       -0.2654508E-03 Eh
 * total energy  :   -83.6229537 Eh     change       -0.2583837E-03 Eh
 * total energy  :   -83.6232343 Eh     change       -0.2806195E-03 Eh
 * total energy  :   -83.6235561 Eh     change       -0.3218411E-03 Eh
 * total energy  :   -83.6239250 Eh     change       -0.3688679E-03 Eh
 * total energy  :   -83.6350907 Eh     change       -0.6697394E-05 Eh
 * total energy  :   -83.6350988 Eh     change       -0.8081673E-05 Eh
 * total energy  :   -83.6351064 Eh     change       -0.7586441E-05 Eh
 * total energy  :   -83.6351123 Eh     change       -0.5960180E-05 Eh
 * total energy  :   -83.6351187 Eh     change       -0.6327059E-05 Eh
 * total energy  :   -83.6351259 Eh     change       -0.7251022E-05 Eh
 * total energy  :   -83.6351329 Eh     change       -0.6983858E-05 Eh
 * total energy  :   -83.6351391 Eh     change       -0.6178920E-05 Eh
 * total energy  :   -83.6351433 Eh     change       -0.4197925E-05 Eh
   *** GEOMETRY OPTIMIZATION CONVERGED AFTER 162 ITERATIONS ***

 final structure:
================
80
 xtb: 6.7.1 (edcfbbe)
C            0.80676096160777        0.97605478161339       -1.41551728135139
C           -0.42299367249950        1.17921546416860       -2.29272631923420
C           -0.93785711165506       -0.11636203299705       -2.92169549571971
C           -1.44650735238216       -1.11664923065374       -1.88338388236910
C           -2.28770970907788       -2.24327721893460       -2.48646326474292
C           -1.58195594077389       -3.10248698892001       -3.54192036914458
C           -0.41976914736478       -4.02619392377255       -3.14905885625492
N           -0.70154855512838       -5.20282926004816       -2.25809248904781
C           -2.06923262093952       -5.77124778563566       -2.49455505334060
C           -2.36134057680836       -6.39823896681871       -3.85606946744276
C           -3.86016941803334       -6.71174160354342       -3.97656277782961
C           -4.75142022486494       -5.49839863973576       -4.25227096101424
C           -4.61406866058873       -4.91753379530030       -5.66247282178247
C           -5.17731750482024       -5.83338123055479       -6.74254142434226
C            0.32138227074649       -6.28650654608460       -2.46454024034791
C            0.86055413136340       -6.56030242240297       -3.87280969072754
C            1.58201464703182       -7.91586473147975       -3.89202204386529
C            0.63102074129364       -9.11205739585431       -3.91652181152426
C            1.36634295702099      -10.44453298477413       -4.07296821638650
C            2.20465991070228      -10.81695483878495       -2.85602306050187
C           -0.68921648583479       -4.72797688679475       -0.81221368346107
C            0.52517312112102       -4.99877416031806        0.08355506280359
C            1.83352113511324       -4.25136192273347       -0.20517206465386
C            1.78250629146351       -2.73280757861936       -0.01810144606135
C            1.30134261115235       -2.25287453415497        1.35209896088205
C            2.16913681275465       -2.74928301372684        2.50184792349353
H            0.56753133214277        0.38723479535375       -0.53342346305992
H            1.18923563569694        1.93670822341008       -1.08185108896305
H            1.59573359791812        0.47154349423781       -1.97012182159865
H           -1.21919299523501        1.63480473570687       -1.70102318807330
H           -0.17214378490327        1.87346009459148       -3.09661107764385
H           -1.75471837124700        0.13020557548392       -3.60354420812100
H           -0.13141301279470       -0.56058134438700       -3.51030097946958
H           -0.60104608463089       -1.52285343618916       -1.32769540569496
H           -2.07374766721222       -0.58367854901539       -1.16590673887468
H           -2.69893654412761       -2.85758546393397       -1.68135985313597
H           -3.14118361223839       -1.78324391016047       -2.99015520652578
H           -2.34187189063030       -3.67656471334737       -4.06938048733718
H           -1.15400917959279       -2.41990403965122       -4.27899895306713
H           -0.03247906377122       -4.41612799294771       -4.08825128373712
H            0.37652753926582       -3.45068642170873       -2.67619800099723
H           -2.22640681063621       -6.54750448145793       -1.74123154967253
H           -2.78825267220146       -4.97498804092891       -2.30538146853483
H           -2.06915994874339       -5.74269450379548       -4.67444335915757
H           -1.81748409594944       -7.33695442178547       -3.95414204600732
H           -3.99409689778288       -7.43037028949225       -4.78400267146409
H           -4.19345192677886       -7.19700549183293       -3.05683006372572
H           -5.78899389195942       -5.80578915396628       -4.11362953104684
H           -4.55459679709636       -4.71209523126545       -3.51887041728758
H           -5.15539683582248       -3.96990804280141       -5.69201502599910
H           -3.56764728608826       -4.69888587903764       -5.88962934706324
H           -6.21510608741892       -6.07740632323371       -6.52997558832328
H           -5.13471283617126       -5.33986749115157       -7.70985656796601
H           -4.61332446463043       -6.76008404517790       -6.81404590824487
H            1.19281630881305       -6.04552847715898       -1.86424551020673
H           -0.11743026670432       -7.20214011248662       -2.06691323982423
H            0.08259814717382       -6.57876636909108       -4.63238008787696
H            1.58691858006341       -5.79172957670455       -4.14427582182099
H            2.20143705969327       -7.95566511677030       -4.78885804986781
H            2.24703869906948       -7.98328746388559       -3.03052381590855
H            0.03720441372160       -9.15291219560923       -2.99983832549227
H           -0.05662834949167       -8.99709935416479       -4.75845209847085
H            0.62436126993342      -11.22725783102366       -4.24123556471895
H            2.00543639843943      -10.40124175610921       -4.95645486725986
H            1.59198933414352      -10.82976388003007       -1.95676119945679
H            2.63074934791952      -11.80735461606128       -2.98880561933608
H            3.02413950623296      -10.11811060380744       -2.70953499185107
H           -0.86756361341528       -3.65578469388064       -0.82878119894658
H           -1.53767297930753       -5.19489696431085       -0.31026591989801
H            0.19644767303509       -4.70047585708160        1.08121617672247
H            0.72348068286061       -6.06994657289970        0.14662098435944
H            2.58336154070699       -4.65389984778096        0.47703068330459
H            2.19468668605468       -4.44836144694875       -1.21778961503009
H            2.79256347584909       -2.35107465805707       -0.17948388609807
H            1.15271691880222       -2.28355993719831       -0.78903404891611
H            1.32397710254680       -1.16123226047112        1.34592600204996
H            0.26284678919850       -2.54939291668307        1.51886193558867
H            3.21025740450431       -2.48678352194366        2.33112374285392
H            1.85147718629527       -2.28824715575327        3.43319988809015
H            2.09940672548038       -3.82776701856318        2.62077052250890

          :  Hamiltonian                  GFN2-xTB          :
         :: total energy             -83.635143286598 Eh    ::
         :: gradient norm              0.000345563525 Eh/a0 ::
         :: HOMO-LUMO gap              7.360096363914 eV    ::
         :: SCC energy               -84.856429447504 Eh    ::
         :: -> dispersion             -0.071258282188 Eh    ::
         :: repulsion energy           1.221286160907 Eh    ::

    * Orbital Energies and Occupations

         #    Occupation            Energy/Eh            Energy/eV
      -------------------------------------------------------------
         1        2.0000           -0.8324619             -22.6524
       ...           ...                  ...                  ...
        67        2.0000           -0.5342476             -14.5376
        68        2.0000           -0.5274454             -14.3525
        69        2.0000           -0.5259072             -14.3107
        70        2.0000           -0.5233541             -14.2412
        71        2.0000           -0.5229320             -14.2297
        72        2.0000           -0.5200212             -14.1505
        73        2.0000           -0.5186751             -14.1139
        74        2.0000           -0.5186437             -14.1130
        75        2.0000           -0.5157316             -14.0338
        76        2.0000           -0.5147588             -14.0073
        77        2.0000           -0.5121649             -13.9367
        78        2.0000           -0.5105927             -13.8939
        79        2.0000           -0.5052418             -13.7483 (HOMO)
        80                         -0.2347632              -6.3882 (LUMO)
        81                         -0.1718209              -4.6755
        82                         -0.1571826              -4.2772
        83                         -0.1520698              -4.1380
        84                         -0.0714390              -1.9440
        85                         -0.0642556              -1.7485
        86                         -0.0547785              -1.4906
        87                         -0.0455372              -1.2391
        88                         -0.0403217              -1.0972
        89                         -0.0378848              -1.0309
        90                         -0.0309064              -0.8410
       ...                                ...                  ...
       158                          0.2562005               6.9716
      -------------------------------------------------------------
                  HL-Gap            0.2704786 Eh            7.3601 eV

     #   Z          covCN         q      C6AA      α(0)
     1   6 C        3.751    -0.105    22.562     6.774
     2   6 C        3.800    -0.057    21.602     6.617
     3   6 C        3.801    -0.061    21.679     6.629
     4   6 C        3.801    -0.063    21.714     6.634
     5   6 C        3.799    -0.065    21.754     6.641
     6   6 C        3.798    -0.078    21.998     6.678
     7   6 C        3.745    -0.035    21.270     6.579
     8   7 N        3.612     0.096    19.577     6.571
     9   6 C        3.758    -0.031    21.178     6.561
    10   6 C        3.799    -0.069    21.825     6.652
    11   6 C        3.802    -0.067    21.784     6.645
    12   6 C        3.800    -0.064    21.728     6.637
    13   6 C        3.799    -0.054    21.551     6.610
    14   6 C        3.752    -0.108    22.635     6.785
    15   6 C        3.750    -0.041    21.374     6.593
    16   6 C        3.799    -0.071    21.865     6.658
    17   6 C        3.803    -0.067    21.789     6.645
    18   6 C        3.801    -0.060    21.647     6.624
    19   6 C        3.800    -0.058    21.618     6.620
    20   6 C        3.751    -0.107    22.613     6.782
    21   6 C        3.752    -0.042    21.386     6.595
    22   6 C        3.798    -0.074    21.920     6.666
    23   6 C        3.799    -0.065    21.757     6.641
    24   6 C        3.800    -0.062    21.689     6.631
    25   6 C        3.799    -0.055    21.572     6.613
    26   6 C        3.752    -0.109    22.644     6.786
    27   1 H        0.925     0.031     2.569     2.506
    28   1 H        0.925     0.043     2.409     2.427
    29   1 H        0.925     0.033     2.550     2.497
    30   1 H        0.924     0.037     2.486     2.466
    31   1 H        0.924     0.040     2.453     2.449
    32   1 H        0.924     0.036     2.507     2.476
    33   1 H        0.924     0.028     2.621     2.532
    34   1 H        0.924     0.028     2.616     2.529
    35   1 H        0.924     0.045     2.380     2.413
    36   1 H        0.924     0.025     2.662     2.552
    37   1 H        0.924     0.052     2.294     2.369
    38   1 H        0.925     0.060     2.198     2.318
    39   1 H        0.924     0.071     2.075     2.253
    40   1 H        0.925     0.080     1.975     2.198
    41   1 H        0.924     0.082     1.955     2.187
    42   1 H        0.924     0.068     2.105     2.269
    43   1 H        0.925     0.084     1.935     2.175
    44   1 H        0.925     0.054     2.272     2.357
    45   1 H        0.925     0.055     2.254     2.348
    46   1 H        0.925     0.060     2.194     2.316
    47   1 H        0.924     0.038     2.473     2.459
    48   1 H        0.924     0.050     2.317     2.380
    49   1 H        0.924     0.022     2.696     2.568
    50   1 H        0.924     0.038     2.474     2.460
    51   1 H        0.924     0.023     2.691     2.565
    52   1 H        0.925     0.044     2.402     2.423
    53   1 H        0.925     0.044     2.400     2.423
    54   1 H        0.925     0.036     2.505     2.475
    55   1 H        0.925     0.091     1.867     2.137
    56   1 H        0.924     0.079     1.987     2.204
    57   1 H        0.925     0.056     2.252     2.347
    58   1 H        0.924     0.047     2.362     2.403
    59   1 H        0.924     0.056     2.241     2.341
    60   1 H        0.924     0.046     2.376     2.411
    61   1 H        0.924     0.026     2.651     2.546
    62   1 H        0.924     0.032     2.561     2.503
    63   1 H        0.924     0.041     2.432     2.439
    64   1 H        0.924     0.040     2.453     2.449
    65   1 H        0.925     0.034     2.525     2.485
    66   1 H        0.925     0.046     2.365     2.405
    67   1 H        0.925     0.035     2.513     2.479
    68   1 H        0.925     0.097     1.810     2.104
    69   1 H        0.924     0.071     2.075     2.253
    70   1 H        0.924     0.078     2.001     2.212
    71   1 H        0.924     0.049     2.334     2.389
    72   1 H        0.924     0.057     2.230     2.335
    73   1 H        0.924     0.028     2.621     2.532
    74   1 H        0.924     0.047     2.363     2.404
    75   1 H        0.924     0.024     2.676     2.558
    76   1 H        0.924     0.041     2.439     2.442
    77   1 H        0.924     0.025     2.660     2.550
    78   1 H        0.925     0.044     2.401     2.423
    79   1 H        0.925     0.045     2.389     2.417
    80   1 H        0.925     0.034     2.528     2.487

Wiberg/Mayer (AO) data.
largest (>0.10) Wiberg bond orders for each atom

     #   Z sym  total        # sym  WBO       # sym  WBO       # sym  WBO
 ---------------------------------------------------------------------------
     1   6 C    3.997 --     2 C    1.020    29 H    0.987    28 H    0.986
                            27 H    0.985
     2   6 C    3.996 --     1 C    1.020     3 C    1.006    30 H    0.977
                            31 H    0.977
     3   6 C    3.997 --     4 C    1.008     2 C    1.006    32 H    0.976
                            33 H    0.976
     4   6 C    3.995 --     3 C    1.008     5 C    1.006    35 H    0.974
                            34 H    0.961
     5   6 C    3.994 --     4 C    1.006     6 C    1.005    37 H    0.972
                            36 H    0.970
     6   6 C    3.984 --     5 C    1.005     7 C    1.005    38 H    0.965
                            39 H    0.961
     7   6 C    3.934 --     6 C    1.005    41 H    0.964    40 H    0.961
                             8 N    0.931
     8   7 N    3.794 --     9 C    0.934     7 C    0.931    15 C    0.929
                            21 C    0.919
     9   6 C    3.935 --    10 C    1.005    42 H    0.967    43 H    0.957
                             8 N    0.934
    10   6 C    3.987 --     9 C    1.005    11 C    0.996    45 H    0.971
                            44 H    0.965
    11   6 C    3.991 --    12 C    1.009    10 C    0.996    47 H    0.976
                            46 H    0.970
    12   6 C    3.995 --    11 C    1.009    13 C    1.007    48 H    0.974
                            49 H    0.972
    13   6 C    3.998 --    14 C    1.021    12 C    1.007    50 H    0.978
                            51 H    0.973
    14   6 C    3.995 --    13 C    1.021    52 H    0.987    53 H    0.986
                            54 H    0.985
    15   6 C    3.931 --    16 C    1.005    56 H    0.963    55 H    0.956
                             8 N    0.929
    16   6 C    3.989 --    15 C    1.005    17 C    0.995    58 H    0.975
                            57 H    0.967
    17   6 C    3.990 --    18 C    1.009    16 C    0.995    60 H    0.974
                            59 H    0.973
    18   6 C    3.997 --    17 C    1.009    19 C    1.005    62 H    0.976
                            61 H    0.973
    19   6 C    3.995 --    20 C    1.021    18 C    1.005    64 H    0.977
                            63 H    0.977
    20   6 C    3.996 --    19 C    1.021    65 H    0.987    67 H    0.986
                            66 H    0.986
    21   6 C    3.930 --    22 C    1.008    69 H    0.969    68 H    0.958
                             8 N    0.919
    22   6 C    3.985 --    21 C    1.008    23 C    1.005    71 H    0.971
                            70 H    0.956
    23   6 C    3.993 --    24 C    1.006    22 C    1.005    72 H    0.972
                            73 H    0.969
    24   6 C    3.995 --    25 C    1.008    23 C    1.006    74 H    0.975
                            75 H    0.963
    25   6 C    3.997 --    26 C    1.020    24 C    1.008    77 H    0.975
                            76 H    0.975
    26   6 C    3.995 --    25 C    1.020    78 H    0.987    79 H    0.986
                            80 H    0.986
    27   1 H    0.999 --     1 C    0.985
    28   1 H    0.998 --     1 C    0.986
    29   1 H    0.999 --     1 C    0.987
    30   1 H    0.999 --     2 C    0.977
    31   1 H    0.998 --     2 C    0.977
    32   1 H    0.998 --     3 C    0.976
    33   1 H    0.999 --     3 C    0.976
    34   1 H    0.999 --     4 C    0.961
    35   1 H    0.998 --     4 C    0.974
    36   1 H    0.999 --     5 C    0.970
    37   1 H    0.997 --     5 C    0.972
    38   1 H    0.996 --     6 C    0.965
    39   1 H    0.995 --     6 C    0.961
    40   1 H    0.994 --     7 C    0.961
    41   1 H    0.993 --     7 C    0.964
    42   1 H    0.995 --     9 C    0.967
    43   1 H    0.993 --     9 C    0.957
    44   1 H    0.997 --    10 C    0.965
    45   1 H    0.997 --    10 C    0.971
    46   1 H    0.996 --    11 C    0.970
    47   1 H    0.999 --    11 C    0.976
    48   1 H    0.997 --    12 C    0.974
    49   1 H    0.999 --    12 C    0.972
    50   1 H    0.999 --    13 C    0.978
    51   1 H    0.999 --    13 C    0.973
    52   1 H    0.998 --    14 C    0.987
    53   1 H    0.998 --    14 C    0.986
    54   1 H    0.999 --    14 C    0.985
    55   1 H    0.992 --    15 C    0.956
    56   1 H    0.993 --    15 C    0.963
    57   1 H    0.997 --    16 C    0.967
    58   1 H    0.998 --    16 C    0.975
    59   1 H    0.996 --    17 C    0.973
    60   1 H    0.998 --    17 C    0.974
    61   1 H    0.999 --    18 C    0.973
    62   1 H    0.999 --    18 C    0.976
    63   1 H    0.998 --    19 C    0.977
    64   1 H    0.998 --    19 C    0.977
    65   1 H    0.999 --    20 C    0.987
    66   1 H    0.998 --    20 C    0.986
    67   1 H    0.999 --    20 C    0.986
    68   1 H    0.990 --    21 C    0.958
    69   1 H    0.995 --    21 C    0.969
    70   1 H    0.994 --    22 C    0.956
    71   1 H    0.997 --    22 C    0.971
    72   1 H    0.996 --    23 C    0.972
    73   1 H    0.999 --    23 C    0.969
    74   1 H    0.998 --    24 C    0.975
    75   1 H    0.999 --    24 C    0.963
    76   1 H    0.998 --    25 C    0.975
    77   1 H    0.999 --    25 C    0.975
    78   1 H    0.998 --    26 C    0.987
    79   1 H    0.998 --    26 C    0.986
    80   1 H    0.999 --    26 C    0.986
 ---------------------------------------------------------------------------

molecular dipole:
                 x           y           z       tot (Debye)
 q only:       -1.259      -9.631      -4.489
   full:       -1.279      -9.644      -4.421      27.160

           -------------------------------------------------
          | TOTAL ENERGY              -83.635143286598 Eh   |
          | GRADIENT NORM               0.000345563525 Eh/α |
          | HOMO-LUMO GAP               7.360096363914 eV   |
           -------------------------------------------------

 * finished run on 2024/12/20 at 06:58:02.766
