   * xtb version 6.7.1 (edcfbbe) compiled by 'conda@3ef47c1a292c' on 2024-11-25

   ID    Z sym.   atoms
    1    8 O      1
    2    6 C      2-9, 11, 12, 14-21
    3    7 N      10, 13
    4    1 H      22-44

          program call               : xtb C0795.xyz --opt --namespace C0795 --charge +1
          :  Hamiltonian                  GFN2-xTB          :
 * total energy  :   -59.7808634 Eh     change       -0.9995915E-09 Eh
 * total energy  :   -59.7904559 Eh     change       -0.9592547E-02 Eh
 * total energy  :   -59.7931236 Eh     change       -0.2667698E-02 Eh
 * total energy  :   -59.7938177 Eh     change       -0.6941368E-03 Eh
 * total energy  :   -59.7943673 Eh     change       -0.5495626E-03 Eh
 * total energy  :   -59.7946324 Eh     change       -0.2651380E-03 Eh
 * total energy  :   -59.7948631 Eh     change       -0.2306112E-03 Eh
 * total energy  :   -59.7951153 Eh     change       -0.2521943E-03 Eh
 * total energy  :   -59.7953745 Eh     change       -0.2592905E-03 Eh
 * total energy  :   -59.7956409 Eh     change       -0.2663713E-03 Eh
 * total energy  :   -59.7979765 Eh     change       -0.1551154E-04 Eh
 * total energy  :   -59.7979927 Eh     change       -0.1621200E-04 Eh
 * total energy  :   -59.7980037 Eh     change       -0.1095861E-04 Eh
 * total energy  :   -59.7980135 Eh     change       -0.9836761E-05 Eh
 * total energy  :   -59.7980273 Eh     change       -0.1380793E-04 Eh
 * total energy  :   -59.7980374 Eh     change       -0.1009584E-04 Eh
 * total energy  :   -59.7980458 Eh     change       -0.8375572E-05 Eh
 * total energy  :   -59.7980542 Eh     change       -0.8404360E-05 Eh
 * total energy  :   -59.7980591 Eh     change       -0.4904731E-05 Eh
   *** GEOMETRY OPTIMIZATION CONVERGED AFTER 42 ITERATIONS ***

 final structure:
================
44
 xtb: 6.7.1 (edcfbbe)
O            1.19056770687836        0.29371720037778        0.56252580726689
C            2.32521173410719        0.53449095016143        0.21874920479235
C            2.68918811213182        1.49666788151371       -0.81951872135406
C            4.00766414833482        1.75404745917537       -1.20884604686894
C            4.26427762320608        2.68395131107595       -2.19688836472030
C            3.22124918680261        3.36721299595368       -2.80762647110996
C            1.91050540203897        3.11836905319300       -2.43006711739982
C            1.64484994929361        2.19050000641528       -1.44408613504300
C            3.48441070375695       -0.21317442040145        0.92883868878877
N            2.93014915340095       -1.06557986592973        1.94374436050136
C            2.34132242377100       -2.27366294599255        1.70708210349995
C            1.83115237501051       -2.71028595346105        2.88619262256349
N            2.10124327108726       -1.75561397062040        3.82373706573067
C            2.75275472235764       -0.74824731018930        3.23352811650142
C            3.25890408393690        0.46894061559840        3.89121911919386
C            4.53398540295317        0.48724549558471        4.26179482779210
C            2.30393054676349        1.64877177178978        4.06451633627064
C            0.85704020167045        1.25418753929922        3.75535104426415
C            2.38322996827168        2.17284449029388        5.50299293617386
C            2.73092884413970        2.76071803270331        3.09508004870054
C            1.76341323988135       -1.85762551407220        5.21818608632178
H            4.83456866146214        1.23405322006286       -0.75106726485575
H            5.28237058222885        2.87880972784151       -2.49583857560539
H            3.43306363598202        4.09265290725033       -3.57787716798606
H            1.10002580429877        3.64804187157936       -2.90509804991405
H            0.63180327481110        1.98025095965280       -1.13594132297022
H            4.02501818622656       -0.82018144837439        0.19959866303386
H            4.16395939239756        0.50495896390005        1.39178687353052
H            2.32651125290143       -2.72490505961709        0.73661996687321
H            1.30486695196938       -3.61183558160973        3.12249751690957
H            4.97427430506289        1.34335894269595        4.73935129594066
H            5.18564609265752       -0.35769087524519        4.11174260627575
H            0.47944524576405        0.53059641863783        4.47306766966239
H            0.22686791595853        2.13733054246006        3.81846935029020
H            0.75155008318612        0.84954795744201        2.75110889126260
H            3.36730958317214        2.57189266477822        5.72827397683383
H            1.65941686407584        2.97173117690493        5.63763618431566
H            2.15624984046282        1.38828036747367        6.22142836583806
H            3.77906784973532        3.01595830217404        3.22643761774168
H            2.56814289667659        2.46258199274649        2.06159661905014
H            2.13771351675472        3.65138351736881        3.28170695125592
H            2.20049714015196       -1.02173355270074        5.76037409493515
H            0.68021297849020       -1.85040334161120        5.34710273463750
H            2.15366914575361       -2.79073449627822        5.62522749107548

          :  Hamiltonian                  GFN2-xTB          :
         :: total energy             -59.798059108459 Eh    ::
         :: gradient norm              0.000899145131 Eh/a0 ::
         :: HOMO-LUMO gap              3.170421767588 eV    ::
         :: SCC energy               -60.761282825172 Eh    ::
         :: -> dispersion             -0.046940799793 Eh    ::
         :: repulsion energy           0.963223716713 Eh    ::

    * Orbital Energies and Occupations

         #    Occupation            Energy/Eh            Energy/eV
      -------------------------------------------------------------
         1        2.0000           -0.8718492             -23.7242
       ...           ...                  ...                  ...
        43        2.0000           -0.5800990             -15.7853
        44        2.0000           -0.5705394             -15.5252
        45        2.0000           -0.5641042             -15.3501
        46        2.0000           -0.5614417             -15.2776
        47        2.0000           -0.5561406             -15.1334
        48        2.0000           -0.5482612             -14.9189
        49        2.0000           -0.5454460             -14.8423
        50        2.0000           -0.5434786             -14.7888
        51        2.0000           -0.5373063             -14.6208
        52        2.0000           -0.5316320             -14.4664
        53        2.0000           -0.5227366             -14.2244
        54        2.0000           -0.5197485             -14.1431
        55        2.0000           -0.5188131             -14.1176 (HOMO)
        56                         -0.4023023             -10.9472 (LUMO)
        57                         -0.3833968             -10.4328
        58                         -0.3590698              -9.7708
        59                         -0.3488145              -9.4917
        60                         -0.3354179              -9.1272
        61                         -0.3068443              -8.3497
        62                         -0.1978600              -5.3840
        63                         -0.1693276              -4.6076
        64                         -0.1057151              -2.8767
        65                         -0.0785561              -2.1376
        66                         -0.0662216              -1.8020
       ...                                ...                  ...
       107                          0.5563964              15.1403
      -------------------------------------------------------------
                  HL-Gap            0.1165109 Eh            3.1704 eV

     #   Z          covCN         q      C6AA      α(0)
     1   8 O        0.857    -0.361    20.924     6.133
     2   6 C        2.822     0.227    23.228     7.897
     3   6 C        2.970    -0.020    28.508     8.758
     4   6 C        2.919    -0.028    28.699     8.785
     5   6 C        2.917    -0.020    28.504     8.755
     6   6 C        2.920    -0.008    28.218     8.711
     7   6 C        2.916    -0.018    28.468     8.749
     8   6 C        2.927    -0.010    28.271     8.720
     9   6 C        3.742    -0.043    21.424     6.603
    10   7 N        2.877     0.052    20.327     6.696
    11   6 C        3.050    -0.001    27.999     8.678
    12   6 C        3.052    -0.009    28.203     8.710
    13   7 N        2.872     0.054    20.293     6.691
    14   6 C        3.120     0.104    25.528     8.275
    15   6 C        2.947     0.000    28.022     8.682
    16   6 C        2.852    -0.088    30.206     9.008
    17   6 C        3.902     0.031    20.003     6.357
    18   6 C        3.760    -0.122    22.892     6.821
    19   6 C        3.761    -0.117    22.796     6.806
    20   6 C        3.762    -0.113    22.706     6.793
    21   6 C        3.692    -0.075    22.122     6.730
    22   1 H        0.926     0.040     2.452     2.449
    23   1 H        0.926     0.059     2.206     2.323
    24   1 H        0.926     0.065     2.136     2.285
    25   1 H        0.926     0.064     2.148     2.292
    26   1 H        0.926     0.073     2.049     2.238
    27   1 H        0.924     0.096     1.824     2.112
    28   1 H        0.924     0.093     1.849     2.126
    29   1 H        0.926     0.100     1.780     2.086
    30   1 H        0.927     0.102     1.767     2.078
    31   1 H        0.926     0.081     1.964     2.191
    32   1 H        0.926     0.056     2.244     2.342
    33   1 H        0.925     0.036     2.500     2.472
    34   1 H        0.925     0.060     2.200     2.319
    35   1 H        0.925     0.052     2.292     2.367
    36   1 H        0.925     0.053     2.287     2.365
    37   1 H        0.925     0.063     2.161     2.299
    38   1 H        0.925     0.038     2.469     2.457
    39   1 H        0.925     0.046     2.373     2.409
    40   1 H        0.925     0.033     2.538     2.491
    41   1 H        0.925     0.065     2.144     2.290
    42   1 H        0.925     0.093     1.849     2.126
    43   1 H        0.924     0.098     1.800     2.098
    44   1 H        0.924     0.096     1.820     2.110

Wiberg/Mayer (AO) data.
largest (>0.10) Wiberg bond orders for each atom

     #   Z sym  total        # sym  WBO       # sym  WBO       # sym  WBO
 ---------------------------------------------------------------------------
     1   8 O    2.082 --     2 C    1.805
     2   6 C    3.932 --     1 O    1.805     3 C    1.074     9 C    0.928
     3   6 C    3.984 --     4 C    1.356     8 C    1.353     2 C    1.074
     4   6 C    3.991 --     5 C    1.472     3 C    1.356    22 H    0.967
                             7 C    0.102
     5   6 C    3.990 --     4 C    1.472     6 C    1.418    23 H    0.968
     6   6 C    3.986 --     7 C    1.428     5 C    1.418    24 H    0.968
     7   6 C    3.989 --     8 C    1.463     6 C    1.428    25 H    0.967
                             4 C    0.102
     8   6 C    3.983 --     7 C    1.463     3 C    1.353    26 H    0.964
     9   6 C    3.949 --    10 N    0.990    28 H    0.950    27 H    0.949
                             2 C    0.928
    10   7 N    3.695 --    14 C    1.313    11 C    1.207     9 C    0.990
    11   6 C    3.949 --    12 C    1.611    10 N    1.207    29 H    0.962
    12   6 C    3.947 --    11 C    1.611    13 N    1.208    30 H    0.962
    13   7 N    3.699 --    14 C    1.328    12 C    1.208    21 C    0.991
    14   6 C    3.942 --    13 N    1.328    10 N    1.313    15 C    1.007
    15   6 C    3.971 --    16 C    1.917    14 C    1.007    17 C    0.958
    16   6 C    3.985 --    15 C    1.917    32 H    0.974    31 H    0.965
    17   6 C    3.986 --    18 C    0.999    19 C    0.988    20 C    0.979
                            15 C    0.958
    18   6 C    3.991 --    17 C    0.999    33 H    0.984    34 H    0.982
                            35 H    0.975
    19   6 C    3.991 --    17 C    0.988    38 H    0.984    36 H    0.982
                            37 H    0.980
    20   6 C    3.992 --    39 H    0.984    40 H    0.983    41 H    0.979
                            17 C    0.979
    21   6 C    3.940 --    13 N    0.991    42 H    0.972    44 H    0.967
                            43 H    0.964
    22   1 H    0.998 --     4 C    0.967
    23   1 H    0.996 --     5 C    0.968
    24   1 H    0.995 --     6 C    0.968
    25   1 H    0.995 --     7 C    0.967
    26   1 H    0.995 --     8 C    0.964
    27   1 H    0.990 --     9 C    0.949
    28   1 H    0.991 --     9 C    0.950
    29   1 H    0.989 --    11 C    0.962
    30   1 H    0.988 --    12 C    0.962
    31   1 H    0.992 --    16 C    0.965
    32   1 H    0.996 --    16 C    0.974
    33   1 H    0.999 --    18 C    0.984
    34   1 H    0.996 --    18 C    0.982
    35   1 H    0.997 --    18 C    0.975
    36   1 H    0.997 --    19 C    0.982
    37   1 H    0.995 --    19 C    0.980
    38   1 H    0.998 --    19 C    0.984
    39   1 H    0.998 --    20 C    0.984
    40   1 H    0.999 --    20 C    0.983
    41   1 H    0.995 --    20 C    0.979
    42   1 H    0.991 --    21 C    0.972
    43   1 H    0.990 --    21 C    0.964
    44   1 H    0.990 --    21 C    0.967
 ---------------------------------------------------------------------------

molecular dipole:
                 x           y           z       tot (Debye)
 q only:        5.664      -0.427       4.620
   full:        5.877      -0.581       4.549      18.948

           -------------------------------------------------
          | TOTAL ENERGY              -59.798059108459 Eh   |
          | GRADIENT NORM               0.000899145131 Eh/α |
          | HOMO-LUMO GAP               3.170421767588 eV   |
           -------------------------------------------------

 * finished run on 2024/12/20 at 06:58:05.403
