   * xtb version 6.7.1 (edcfbbe) compiled by 'conda@3ef47c1a292c' on 2024-11-25

   ID    Z sym.   atoms
    1    9 F      1, 14, 15
    2    6 C      2, 3, 5, 6, 8-10, 12, 13
    3    8 O      4, 11
    4    7 N      7
    5    1 H      16-32

          program call               : xtb C0804.xyz --opt --namespace C0804 --charge +1
          :  Hamiltonian                  GFN2-xTB          :
 * total energy  :   -52.7742999 Eh     change       -0.8198953E-10 Eh
 * total energy  :   -52.7840118 Eh     change       -0.9711924E-02 Eh
 * total energy  :   -52.7866936 Eh     change       -0.2681777E-02 Eh
 * total energy  :   -52.7869399 Eh     change       -0.2462766E-03 Eh
 * total energy  :   -52.7873048 Eh     change       -0.3649627E-03 Eh
 * total energy  :   -52.7874880 Eh     change       -0.1832031E-03 Eh
 * total energy  :   -52.7878143 Eh     change       -0.3262365E-03 Eh
 * total energy  :   -52.7881627 Eh     change       -0.3483909E-03 Eh
 * total energy  :   -52.7884018 Eh     change       -0.2391311E-03 Eh
 * total energy  :   -52.7885671 Eh     change       -0.1652589E-03 Eh
 * total energy  :   -52.7945836 Eh     change       -0.1991986E-04 Eh
 * total energy  :   -52.7946017 Eh     change       -0.1804194E-04 Eh
 * total energy  :   -52.7946195 Eh     change       -0.1783272E-04 Eh
 * total energy  :   -52.7946324 Eh     change       -0.1287969E-04 Eh
 * total energy  :   -52.7946397 Eh     change       -0.7324014E-05 Eh
 * total energy  :   -52.7946450 Eh     change       -0.5242630E-05 Eh
 * total energy  :   -52.7946502 Eh     change       -0.5187001E-05 Eh
 * total energy  :   -52.7946555 Eh     change       -0.5388998E-05 Eh
 * total energy  :   -52.7946602 Eh     change       -0.4691297E-05 Eh
   *** GEOMETRY OPTIMIZATION CONVERGED AFTER 77 ITERATIONS ***

 final structure:
================
32
 xtb: 6.7.1 (edcfbbe)
F            1.99915761968172       -2.85092178616494       -1.67503792046989
C            3.18135858596537       -2.32973234071896       -1.29577932079621
C            3.17570171167962       -0.79651269652671       -1.36154909164417
O            2.44420917433374       -0.21239745509285       -0.31743250920991
C            1.03313458167932       -0.33331945220400       -0.35885476555025
C            0.45775711179055       -1.34528124168618        0.64629938165498
N            0.66773736911453       -1.04380319297316        2.09624790495996
C            2.09805844520847       -1.20021909285453        2.42753327320554
C            0.20223113914810        0.33428021697382        2.42082876589845
C            0.10047800035862        0.58062224744856        3.93323957805810
O           -0.72129287309271       -0.37165003439476        4.55075332826964
C           -0.21605285922837       -1.66731000293991        4.36942089791610
C           -0.15595785682679       -2.01548632978206        2.87779299065867
F            3.37385798877171       -2.76453032414638       -0.03675736480555
F            4.12038986510951       -2.85898084363978       -2.06234440533303
H            4.20551170537571       -0.45053428784192       -1.24092664247543
H            2.80323342925908       -0.50100037380696       -2.35032963424749
H            0.62744044640245        0.66629520461724       -0.17712427013351
H            0.69733550528606       -0.65034023986347       -1.35166570965395
H           -0.61702760037956       -1.39415289589590        0.45813959957150
H            0.87952882185011       -2.33429716979507        0.45911140339855
H            2.41812277117777       -2.22038400354434        2.22486039785068
H            2.68937942615443       -0.52332982802723        1.81467811273670
H            2.27840651409912       -0.98109312082899        3.47560782254749
H           -0.79102171078449        0.46258145662262        1.98448264429186
H            0.89231248319700        1.05660108810248        1.98609124005276
H           -0.37192230124688        1.55024137827745        4.10090914249978
H            1.09548713492015        0.59713707187245        4.39972138498221
H            0.76615554997167       -1.77573490875514        4.84948462257101
H           -0.91631613333929       -2.34342987103181        4.86317079563214
H            0.24640953818743       -3.01921459471818        2.73860785819385
H           -1.17650358382004       -1.98260257670509        2.48970048937347

          :  Hamiltonian                  GFN2-xTB          :
         :: total energy             -52.794660237565 Eh    ::
         :: gradient norm              0.000297449493 Eh/a0 ::
         :: HOMO-LUMO gap              8.397023252261 eV    ::
         :: SCC energy               -53.224237984046 Eh    ::
         :: -> dispersion             -0.026014207371 Eh    ::
         :: repulsion energy           0.429577746482 Eh    ::

    * Orbital Energies and Occupations

         #    Occupation            Energy/Eh            Energy/eV
      -------------------------------------------------------------
         1        2.0000           -1.0073080             -27.4102
       ...           ...                  ...                  ...
        33        2.0000           -0.6579268             -17.9031
        34        2.0000           -0.6550908             -17.8259
        35        2.0000           -0.6546882             -17.8150
        36        2.0000           -0.6511007             -17.7174
        37        2.0000           -0.6472776             -17.6133
        38        2.0000           -0.6423196             -17.4784
        39        2.0000           -0.6345494             -17.2670
        40        2.0000           -0.6298699             -17.1396
        41        2.0000           -0.6173104             -16.7979
        42        2.0000           -0.6135644             -16.6959
        43        2.0000           -0.6002345             -16.3332
        44        2.0000           -0.5750549             -15.6480
        45        2.0000           -0.5592563             -15.2181 (HOMO)
        46                         -0.2506713              -6.8211 (LUMO)
        47                         -0.1862024              -5.0668
        48                         -0.1800244              -4.8987
        49                         -0.1638031              -4.4573
        50                         -0.1548181              -4.2128
        51                         -0.1097777              -2.9872
        52                         -0.1001871              -2.7262
        53                         -0.0962239              -2.6184
        54                         -0.0948309              -2.5805
        55                         -0.0858651              -2.3365
        56                         -0.0708470              -1.9278
       ...                                ...                  ...
        77                          0.1392286               3.7886
      -------------------------------------------------------------
                  HL-Gap            0.3085849 Eh            8.3970 eV

     #   Z          covCN         q      C6AA      α(0)
     1   9 F        0.791    -0.207    11.305     3.972
     2   6 C        3.326     0.476    17.553     6.657
     3   6 C        3.690     0.047    19.971     6.396
     4   8 O        1.700    -0.292    18.847     5.861
     5   6 C        3.686     0.056    19.819     6.373
     6   6 C        3.761    -0.050    21.522     6.613
     7   7 N        3.621     0.128    19.049     6.482
     8   6 C        3.712    -0.105    22.652     6.801
     9   6 C        3.758    -0.048    21.485     6.609
    10   6 C        3.722     0.064    19.619     6.326
    11   8 O        1.702    -0.280    18.650     5.831
    12   6 C        3.722     0.063    19.628     6.327
    13   6 C        3.765    -0.047    21.448     6.601
    14   9 F        0.791    -0.204    11.279     3.967
    15   9 F        0.790    -0.176    10.989     3.916
    16   1 H        0.924     0.115     1.657     2.013
    17   1 H        0.924     0.084     1.937     2.177
    18   1 H        0.924     0.079     1.986     2.204
    19   1 H        0.924     0.083     1.951     2.184
    20   1 H        0.924     0.092     1.860     2.133
    21   1 H        0.924     0.106     1.728     2.056
    22   1 H        0.925     0.105     1.736     2.060
    23   1 H        0.925     0.121     1.604     1.981
    24   1 H        0.925     0.099     1.798     2.097
    25   1 H        0.924     0.095     1.835     2.119
    26   1 H        0.925     0.097     1.816     2.107
    27   1 H        0.924     0.100     1.786     2.090
    28   1 H        0.923     0.054     2.270     2.356
    29   1 H        0.923     0.055     2.255     2.348
    30   1 H        0.924     0.101     1.775     2.083
    31   1 H        0.924     0.092     1.858     2.132
    32   1 H        0.924     0.096     1.819     2.109

Wiberg/Mayer (AO) data.
largest (>0.10) Wiberg bond orders for each atom

     #   Z sym  total        # sym  WBO       # sym  WBO       # sym  WBO
 ---------------------------------------------------------------------------
     1   9 F    1.070 --     2 C    0.942
     2   6 C    3.837 --    15 F    0.980    14 F    0.944     1 F    0.942
                             3 C    0.937
     3   6 C    3.945 --     4 O    1.004    17 H    0.957    16 H    0.955
                             2 C    0.937
     4   8 O    2.104 --     3 C    1.004     5 C    0.981
     5   6 C    3.944 --     6 C    0.998     4 O    0.981    18 H    0.960
                            19 H    0.959
     6   6 C    3.939 --     5 C    0.998    20 H    0.964    21 H    0.961
                             7 N    0.937
     7   7 N    3.810 --     8 C    0.953     6 C    0.937     9 C    0.936
                            13 C    0.933
     8   6 C    3.914 --    22 H    0.972    24 H    0.968    23 H    0.963
                             7 N    0.953
     9   6 C    3.935 --    10 C    0.992    25 H    0.967    26 H    0.965
                             7 N    0.936
    10   6 C    3.952 --    11 O    1.000     9 C    0.992    28 H    0.960
                            27 H    0.959
    11   8 O    2.107 --    10 C    1.000    12 C    0.998
    12   6 C    3.951 --    11 O    0.998    13 C    0.995    29 H    0.960
                            30 H    0.958
    13   6 C    3.934 --    12 C    0.995    31 H    0.967    32 H    0.965
                             7 N    0.933
    14   9 F    1.071 --     2 C    0.944
    15   9 F    1.108 --     2 C    0.980
    16   1 H    0.987 --     3 C    0.955
    17   1 H    0.993 --     3 C    0.957
    18   1 H    0.994 --     5 C    0.960
    19   1 H    0.993 --     5 C    0.959
    20   1 H    0.992 --     6 C    0.964
    21   1 H    0.988 --     6 C    0.961
    22   1 H    0.989 --     8 C    0.972
    23   1 H    0.985 --     8 C    0.963
    24   1 H    0.990 --     8 C    0.968
    25   1 H    0.991 --     9 C    0.967
    26   1 H    0.991 --     9 C    0.965
    27   1 H    0.990 --    10 C    0.959
    28   1 H    0.997 --    10 C    0.960
    29   1 H    0.997 --    12 C    0.960
    30   1 H    0.989 --    12 C    0.958
    31   1 H    0.992 --    13 C    0.967
    32   1 H    0.991 --    13 C    0.965
 ---------------------------------------------------------------------------

molecular dipole:
                 x           y           z       tot (Debye)
 q only:        1.466      -1.152       3.385
   full:        1.552      -1.243       3.053       9.260

           -------------------------------------------------
          | TOTAL ENERGY              -52.794660237565 Eh   |
          | GRADIENT NORM               0.000297449493 Eh/α |
          | HOMO-LUMO GAP               8.397023252261 eV   |
           -------------------------------------------------

 * finished run on 2024/12/20 at 06:58:23.108
