   * xtb version 6.7.1 (edcfbbe) compiled by 'conda@3ef47c1a292c' on 2024-11-25

   ID    Z sym.   atoms
    1    6 C      1, 3-8, 10, 11, 13-19, 21
    2    8 O      2, 12
    3    7 N      9, 20
    4    1 H      22-38

          program call               : xtb C0805.xyz --opt --namespace C0805 --charge +1
          :  Hamiltonian                  GFN2-xTB          :
 * total energy  :   -58.6601196 Eh     change       -0.7556764E-09 Eh
 * total energy  :   -58.6672454 Eh     change       -0.7125809E-02 Eh
 * total energy  :   -58.6689962 Eh     change       -0.1750826E-02 Eh
 * total energy  :   -58.6692341 Eh     change       -0.2378988E-03 Eh
 * total energy  :   -58.6694420 Eh     change       -0.2078145E-03 Eh
 * total energy  :   -58.6695689 Eh     change       -0.1269018E-03 Eh
 * total energy  :   -58.6697276 Eh     change       -0.1587834E-03 Eh
 * total energy  :   -58.6699120 Eh     change       -0.1844010E-03 Eh
 * total energy  :   -58.6700953 Eh     change       -0.1832463E-03 Eh
 * total energy  :   -58.6703036 Eh     change       -0.2082675E-03 Eh
 * total energy  :   -58.6730631 Eh     change       -0.1522746E-04 Eh
 * total energy  :   -58.6730864 Eh     change       -0.2326949E-04 Eh
 * total energy  :   -58.6730718 Eh     change        0.1464363E-04 Eh
 * total energy  :   -58.6731089 Eh     change       -0.3708844E-04 Eh
 * total energy  :   -58.6731209 Eh     change       -0.1208931E-04 Eh
 * total energy  :   -58.6731297 Eh     change       -0.8768268E-05 Eh
 * total energy  :   -58.6731371 Eh     change       -0.7351025E-05 Eh
 * total energy  :   -58.6731437 Eh     change       -0.6618770E-05 Eh
 * total energy  :   -58.6731473 Eh     change       -0.3568633E-05 Eh
   *** GEOMETRY OPTIMIZATION CONVERGED AFTER 47 ITERATIONS ***

 final structure:
================
38
 xtb: 6.7.1 (edcfbbe)
C            1.00452240345214        0.05146556674661        0.13232877981999
O            0.22848864939422       -0.45291834185260       -0.93805494783932
C            0.75693503460183       -0.56847397707003       -2.15894181008659
C            2.08184241830156       -0.20837825571010       -2.48828404700653
C            2.58021993116102       -0.34583462144541       -3.76433836984854
C            1.72966421019522       -0.85824999273006       -4.73512254248200
C            0.40605622705973       -1.22246251906361       -4.41415088813965
C           -0.09955787703331       -1.08278264226698       -3.13694266325565
N           -0.16658534371177       -1.68187878978892       -5.58674231669486
C           -1.51717762986229       -2.16209285630398       -5.71394426766851
C           -1.73388784794081       -3.43319860375325       -4.84013526416677
O           -2.19728682078285       -3.29024068969713       -3.73604669167700
C           -1.35387724605165       -4.73527811077248       -5.39595161141446
C           -0.73449349340337       -4.91386685691211       -6.63622000730684
C           -0.41024220626874       -6.18347467534796       -7.07286155053404
C           -0.70245592180499       -7.29143994203278       -6.29052509627247
C           -1.31931422527752       -7.12825381545556       -5.05943355028204
C           -1.63939272916316       -5.86227229606299       -4.61412691202019
C            0.75437606862277       -1.59925067263154       -6.54648606598324
N            1.89876101321707       -1.11331089152127       -6.07982430750630
C            3.10356731282222       -0.87733324591981       -6.82683692013195
H            0.34535540451952        0.03384589140581        0.99779512933372
H            1.32521735172884        1.07929992820308       -0.05633772364787
H            1.87416455137266       -0.58108288211321        0.32832881681210
H            2.72977974637065        0.18828805858033       -1.72439138429760
H            3.59393746625249       -0.06191108094415       -3.99396029288091
H           -1.10252552202637       -1.36670586701667       -2.86657472067751
H           -2.19944037857181       -1.39934761046539       -5.32542747319271
H           -1.74724228170210       -2.35385684021815       -6.76135087473613
H           -0.50370099265830       -4.07292721579965       -7.27166388859191
H            0.06727239478098       -6.31425696690733       -8.03204546473737
H           -0.45150670187527       -8.27956095635780       -6.64386028404766
H           -1.55046115106201       -7.98835544808771       -4.45080412423776
H           -2.12084126959755       -5.71353551771621       -3.65964602409527
H            0.59093015003550       -1.86978281526346       -7.57270652018034
H            2.96563268081129       -1.18803039189145       -7.85989217009894
H            3.35543178212906        0.18398840307757       -6.80317615983679
H            3.92899484196485       -1.44084245889545       -6.38993579039398

          :  Hamiltonian                  GFN2-xTB          :
         :: total energy             -58.673147253177 Eh    ::
         :: gradient norm              0.000334395075 Eh/a0 ::
         :: HOMO-LUMO gap              2.615473927380 eV    ::
         :: SCC energy               -59.579990291057 Eh    ::
         :: -> dispersion             -0.038662004132 Eh    ::
         :: repulsion energy           0.906843037879 Eh    ::

    * Orbital Energies and Occupations

         #    Occupation            Energy/Eh            Energy/eV
      -------------------------------------------------------------
         1        2.0000           -0.8751738             -23.8147
       ...           ...                  ...                  ...
        41        2.0000           -0.5945291             -16.1780
        42        2.0000           -0.5913031             -16.0902
        43        2.0000           -0.5884907             -16.0136
        44        2.0000           -0.5783797             -15.7385
        45        2.0000           -0.5731896             -15.5973
        46        2.0000           -0.5549529             -15.1010
        47        2.0000           -0.5482333             -14.9182
        48        2.0000           -0.5438079             -14.7978
        49        2.0000           -0.5338248             -14.5261
        50        2.0000           -0.5243505             -14.2683
        51        2.0000           -0.5209385             -14.1755
        52        2.0000           -0.5174243             -14.0798
        53        2.0000           -0.5059922             -13.7687 (HOMO)
        54                         -0.4098753             -11.1533 (LUMO)
        55                         -0.4011084             -10.9147
        56                         -0.3510487              -9.5525
        57                         -0.3443937              -9.3714
        58                         -0.3378409              -9.1931
        59                         -0.3101085              -8.4385
        60                         -0.2275015              -6.1906
        61                         -0.2019455              -5.4952
        62                         -0.1658428              -4.5128
        63                         -0.1241673              -3.3788
        64                         -0.0861074              -2.3431
       ...                                ...                  ...
       101                          0.5612519              15.2724
      -------------------------------------------------------------
                  HL-Gap            0.0961169 Eh            2.6155 eV

     #   Z          covCN         q      C6AA      α(0)
     1   6 C        3.642     0.018    20.620     6.529
     2   8 O        1.707    -0.221    17.667     5.675
     3   6 C        2.867     0.162    24.492     8.112
     4   6 C        2.922    -0.057    29.422     8.895
     5   6 C        2.908    -0.036    28.894     8.814
     6   6 C        3.120     0.023    27.329     8.562
     7   6 C        3.108     0.041    26.952     8.506
     8   6 C        2.910    -0.067    29.667     8.931
     9   7 N        2.826     0.034    20.645     6.748
    10   6 C        3.738    -0.046    21.474     6.612
    11   6 C        2.820     0.226    23.258     7.902
    12   8 O        0.858    -0.327    20.270     6.036
    13   6 C        2.969    -0.018    28.459     8.750
    14   6 C        2.919    -0.029    28.717     8.788
    15   6 C        2.917    -0.023    28.572     8.765
    16   6 C        2.920    -0.009    28.248     8.716
    17   6 C        2.916    -0.018    28.450     8.747
    18   6 C        2.928    -0.010    28.274     8.720
    19   6 C        3.065     0.057    26.658     8.466
    20   7 N        2.822     0.043    20.483     6.722
    21   6 C        3.691    -0.076    22.148     6.734
    22   1 H        0.925     0.091     1.870     2.138
    23   1 H        0.924     0.060     2.197     2.318
    24   1 H        0.924     0.060     2.200     2.320
    25   1 H        0.926     0.078     1.996     2.209
    26   1 H        0.926     0.072     2.059     2.244
    27   1 H        0.926     0.106     1.730     2.057
    28   1 H        0.924     0.105     1.744     2.065
    29   1 H        0.925     0.084     1.935     2.175
    30   1 H        0.926     0.028     2.618     2.530
    31   1 H        0.926     0.054     2.274     2.358
    32   1 H        0.926     0.064     2.151     2.293
    33   1 H        0.926     0.065     2.141     2.288
    34   1 H        0.926     0.077     2.009     2.216
    35   1 H        0.926     0.098     1.801     2.099
    36   1 H        0.925     0.091     1.868     2.137
    37   1 H        0.924     0.100     1.789     2.092
    38   1 H        0.924     0.099     1.797     2.096

Wiberg/Mayer (AO) data.
largest (>0.10) Wiberg bond orders for each atom

     #   Z sym  total        # sym  WBO       # sym  WBO       # sym  WBO
 ---------------------------------------------------------------------------
     1   6 C    3.923 --    22 H    0.976    24 H    0.975    23 H    0.975
                             2 O    0.965
     2   8 O    2.309 --     3 C    1.142     1 C    0.965
     3   6 C    3.946 --     8 C    1.363     4 C    1.290     2 O    1.142
     4   6 C    3.987 --     5 C    1.511     3 C    1.290    25 H    0.961
     5   6 C    3.986 --     4 C    1.511     6 C    1.332    26 H    0.964
                             8 C    0.109
     6   6 C    3.947 --     5 C    1.332     7 C    1.253    20 N    1.124
     7   6 C    3.953 --     8 C    1.381     6 C    1.253     9 N    1.116
     8   6 C    3.977 --     7 C    1.381     3 C    1.363    27 H    0.953
                             5 C    0.109
     9   7 N    3.676 --    19 C    1.347     7 C    1.116    10 C    0.982
                            20 N    0.107
    10   6 C    3.941 --     9 N    0.982    29 H    0.963    28 H    0.954
                            11 C    0.916
    11   6 C    3.931 --    12 O    1.840    13 C    1.069    10 C    0.916
    12   8 O    2.110 --    11 C    1.840
    13   6 C    3.986 --    14 C    1.361    18 C    1.354    11 C    1.069
    14   6 C    3.993 --    15 C    1.469    13 C    1.361    30 H    0.965
                            17 C    0.103
    15   6 C    3.991 --    14 C    1.469    16 C    1.420    31 H    0.969
                            18 C    0.100
    16   6 C    3.986 --    17 C    1.428    15 C    1.420    32 H    0.969
    17   6 C    3.989 --    18 C    1.463    16 C    1.428    33 H    0.967
                            14 C    0.103
    18   6 C    3.984 --    17 C    1.463    13 C    1.354    34 H    0.963
                            15 C    0.100
    19   6 C    3.944 --    20 N    1.367     9 N    1.347    35 H    0.953
    20   7 N    3.686 --    19 C    1.367     6 C    1.124    21 C    0.992
                             9 N    0.107
    21   6 C    3.940 --    20 N    0.992    36 H    0.977    38 H    0.965
                            37 H    0.964
    22   1 H    0.991 --     1 C    0.976
    23   1 H    0.995 --     1 C    0.975
    24   1 H    0.996 --     1 C    0.975
    25   1 H    0.993 --     4 C    0.961
    26   1 H    0.994 --     5 C    0.964
    27   1 H    0.988 --     8 C    0.953
    28   1 H    0.988 --    10 C    0.954
    29   1 H    0.992 --    10 C    0.963
    30   1 H    0.999 --    14 C    0.965
    31   1 H    0.997 --    15 C    0.969
    32   1 H    0.995 --    16 C    0.969
    33   1 H    0.995 --    17 C    0.967
    34   1 H    0.994 --    18 C    0.963
    35   1 H    0.989 --    19 C    0.953
    36   1 H    0.991 --    21 C    0.977
    37   1 H    0.989 --    21 C    0.964
    38   1 H    0.989 --    21 C    0.965
 ---------------------------------------------------------------------------

molecular dipole:
                 x           y           z       tot (Debye)
 q only:        2.402      -3.553     -10.135
   full:        2.558      -3.501     -10.535      28.958

           -------------------------------------------------
          | TOTAL ENERGY              -58.673147253177 Eh   |
          | GRADIENT NORM               0.000334395075 Eh/α |
          | HOMO-LUMO GAP               2.615473927380 eV   |
           -------------------------------------------------

 * finished run on 2024/12/20 at 06:58:24.770
