   * xtb version 6.7.1 (edcfbbe) compiled by 'conda@3ef47c1a292c' on 2024-11-25

   ID    Z sym.   atoms
    1    6 C      1-6, 8-16
    2    7 N      7
    3    1 H      17-36

          program call               : xtb C0801.xyz --opt --namespace C0801 --charge +1
          :  Hamiltonian                  GFN2-xTB          :
 * total energy  :   -44.8545188 Eh     change       -0.4156156E-08 Eh
 * total energy  :   -44.8589842 Eh     change       -0.4465360E-02 Eh
 * total energy  :   -44.8598334 Eh     change       -0.8492105E-03 Eh
 * total energy  :   -44.8599244 Eh     change       -0.9100777E-04 Eh
 * total energy  :   -44.8599911 Eh     change       -0.6672485E-04 Eh
 * total energy  :   -44.8600121 Eh     change       -0.2094542E-04 Eh
 * total energy  :   -44.8600381 Eh     change       -0.2600896E-04 Eh
 * total energy  :   -44.8600678 Eh     change       -0.2974519E-04 Eh
 * total energy  :   -44.8600880 Eh     change       -0.2016472E-04 Eh
 * total energy  :   -44.8601269 Eh     change       -0.3892120E-04 Eh
 * total energy  :   -44.8601643 Eh     change       -0.3739521E-04 Eh
 * total energy  :   -44.8601788 Eh     change       -0.1454982E-04 Eh
 * total energy  :   -44.8601845 Eh     change       -0.5627893E-05 Eh
 * total energy  :   -44.8601893 Eh     change       -0.4856686E-05 Eh
   *** GEOMETRY OPTIMIZATION CONVERGED AFTER 14 ITERATIONS ***

 final structure:
================
36
 xtb: 6.7.1 (edcfbbe)
C            1.01345144870529       -0.17326937401587       -0.09420215537179
C            0.69116237021354        0.04238668813644        1.37921808217698
C            1.19135425572872        1.38374726261303        1.91988172467167
C            0.64391330378526        2.61686169086829        1.19537482436524
C           -0.87978177610969        2.73804844987752        1.18532918942367
C           -1.50179569717936        2.95801424374464        2.57131755099462
N           -1.10543511485487        4.24427813640432        3.11651287585885
C           -0.04567834907991        4.31877167386548        3.95947576002513
C            0.40376350136428        5.51643083122991        4.43036614097267
C           -0.22837475745881        6.71755617328341        4.04421912856926
C           -1.34544989612942        6.61467469365641        3.15872162596780
C           -1.73310809408820        5.34274977509161        2.72841164983993
C           -2.01541832073499        7.78920745329841        2.74591765701773
C           -1.58766653995492        9.00817349897314        3.19380332223036
C           -0.48718700177020        9.10776272822717        4.06501148469343
C            0.18194847331445        7.98791369844272        4.48539227228516
H            0.45956322994731        0.51286166122226       -0.73007474276636
H            0.75042796664548       -1.18596861988054       -0.38702484772101
H            2.07620756971232       -0.03253917536512       -0.27582667397192
H           -0.38550225681187       -0.05302556912222        1.53716679121478
H            1.16978066871064       -0.74709423325551        1.96160578188042
H            0.96002380924702        1.43370822501539        2.98715325884168
H            2.27891622171115        1.40783518671609        1.83004464820549
H            1.08409457320634        3.51408876344124        1.64124784353253
H            0.97944041815799        2.58457127946865        0.15904998663626
H           -1.16661125435661        3.56705285161003        0.53420055136233
H           -1.31332776058490        1.82917133320522        0.77060311993935
H           -2.59019069992246        2.93179156495608        2.48925664885686
H           -1.18449440510227        2.16864915384931        3.25266356828267
H            0.41709747847509        3.38668289424635        4.24167087359587
H            1.24731518209723        5.54695225877240        5.10157550042358
H           -2.57282438429644        5.22808223749438        2.05699867790691
H           -2.85904150192089        7.70650800748889        2.07858314682397
H           -2.09343054879710        9.90807319522435        2.88078193770388
H           -0.17142976157636       10.08307336292634        4.40151287151281
H            1.02521764970654        8.06402799828964        5.15400992401744

          :  Hamiltonian                  GFN2-xTB          :
         :: total energy             -44.860189323268 Eh    ::
         :: gradient norm              0.000507532797 Eh/a0 ::
         :: HOMO-LUMO gap              1.834588127241 eV    ::
         :: SCC energy               -45.629539283352 Eh    ::
         :: -> dispersion             -0.032052996239 Eh    ::
         :: repulsion energy           0.769349960084 Eh    ::

    * Orbital Energies and Occupations

         #    Occupation            Energy/Eh            Energy/eV
      -------------------------------------------------------------
         1        2.0000           -0.8605415             -23.4165
       ...           ...                  ...                  ...
        30        2.0000           -0.6038688             -16.4321
        31        2.0000           -0.5904703             -16.0675
        32        2.0000           -0.5844678             -15.9042
        33        2.0000           -0.5779894             -15.7279
        34        2.0000           -0.5760999             -15.6765
        35        2.0000           -0.5727425             -15.5851
        36        2.0000           -0.5648387             -15.3700
        37        2.0000           -0.5591245             -15.2146
        38        2.0000           -0.5504999             -14.9799
        39        2.0000           -0.5484184             -14.9232
        40        2.0000           -0.5288299             -14.3902
        41        2.0000           -0.5217292             -14.1970
        42        2.0000           -0.5163850             -14.0515 (HOMO)
        43                         -0.4489651             -12.2170 (LUMO)
        44                         -0.4139209             -11.2634
        45                         -0.3584289              -9.7533
        46                         -0.3251401              -8.8475
        47                         -0.2284176              -6.2156
        48                         -0.1562414              -4.2515
        49                         -0.0732164              -1.9923
        50                         -0.0541648              -1.4739
        51                         -0.0470740              -1.2809
        52                         -0.0286454              -0.7795
        53                         -0.0206055              -0.5607
       ...                                ...                  ...
        84                          0.5312310              14.4555
      -------------------------------------------------------------
                  HL-Gap            0.0674199 Eh            1.8346 eV

     #   Z          covCN         q      C6AA      α(0)
     1   6 C        3.752    -0.109    22.644     6.786
     2   6 C        3.799    -0.057    21.602     6.618
     3   6 C        3.800    -0.062    21.690     6.631
     4   6 C        3.800    -0.065    21.753     6.641
     5   6 C        3.801    -0.068    21.800     6.648
     6   6 C        3.759    -0.032    21.192     6.563
     7   7 N        2.747     0.097    19.565     6.569
     8   6 C        2.884     0.017    27.632     8.618
     9   6 C        2.913    -0.022    28.565     8.764
    10   6 C        2.990     0.040    27.086     8.537
    11   6 C        2.984     0.024    27.462     8.596
    12   6 C        2.892     0.029    27.348     8.574
    13   6 C        2.915    -0.021    28.524     8.758
    14   6 C        2.915    -0.006    28.166     8.703
    15   6 C        2.916    -0.000    28.039     8.683
    16   6 C        2.914    -0.022    28.543     8.761
    17   1 H        0.925     0.034     2.523     2.484
    18   1 H        0.925     0.046     2.370     2.408
    19   1 H        0.925     0.043     2.408     2.427
    20   1 H        0.924     0.029     2.607     2.525
    21   1 H        0.924     0.043     2.409     2.427
    22   1 H        0.924     0.019     2.745     2.591
    23   1 H        0.924     0.048     2.350     2.397
    24   1 H        0.924     0.024     2.677     2.559
    25   1 H        0.925     0.063     2.159     2.298
    26   1 H        0.924     0.048     2.351     2.398
    27   1 H        0.925     0.081     1.972     2.196
    28   1 H        0.924     0.082     1.959     2.189
    29   1 H        0.925     0.092     1.859     2.132
    30   1 H        0.926     0.098     1.806     2.101
    31   1 H        0.926     0.094     1.836     2.119
    32   1 H        0.925     0.098     1.807     2.102
    33   1 H        0.926     0.072     2.060     2.244
    34   1 H        0.926     0.082     1.955     2.187
    35   1 H        0.926     0.083     1.945     2.181
    36   1 H        0.926     0.077     2.011     2.218

Wiberg/Mayer (AO) data.
largest (>0.10) Wiberg bond orders for each atom

     #   Z sym  total        # sym  WBO       # sym  WBO       # sym  WBO
 ---------------------------------------------------------------------------
     1   6 C    3.995 --     2 C    1.021    19 H    0.987    17 H    0.986
                            18 H    0.986
     2   6 C    3.996 --     1 C    1.021     3 C    1.007    21 H    0.977
                            20 H    0.976
     3   6 C    3.995 --     2 C    1.007     4 C    1.006    23 H    0.975
                            22 H    0.973
     4   6 C    3.993 --     5 C    1.009     3 C    1.006    24 H    0.974
                            25 H    0.969
     5   6 C    3.978 --     4 C    1.009     6 C    0.977    26 H    0.974
                            27 H    0.962
     6   6 C    3.936 --     5 C    0.977     7 N    0.965    28 H    0.964
                            29 H    0.961
     7   7 N    3.755 --    12 C    1.393     8 C    1.229     6 C    0.965
     8   6 C    3.958 --     9 C    1.560     7 N    1.229    30 H    0.954
     9   6 C    3.984 --     8 C    1.560    10 C    1.280    31 H    0.959
    10   6 C    3.988 --    16 C    1.298     9 C    1.280    11 C    1.206
    11   6 C    3.989 --    12 C    1.340    13 C    1.260    10 C    1.206
    12   6 C    3.960 --     7 N    1.393    11 C    1.340    32 H    0.953
    13   6 C    3.984 --    14 C    1.563    11 C    1.260    33 H    0.964
                            16 C    0.109
    14   6 C    3.984 --    13 C    1.563    15 C    1.312    34 H    0.965
    15   6 C    3.976 --    16 C    1.540    14 C    1.312    35 H    0.965
    16   6 C    3.987 --    15 C    1.540    10 C    1.298    36 H    0.963
                            13 C    0.109
    17   1 H    0.999 --     1 C    0.986
    18   1 H    0.998 --     1 C    0.986
    19   1 H    0.998 --     1 C    0.987
    20   1 H    0.999 --     2 C    0.976
    21   1 H    0.998 --     2 C    0.977
    22   1 H    1.000 --     3 C    0.973
    23   1 H    0.998 --     3 C    0.975
    24   1 H    0.999 --     4 C    0.974
    25   1 H    0.995 --     4 C    0.969
    26   1 H    0.998 --     5 C    0.974
    27   1 H    0.992 --     5 C    0.962
    28   1 H    0.992 --     6 C    0.964
    29   1 H    0.991 --     6 C    0.961
    30   1 H    0.990 --     8 C    0.954
    31   1 H    0.990 --     9 C    0.959
    32   1 H    0.990 --    12 C    0.953
    33   1 H    0.994 --    13 C    0.964
    34   1 H    0.993 --    14 C    0.965
    35   1 H    0.993 --    15 C    0.965
    36   1 H    0.994 --    16 C    0.963
 ---------------------------------------------------------------------------

molecular dipole:
                 x           y           z       tot (Debye)
 q only:       -1.542       9.949       5.847
   full:       -1.619       9.939       5.888      29.650

           -------------------------------------------------
          | TOTAL ENERGY              -44.860189323268 Eh   |
          | GRADIENT NORM               0.000507532797 Eh/α |
          | HOMO-LUMO GAP               1.834588127241 eV   |
           -------------------------------------------------

 * finished run on 2024/12/20 at 06:58:20.772
