   * xtb version 6.7.1 (edcfbbe) compiled by 'conda@3ef47c1a292c' on 2024-11-25

   ID    Z sym.   atoms
    1    6 C      1, 5-10
    2    7 N      2-4
    3    1 H      11-22

          program call               : xtb C0807.xyz --opt --namespace C0807 --charge +1
          :  Hamiltonian                  GFN2-xTB          :
 * total energy  :   -29.4848203 Eh     change       -0.2114220E-10 Eh
 * total energy  :   -29.4932799 Eh     change       -0.8459580E-02 Eh
 * total energy  :   -29.4943593 Eh     change       -0.1079416E-02 Eh
 * total energy  :   -29.4945011 Eh     change       -0.1418630E-03 Eh
 * total energy  :   -29.4945936 Eh     change       -0.9245360E-04 Eh
 * total energy  :   -29.4946091 Eh     change       -0.1553622E-04 Eh
 * total energy  :   -29.4946358 Eh     change       -0.2671788E-04 Eh
 * total energy  :   -29.4946514 Eh     change       -0.1556037E-04 Eh
 * total energy  :   -29.4946956 Eh     change       -0.4421172E-04 Eh
 * total energy  :   -29.4947094 Eh     change       -0.1383753E-04 Eh
 * total energy  :   -29.4947326 Eh     change       -0.2315223E-04 Eh
 * total energy  :   -29.4947407 Eh     change       -0.8144182E-05 Eh
 * total energy  :   -29.4947546 Eh     change       -0.1382113E-04 Eh
 * total energy  :   -29.4947603 Eh     change       -0.5731741E-05 Eh
 * total energy  :   -29.4947713 Eh     change       -0.1101715E-04 Eh
 * total energy  :   -29.4947845 Eh     change       -0.1317802E-04 Eh
 * total energy  :   -29.4947940 Eh     change       -0.9543434E-05 Eh
 * total energy  :   -29.4948039 Eh     change       -0.9897565E-05 Eh
 * total energy  :   -29.4948070 Eh     change       -0.3035513E-05 Eh
   *** GEOMETRY OPTIMIZATION CONVERGED AFTER 19 ITERATIONS ***

 final structure:
================
22
 xtb: 6.7.1 (edcfbbe)
C            0.87362064816183        0.08294596981110       -0.14078444296026
N            0.46209751478497       -0.34548206650715       -1.44461290292124
N           -0.04144347721406        0.49765925445113       -2.29299507869857
N           -0.31019639447087       -0.17221993427629       -3.37524123987719
C           -0.90449758525442        0.44521564579363       -4.53368312742940
C           -0.67611179484177       -0.44273209913886       -5.75249526374117
C           -1.08525318338382       -1.87839541975358       -5.43057593110327
C           -0.16700789948140       -2.45388081575220       -4.34970525344583
C            0.01498701629749       -1.47839022983680       -3.24965262269090
C            0.52559782130777       -1.58516693865442       -1.97041614841436
H            0.32216411818949       -0.46042418145241        0.62760545429543
H            0.66995828182018        1.14840206016012       -0.05363737208084
H            1.94100730171667       -0.09849690897358       -0.00243337392882
H           -0.46627245926636        1.43794771979651       -4.65458376231716
H           -1.97580741475176        0.57000155646174       -4.34361036657521
H            0.37517462653811       -0.41382820666605       -6.04411878544891
H           -1.26450052530822       -0.05661410673352       -6.58282583790505
H           -2.12127505803770       -1.89767456657559       -5.08823186407636
H           -1.02010227231979       -2.49638644772874       -6.32413635960029
H           -0.56291842203750       -3.38988236092260       -3.95283653580140
H            0.81565265620682       -2.67850260821090       -4.77638784666282
H            0.90764650134432       -2.43151531529152       -1.43843133861642

          :  Hamiltonian                  GFN2-xTB          :
         :: total energy             -29.494806970391 Eh    ::
         :: gradient norm              0.000990507256 Eh/a0 ::
         :: HOMO-LUMO gap              3.903210291936 eV    ::
         :: SCC energy               -29.900072820426 Eh    ::
         :: -> dispersion             -0.016028881174 Eh    ::
         :: repulsion energy           0.405265850035 Eh    ::

    * Orbital Energies and Occupations

         #    Occupation            Energy/Eh            Energy/eV
      -------------------------------------------------------------
         1        2.0000           -0.9250925             -25.1730
       ...           ...                  ...                  ...
        15        2.0000           -0.6782734             -18.4568
        16        2.0000           -0.6736230             -18.3302
        17        2.0000           -0.6669408             -18.1484
        18        2.0000           -0.6564757             -17.8636
        19        2.0000           -0.6452345             -17.5577
        20        2.0000           -0.6430551             -17.4984
        21        2.0000           -0.6325694             -17.2131
        22        2.0000           -0.6146138             -16.7245
        23        2.0000           -0.6117672             -16.6470
        24        2.0000           -0.5940683             -16.1654
        25        2.0000           -0.5897131             -16.0469
        26        2.0000           -0.5885828             -16.0162
        27        2.0000           -0.5782358             -15.7346 (HOMO)
        28                         -0.4347955             -11.8314 (LUMO)
        29                         -0.3801418             -10.3442
        30                         -0.1917780              -5.2185
        31                         -0.1503130              -4.0902
        32                         -0.0928934              -2.5278
        33                         -0.0757627              -2.0616
        34                         -0.0539236              -1.4673
        35                         -0.0416590              -1.1336
        36                         -0.0368647              -1.0031
        37                         -0.0183688              -0.4998
        38                         -0.0156613              -0.4262
       ...                                ...                  ...
        52                          0.4406314              11.9902
      -------------------------------------------------------------
                  HL-Gap            0.1434403 Eh            3.9032 eV

     #   Z          covCN         q      C6AA      α(0)
     1   6 C        3.695    -0.095    22.494     6.785
     2   7 N        3.030     0.162    18.510     6.390
     3   7 N        2.145    -0.120    24.150     7.292
     4   7 N        3.052     0.143    18.821     6.443
     5   6 C        3.746    -0.030    21.178     6.564
     6   6 C        3.807    -0.074    21.915     6.664
     7   6 C        3.808    -0.071    21.848     6.654
     8   6 C        3.807    -0.072    21.881     6.659
     9   6 C        3.053     0.053    26.764     8.484
    10   6 C        3.023    -0.027    28.661     8.782
    11   1 H        0.924     0.113     1.674     2.023
    12   1 H        0.925     0.122     1.594     1.974
    13   1 H        0.924     0.113     1.674     2.023
    14   1 H        0.924     0.103     1.754     2.071
    15   1 H        0.924     0.100     1.782     2.088
    16   1 H        0.924     0.068     2.106     2.269
    17   1 H        0.925     0.083     1.946     2.182
    18   1 H        0.924     0.063     2.168     2.303
    19   1 H        0.925     0.078     2.005     2.214
    20   1 H        0.924     0.089     1.885     2.147
    21   1 H        0.924     0.093     1.851     2.128
    22   1 H        0.927     0.107     1.724     2.053

Wiberg/Mayer (AO) data.
largest (>0.10) Wiberg bond orders for each atom

     #   Z sym  total        # sym  WBO       # sym  WBO       # sym  WBO
 ---------------------------------------------------------------------------
     1   6 C    3.925 --     2 N    0.990    12 H    0.970    11 H    0.957
                            13 H    0.957
     2   7 N    3.759 --     3 N    1.325    10 C    1.293     1 C    0.990
     3   7 N    2.994 --     2 N    1.325     4 N    1.306    10 C    0.136
                             9 C    0.103
     4   7 N    3.744 --     3 N    1.306     9 C    1.271     5 C    0.967
     5   6 C    3.935 --     6 C    1.002     4 N    0.967    14 H    0.956
                            15 H    0.945
     6   6 C    3.985 --     7 C    1.009     5 C    1.002    16 H    0.973
                            17 H    0.968
     7   6 C    3.989 --     6 C    1.009     8 C    1.001    18 H    0.975
                            19 H    0.972
     8   6 C    3.984 --     9 C    1.031     7 C    1.001    20 H    0.953
                            21 H    0.939
     9   6 C    3.959 --    10 C    1.459     4 N    1.271     8 C    1.031
                             3 N    0.103
    10   6 C    3.953 --     9 C    1.459     2 N    1.293    22 H    0.961
                             3 N    0.136
    11   1 H    0.986 --     1 C    0.957
    12   1 H    0.985 --     1 C    0.970
    13   1 H    0.986 --     1 C    0.957
    14   1 H    0.989 --     5 C    0.956
    15   1 H    0.989 --     5 C    0.945
    16   1 H    0.995 --     6 C    0.973
    17   1 H    0.993 --     6 C    0.968
    18   1 H    0.996 --     7 C    0.975
    19   1 H    0.994 --     7 C    0.972
    20   1 H    0.992 --     8 C    0.953
    21   1 H    0.991 --     8 C    0.939
    22   1 H    0.989 --    10 C    0.961
 ---------------------------------------------------------------------------

molecular dipole:
                 x           y           z       tot (Debye)
 q only:        0.052      -1.372      -5.393
   full:        0.141      -1.636      -5.280      14.054

           -------------------------------------------------
          | TOTAL ENERGY              -29.494806970391 Eh   |
          | GRADIENT NORM               0.000990507256 Eh/α |
          | HOMO-LUMO GAP               3.903210291936 eV   |
           -------------------------------------------------

 * finished run on 2024/12/20 at 06:58:26.232
