   * xtb version 6.7.1 (edcfbbe) compiled by 'conda@3ef47c1a292c' on 2024-11-25

   ID    Z sym.   atoms
    1    6 C      1-17, 19-27
    2    7 N      18
    3    1 H      28-67

          program call               : xtb C0809.xyz --opt --namespace C0809 --charge +1
          :  Hamiltonian                  GFN2-xTB          :
 * total energy  :   -78.5973090 Eh     change       -0.1630411E-09 Eh
 * total energy  :   -78.6056827 Eh     change       -0.8373742E-02 Eh
 * total energy  :   -78.6079491 Eh     change       -0.2266358E-02 Eh
 * total energy  :   -78.6084059 Eh     change       -0.4568340E-03 Eh
 * total energy  :   -78.6087505 Eh     change       -0.3445525E-03 Eh
 * total energy  :   -78.6089335 Eh     change       -0.1830488E-03 Eh
 * total energy  :   -78.6091054 Eh     change       -0.1719071E-03 Eh
 * total energy  :   -78.6092392 Eh     change       -0.1337946E-03 Eh
 * total energy  :   -78.6093085 Eh     change       -0.6925813E-04 Eh
 * total energy  :   -78.6093622 Eh     change       -0.5369052E-04 Eh
 * total energy  :   -78.6114201 Eh     change       -0.1074895E-04 Eh
 * total energy  :   -78.6114292 Eh     change       -0.9062761E-05 Eh
 * total energy  :   -78.6114361 Eh     change       -0.6941787E-05 Eh
 * total energy  :   -78.6114421 Eh     change       -0.5989309E-05 Eh
 * total energy  :   -78.6114487 Eh     change       -0.6532284E-05 Eh
 * total energy  :   -78.6114569 Eh     change       -0.8281105E-05 Eh
 * total energy  :   -78.6114671 Eh     change       -0.1019722E-04 Eh
 * total energy  :   -78.6114776 Eh     change       -0.1042221E-04 Eh
 * total energy  :   -78.6114807 Eh     change       -0.3094713E-05 Eh
   *** GEOMETRY OPTIMIZATION CONVERGED AFTER 68 ITERATIONS ***

 final structure:
================
67
 xtb: 6.7.1 (edcfbbe)
C            1.75312394408652       -0.39780298030255       -0.42369618289287
C            1.08936900534272       -1.74956455648045       -0.65809880010703
C            1.35740406964630       -2.75753408841991        0.46067873294173
C            0.84939835266699       -2.33974927403792        1.84235727514749
C           -0.65031952868393       -2.04781669839851        1.91729155436973
C           -1.55667315603469       -3.21893009227145        1.53385995900428
C           -1.41134237524324       -4.46538664176760        2.40950605273942
C           -1.65849661641480       -4.23719341151580        3.90265225175750
C           -3.00786192770211       -3.60114816851216        4.24160013786544
C           -4.22980170630106       -4.38848322045535        3.76678496684661
C           -4.34878239187701       -5.78518085235484        4.39418262984222
C           -4.25102310411794       -5.75433345844415        5.88643733103159
C           -5.05846222404347       -4.91498028602996        6.64497361445167
C           -4.92726809495338       -4.82712593982199        8.01937976796532
C           -3.98482598785551       -5.60246704133160        8.67736560087234
C           -3.19789217391548       -6.47767709568031        7.93739613636068
C           -3.33025700329482       -6.54582919821754        6.56366461733677
N           -3.76129743628840       -5.50387749325231       10.14092339338918
C           -2.36782095223605       -4.98464583859195       10.38535884036131
C           -2.12219436996268       -3.64720873746229        9.73623347074724
C           -1.68747515125309       -3.56979876367792        8.41718137894576
C           -1.46801246534464       -2.33915938486818        7.82451909754331
C           -1.67177163918192       -1.17347805823410        8.54357913304608
C           -2.08373457526290       -1.24192686913416        9.86373378550105
C           -2.30755921269396       -2.47170599861796       10.45755101027069
C           -4.72321940863023       -4.60529899250790       10.80345620049623
C           -3.91014653970198       -6.84068538851996       10.75246908960015
H            1.32272403239520        0.10850855074730        0.43671361578457
H            1.61891763020550        0.24220539794743       -1.29260763545458
H            2.82020313769938       -0.52220891279091       -0.25270793564221
H            0.01425857947138       -1.61012701156037       -0.78434798254828
H            1.47172320002207       -2.17192206233686       -1.59036302408230
H            0.90917504034353       -3.71409268789109        0.18359029726337
H            2.43634722622393       -2.91638101780655        0.53367950552034
H            1.10129472264949       -3.13119032649429        2.55237356572354
H            1.38571835702440       -1.44402425926284        2.16184609743910
H           -0.88614948628994       -1.72297822138885        2.93376737962365
H           -0.88298844277736       -1.21058588803212        1.25709212669894
H           -2.59273721038619       -2.87410925319600        1.56430828089161
H           -1.34959184107463       -3.50622469396637        0.50188790385934
H           -2.10291860278664       -5.22540057581935        2.03885460266411
H           -0.40434985114734       -4.86989188282031        2.29225886510661
H           -1.56876458491759       -5.19597000076913        4.41967859027338
H           -0.87126597984786       -3.59078079881764        4.29623316062546
H           -3.06794843386953       -3.47238029732596        5.32716415919066
H           -3.05322098665806       -2.60617700357162        3.79718702196598
H           -5.12333296587522       -3.80697080464218        4.00149164989443
H           -4.19626421968917       -4.50311418159812        2.68389907377551
H           -5.31565270171690       -6.20856917330149        4.10913804631725
H           -3.57293267119691       -6.43700007183508        3.99244633710953
H           -5.80084057553418       -4.30317075842783        6.15803131369640
H           -5.57097098446571       -4.13996054290019        8.54013685700804
H           -2.45726762508189       -7.10615446170349        8.40733961097213
H           -2.69751548172327       -7.22424330604843        6.01195001101005
H           -2.22998693795699       -4.91120143028997       11.46631210853778
H           -1.66217186928767       -5.71770494636923        9.99301001490254
H           -1.50630438702961       -4.47070703876450        7.85080715733538
H           -1.12758771822595       -2.29333794477454        6.80206044869458
H           -1.49592160793021       -0.21505240896513        8.08143063675510
H           -2.22516809951460       -0.33840788642774       10.43574260923131
H           -2.60649177585592       -2.51336697659810       11.49536132626528
H           -5.74001559360229       -4.95701598415480       10.63982418183888
H           -4.52701650684890       -4.59783858015482       11.87464005879744
H           -4.61482942109223       -3.59120073691636       10.42420063755689
H           -4.90327845874162       -7.23037022373301       10.53331748865006
H           -3.17207711969003       -7.53588131899037       10.36182577725446
H           -3.78398711596062       -6.77313174939290       11.83186501410314

          :  Hamiltonian                  GFN2-xTB          :
         :: total energy             -78.611480659968 Eh    ::
         :: gradient norm              0.000172921376 Eh/a0 ::
         :: HOMO-LUMO gap              2.761752457363 eV    ::
         :: SCC energy               -79.909378450761 Eh    ::
         :: -> dispersion             -0.068743914938 Eh    ::
         :: repulsion energy           1.297897790793 Eh    ::

    * Orbital Energies and Occupations

         #    Occupation            Energy/Eh            Energy/eV
      -------------------------------------------------------------
         1        2.0000           -0.8481442             -23.0792
       ...           ...                  ...                  ...
        62        2.0000           -0.5226964             -14.2233
        63        2.0000           -0.5214925             -14.1905
        64        2.0000           -0.5185535             -14.1106
        65        2.0000           -0.5144865             -13.9999
        66        2.0000           -0.5087091             -13.8427
        67        2.0000           -0.5048251             -13.7370
        68        2.0000           -0.4989892             -13.5782
        69        2.0000           -0.4890984             -13.3090
        70        2.0000           -0.4866046             -13.2412
        71        2.0000           -0.4830949             -13.1457
        72        2.0000           -0.4706794             -12.8078
        73        2.0000           -0.4663584             -12.6903
        74        2.0000           -0.4645246             -12.6404 (HOMO)
        75                         -0.3630321              -9.8786 (LUMO)
        76                         -0.3568429              -9.7102
        77                         -0.3500520              -9.5254
        78                         -0.3400957              -9.2545
        79                         -0.2341324              -6.3711
        80                         -0.2259861              -6.1494
        81                         -0.1978543              -5.3839
        82                         -0.1420171              -3.8645
        83                         -0.1248011              -3.3960
        84                         -0.1143670              -3.1121
        85                         -0.0559256              -1.5218
       ...                                ...                  ...
       148                          0.5458292              14.8528
      -------------------------------------------------------------
                  HL-Gap            0.1014925 Eh            2.7618 eV

     #   Z          covCN         q      C6AA      α(0)
     1   6 C        3.751    -0.102    22.509     6.766
     2   6 C        3.799    -0.053    21.521     6.605
     3   6 C        3.800    -0.058    21.609     6.618
     4   6 C        3.800    -0.056    21.588     6.615
     5   6 C        3.800    -0.056    21.585     6.615
     6   6 C        3.800    -0.059    21.630     6.622
     7   6 C        3.800    -0.058    21.611     6.619
     8   6 C        3.800    -0.055    21.559     6.611
     9   6 C        3.800    -0.058    21.615     6.619
    10   6 C        3.802    -0.058    21.621     6.620
    11   6 C        3.807    -0.069    21.807     6.648
    12   6 C        2.966     0.038    27.146     8.546
    13   6 C        2.928    -0.028    28.706     8.786
    14   6 C        2.918    -0.043    29.062     8.840
    15   6 C        2.929     0.026    27.417     8.587
    16   6 C        2.920    -0.039    28.981     8.828
    17   6 C        2.927    -0.030    28.756     8.794
    18   7 N        3.624     0.122    19.157     6.501
    19   6 C        3.767    -0.034    21.211     6.564
    20   6 C        2.968    -0.006    28.160     8.704
    21   6 C        2.923    -0.036    28.884     8.813
    22   6 C        2.919    -0.022    28.565     8.765
    23   6 C        2.920    -0.019    28.490     8.753
    24   6 C        2.919    -0.023    28.586     8.768
    25   6 C        2.923    -0.039    28.970     8.827
    26   6 C        3.721    -0.085    22.240     6.735
    27   6 C        3.724    -0.085    22.229     6.732
    28   1 H        0.925     0.033     2.549     2.497
    29   1 H        0.925     0.034     2.534     2.489
    30   1 H        0.925     0.035     2.523     2.484
    31   1 H        0.924     0.030     2.580     2.512
    32   1 H        0.924     0.030     2.592     2.518
    33   1 H        0.924     0.028     2.613     2.528
    34   1 H        0.924     0.030     2.584     2.514
    35   1 H        0.924     0.024     2.670     2.555
    36   1 H        0.924     0.032     2.558     2.501
    37   1 H        0.924     0.021     2.712     2.575
    38   1 H        0.924     0.036     2.510     2.477
    39   1 H        0.924     0.027     2.628     2.535
    40   1 H        0.924     0.038     2.474     2.460
    41   1 H        0.924     0.028     2.622     2.532
    42   1 H        0.924     0.036     2.499     2.472
    43   1 H        0.924     0.020     2.736     2.587
    44   1 H        0.924     0.031     2.576     2.510
    45   1 H        0.924     0.014     2.820     2.626
    46   1 H        0.924     0.044     2.401     2.423
    47   1 H        0.924     0.035     2.523     2.484
    48   1 H        0.925     0.054     2.269     2.356
    49   1 H        0.924     0.061     2.185     2.312
    50   1 H        0.925     0.057     2.240     2.341
    51   1 H        0.926     0.067     2.114     2.274
    52   1 H        0.926     0.055     2.256     2.349
    53   1 H        0.926     0.047     2.362     2.403
    54   1 H        0.926     0.062     2.172     2.305
    55   1 H        0.924     0.078     2.000     2.212
    56   1 H        0.924     0.082     1.954     2.186
    57   1 H        0.926     0.039     2.461     2.453
    58   1 H        0.926     0.056     2.248     2.345
    59   1 H        0.926     0.060     2.201     2.320
    60   1 H        0.926     0.057     2.232     2.336
    61   1 H        0.926     0.040     2.443     2.444
    62   1 H        0.925     0.093     1.846     2.125
    63   1 H        0.925     0.090     1.882     2.146
    64   1 H        0.925     0.100     1.784     2.089
    65   1 H        0.925     0.094     1.842     2.122
    66   1 H        0.925     0.095     1.832     2.117
    67   1 H        0.925     0.091     1.871     2.139

Wiberg/Mayer (AO) data.
largest (>0.10) Wiberg bond orders for each atom

     #   Z sym  total        # sym  WBO       # sym  WBO       # sym  WBO
 ---------------------------------------------------------------------------
     1   6 C    3.997 --     2 C    1.020    30 H    0.988    29 H    0.987
                            28 H    0.986
     2   6 C    3.998 --     1 C    1.020     3 C    1.008    32 H    0.978
                            31 H    0.976
     3   6 C    3.997 --     2 C    1.008     4 C    1.007    34 H    0.977
                            33 H    0.976
     4   6 C    3.998 --     5 C    1.008     3 C    1.007    36 H    0.976
                            35 H    0.976
     5   6 C    3.998 --     6 C    1.008     4 C    1.008    37 H    0.975
                            38 H    0.974
     6   6 C    3.997 --     5 C    1.008     7 C    1.008    39 H    0.975
                            40 H    0.974
     7   6 C    3.997 --     6 C    1.008     8 C    1.007    41 H    0.976
                            42 H    0.975
     8   6 C    3.998 --     9 C    1.007     7 C    1.007    43 H    0.976
                            44 H    0.975
     9   6 C    3.997 --    10 C    1.008     8 C    1.007    45 H    0.975
                            46 H    0.973
    10   6 C    3.993 --     9 C    1.008    11 C    0.987    47 H    0.976
                            48 H    0.972
    11   6 C    3.992 --    12 C    1.024    10 C    0.987    50 H    0.972
                            49 H    0.952
    12   6 C    3.982 --    13 C    1.401    17 C    1.395    11 C    1.024
                            15 C    0.103
    13   6 C    3.988 --    14 C    1.444    12 C    1.401    51 H    0.964
                            16 C    0.106
    14   6 C    3.989 --    13 C    1.444    15 C    1.414    52 H    0.962
                            17 C    0.101
    15   6 C    3.917 --    14 C    1.414    16 C    1.400    18 N    0.907
                            12 C    0.103
    16   6 C    3.990 --    17 C    1.453    15 C    1.400    53 H    0.961
                            13 C    0.106
    17   6 C    3.989 --    16 C    1.453    12 C    1.395    54 H    0.965
                            14 C    0.101
    18   7 N    3.803 --    26 C    0.963    27 C    0.957    15 C    0.907
                            19 C    0.905
    19   6 C    3.930 --    20 C    1.005    55 H    0.966    56 H    0.964
                            18 N    0.905
    20   6 C    3.979 --    21 C    1.410    25 C    1.409    19 C    1.005
                            23 C    0.109
    21   6 C    3.991 --    22 C    1.445    20 C    1.410    57 H    0.966
                            24 C    0.110
    22   6 C    3.990 --    21 C    1.445    23 C    1.438    58 H    0.968
                            25 C    0.110
    23   6 C    3.989 --    24 C    1.438    22 C    1.438    59 H    0.969
                            20 C    0.109
    24   6 C    3.990 --    25 C    1.444    23 C    1.438    60 H    0.969
                            21 C    0.110
    25   6 C    3.991 --    24 C    1.444    20 C    1.409    61 H    0.968
                            22 C    0.110
    26   6 C    3.932 --    62 H    0.975    63 H    0.974    64 H    0.969
                            18 N    0.963
    27   6 C    3.933 --    65 H    0.976    67 H    0.975    66 H    0.972
                            18 N    0.957
    28   1 H    0.999 --     1 C    0.986
    29   1 H    0.999 --     1 C    0.987
    30   1 H    0.999 --     1 C    0.988
    31   1 H    0.999 --     2 C    0.976
    32   1 H    0.999 --     2 C    0.978
    33   1 H    0.999 --     3 C    0.976
    34   1 H    0.999 --     3 C    0.977
    35   1 H    0.999 --     4 C    0.976
    36   1 H    0.999 --     4 C    0.976
    37   1 H    1.000 --     5 C    0.975
    38   1 H    0.999 --     5 C    0.974
    39   1 H    0.999 --     6 C    0.975
    40   1 H    0.999 --     6 C    0.974
    41   1 H    0.999 --     7 C    0.976
    42   1 H    0.999 --     7 C    0.975
    43   1 H    1.000 --     8 C    0.976
    44   1 H    0.999 --     8 C    0.975
    45   1 H    1.000 --     9 C    0.975
    46   1 H    0.998 --     9 C    0.973
    47   1 H    0.999 --    10 C    0.976
    48   1 H    0.996 --    10 C    0.972
    49   1 H    0.996 --    11 C    0.952
    50   1 H    0.996 --    11 C    0.972
    51   1 H    0.995 --    13 C    0.964
    52   1 H    0.997 --    14 C    0.962
    53   1 H    0.998 --    16 C    0.961
    54   1 H    0.996 --    17 C    0.965
    55   1 H    0.993 --    19 C    0.966
    56   1 H    0.993 --    19 C    0.964
    57   1 H    0.998 --    21 C    0.966
    58   1 H    0.997 --    22 C    0.968
    59   1 H    0.996 --    23 C    0.969
    60   1 H    0.996 --    24 C    0.969
    61   1 H    0.998 --    25 C    0.968
    62   1 H    0.991 --    26 C    0.975
    63   1 H    0.991 --    26 C    0.974
    64   1 H    0.990 --    26 C    0.969
    65   1 H    0.990 --    27 C    0.976
    66   1 H    0.991 --    27 C    0.972
    67   1 H    0.991 --    27 C    0.975
 ---------------------------------------------------------------------------

molecular dipole:
                 x           y           z       tot (Debye)
 q only:       -6.891      -9.545      17.180
   full:       -6.897      -9.668      17.404      53.554

           -------------------------------------------------
          | TOTAL ENERGY              -78.611480659968 Eh   |
          | GRADIENT NORM               0.000172921376 Eh/α |
          | HOMO-LUMO GAP               2.761752457363 eV   |
           -------------------------------------------------

 * finished run on 2024/12/20 at 06:58:51.511
