   * xtb version 6.7.1 (edcfbbe) compiled by 'conda@3ef47c1a292c' on 2024-11-25

   ID    Z sym.   atoms
    1    6 C      1-4, 6-15
    2    7 N      5
    3    1 H      16-31

          program call               : xtb C0806.xyz --opt --namespace C0806 --charge +1
          :  Hamiltonian                  GFN2-xTB          :
 * total energy  :   -40.6556321 Eh     change       -0.3862226E-09 Eh
 * total energy  :   -40.6592830 Eh     change       -0.3650910E-02 Eh
 * total energy  :   -40.6599328 Eh     change       -0.6497506E-03 Eh
 * total energy  :   -40.6600650 Eh     change       -0.1321809E-03 Eh
 * total energy  :   -40.6601769 Eh     change       -0.1119306E-03 Eh
 * total energy  :   -40.6602492 Eh     change       -0.7228936E-04 Eh
 * total energy  :   -40.6603492 Eh     change       -0.9998428E-04 Eh
 * total energy  :   -40.6604979 Eh     change       -0.1486838E-03 Eh
 * total energy  :   -40.6606706 Eh     change       -0.1727816E-03 Eh
 * total energy  :   -40.6608258 Eh     change       -0.1551517E-03 Eh
 * total energy  :   -40.6611146 Eh     change       -0.1327704E-04 Eh
 * total energy  :   -40.6611301 Eh     change       -0.1553405E-04 Eh
 * total energy  :   -40.6611504 Eh     change       -0.2030878E-04 Eh
 * total energy  :   -40.6611573 Eh     change       -0.6853975E-05 Eh
 * total energy  :   -40.6611659 Eh     change       -0.8654970E-05 Eh
 * total energy  :   -40.6611734 Eh     change       -0.7537571E-05 Eh
 * total energy  :   -40.6611804 Eh     change       -0.6985252E-05 Eh
 * total energy  :   -40.6611867 Eh     change       -0.6270813E-05 Eh
 * total energy  :   -40.6611915 Eh     change       -0.4838567E-05 Eh
   *** GEOMETRY OPTIMIZATION CONVERGED AFTER 27 ITERATIONS ***

 final structure:
================
31
 xtb: 6.7.1 (edcfbbe)
C            1.16103473585056        0.05378503948767        0.40492277501668
C            0.61098533289609        1.36880560454130        0.80396215739411
C           -0.32420219308509        1.50481110537601        1.83104858965193
C           -0.80606473505528        2.74819072452139        2.17462998696549
N           -0.38932492663310        3.85337382653685        1.54305336658327
C            0.49902342097395        3.75717651330354        0.54256998342088
C            1.01600290362061        2.54565392367482        0.15942218918561
C           -0.99994079332098        5.12914082303438        1.85286393281982
C           -2.29221916934081        5.29837923986665        1.02688968762756
C           -3.28253266810021        4.21723890238029        1.35891217638264
C           -3.32610615321655        3.04388307712264        0.61298633612212
C           -4.21032041083251        2.03204061735712        0.94806135625913
C           -5.05340067341823        2.18037731939236        2.03579573770700
C           -5.01559865113153        3.34597627283533        2.78483033569436
C           -4.13253034353407        4.35673998623110        2.45050617875022
H            0.90740693844361       -0.15788387891235       -0.63385180664767
H            0.77965949906939       -0.74748587977290        1.03032457767318
H            2.24884304415201        0.06652356675136        0.46545032868446
H           -0.67820863658356        0.63819345852766        2.36611335766283
H           -1.51977569394205        2.87309016610549        2.97430457434883
H            0.79380389139641        4.67552422323760        0.05661848228162
H            1.73688500452425        2.50500634785238       -0.64200402536809
H           -1.24019356153362        5.16093593824588        2.91698797203659
H           -0.29861315970199        5.93204978785646        1.62100447789492
H           -2.70937353434614        6.27736950376876        1.26240996229843
H           -2.04702756946904        5.27568710808239       -0.03635034233148
H           -2.68741603866006        2.93244810997623       -0.25330320089443
H           -4.24613816109686        1.13245969825718        0.35310303060214
H           -5.74717323587850        1.39558967020585        2.29299530127301
H           -5.67988285088294        3.47028422436458        3.62575723655272
H           -4.11259161116742        5.26823497978809        3.03014528435045

          :  Hamiltonian                  GFN2-xTB          :
         :: total energy             -40.661191538205 Eh    ::
         :: gradient norm              0.000233046636 Eh/a0 ::
         :: HOMO-LUMO gap              1.963590937622 eV    ::
         :: SCC energy               -41.396360102651 Eh    ::
         :: -> dispersion             -0.029843112697 Eh    ::
         :: repulsion energy           0.735168564446 Eh    ::

    * Orbital Energies and Occupations

         #    Occupation            Energy/Eh            Energy/eV
      -------------------------------------------------------------
         1        2.0000           -0.8671247             -23.5957
       ...           ...                  ...                  ...
        26        2.0000           -0.6123595             -16.6632
        27        2.0000           -0.6059853             -16.4897
        28        2.0000           -0.6040325             -16.4366
        29        2.0000           -0.5980032             -16.2725
        30        2.0000           -0.5908047             -16.0766
        31        2.0000           -0.5891041             -16.0303
        32        2.0000           -0.5856619             -15.9367
        33        2.0000           -0.5837043             -15.8834
        34        2.0000           -0.5808317             -15.8052
        35        2.0000           -0.5363363             -14.5945
        36        2.0000           -0.5326729             -14.4948
        37        2.0000           -0.5175444             -14.0831
        38        2.0000           -0.5145795             -14.0024 (HOMO)
        39                         -0.4424188             -12.0388 (LUMO)
        40                         -0.4144652             -11.2782
        41                         -0.3389748              -9.2240
        42                         -0.3356809              -9.1343
        43                         -0.2958440              -8.0503
        44                         -0.2090762              -5.6893
        45                         -0.1573629              -4.2821
        46                         -0.0702162              -1.9107
        47                         -0.0466891              -1.2705
        48                         -0.0427437              -1.1631
        49                         -0.0243070              -0.6614
       ...                                ...                  ...
        76                          0.5497530              14.9595
      -------------------------------------------------------------
                  HL-Gap            0.0721606 Eh            1.9636 eV

     #   Z          covCN         q      C6AA      α(0)
     1   6 C        3.758    -0.133    23.110     6.854
     2   6 C        2.969     0.070    26.427     8.432
     3   6 C        2.920    -0.027    28.674     8.781
     4   6 C        2.890     0.033    27.254     8.559
     5   7 N        2.751     0.098    19.557     6.568
     6   6 C        2.888     0.029    27.354     8.575
     7   6 C        2.921    -0.028    28.709     8.787
     8   6 C        3.761    -0.030    21.161     6.558
     9   6 C        3.808    -0.073    21.889     6.660
    10   6 C        2.971     0.001    28.008     8.681
    11   6 C        2.923    -0.043    29.073     8.842
    12   6 C        2.918    -0.029    28.721     8.788
    13   6 C        2.920    -0.024    28.611     8.772
    14   6 C        2.919    -0.024    28.600     8.770
    15   6 C        2.923    -0.039    28.970     8.827
    16   1 H        0.925     0.100     1.782     2.087
    17   1 H        0.925     0.083     1.952     2.185
    18   1 H        0.925     0.099     1.796     2.096
    19   1 H        0.926     0.098     1.807     2.102
    20   1 H        0.926     0.103     1.761     2.075
    21   1 H        0.926     0.102     1.769     2.080
    22   1 H        0.926     0.100     1.788     2.091
    23   1 H        0.924     0.090     1.881     2.145
    24   1 H        0.924     0.088     1.898     2.154
    25   1 H        0.925     0.082     1.962     2.191
    26   1 H        0.924     0.059     2.207     2.323
    27   1 H        0.925     0.021     2.718     2.578
    28   1 H        0.926     0.045     2.380     2.413
    29   1 H        0.926     0.054     2.269     2.356
    30   1 H        0.926     0.054     2.266     2.354
    31   1 H        0.926     0.043     2.404     2.425

Wiberg/Mayer (AO) data.
largest (>0.10) Wiberg bond orders for each atom

     #   Z sym  total        # sym  WBO       # sym  WBO       # sym  WBO
 ---------------------------------------------------------------------------
     1   6 C    3.983 --     2 C    1.062    17 H    0.979    18 H    0.945
                            16 H    0.941
     2   6 C    3.969 --     3 C    1.379     7 C    1.350     1 C    1.062
     3   6 C    3.984 --     4 C    1.473     2 C    1.379    19 H    0.959
     4   6 C    3.959 --     3 C    1.473     5 N    1.310    20 H    0.955
     5   7 N    3.752 --     4 C    1.310     6 C    1.298     8 C    0.972
     6   6 C    3.959 --     7 C    1.506     5 N    1.298    21 H    0.955
     7   6 C    3.983 --     6 C    1.506     2 C    1.350    22 H    0.960
     8   6 C    3.939 --     5 N    0.972    24 H    0.964    23 H    0.964
                             9 C    0.959
     9   6 C    3.980 --    10 C    1.013    26 H    0.972    25 H    0.961
                             8 C    0.959
    10   6 C    3.987 --    15 C    1.407    11 C    1.405     9 C    1.013
                            13 C    0.107
    11   6 C    3.991 --    12 C    1.438    10 C    1.405    27 H    0.970
                            14 C    0.108
    12   6 C    3.991 --    13 C    1.444    11 C    1.438    28 H    0.970
                            15 C    0.111
    13   6 C    3.988 --    12 C    1.444    14 C    1.432    29 H    0.970
                            10 C    0.107
    14   6 C    3.989 --    15 C    1.450    13 C    1.432    30 H    0.969
                            11 C    0.108
    15   6 C    3.991 --    14 C    1.450    10 C    1.407    31 H    0.968
                            12 C    0.111
    16   1 H    0.988 --     1 C    0.941
    17   1 H    0.993 --     1 C    0.979
    18   1 H    0.989 --     1 C    0.945
    19   1 H    0.990 --     3 C    0.959
    20   1 H    0.989 --     4 C    0.955
    21   1 H    0.989 --     6 C    0.955
    22   1 H    0.990 --     7 C    0.960
    23   1 H    0.991 --     8 C    0.964
    24   1 H    0.991 --     8 C    0.964
    25   1 H    0.991 --     9 C    0.961
    26   1 H    0.996 --     9 C    0.972
    27   1 H    1.000 --    11 C    0.970
    28   1 H    0.998 --    12 C    0.970
    29   1 H    0.997 --    13 C    0.970
    30   1 H    0.997 --    14 C    0.969
    31   1 H    0.998 --    15 C    0.968
 ---------------------------------------------------------------------------

molecular dipole:
                 x           y           z       tot (Debye)
 q only:       -0.823       5.571       2.468
   full:       -0.813       5.678       2.455      15.859

           -------------------------------------------------
          | TOTAL ENERGY              -40.661191538205 Eh   |
          | GRADIENT NORM               0.000233046636 Eh/α |
          | HOMO-LUMO GAP               1.963590937622 eV   |
           -------------------------------------------------

 * finished run on 2024/12/20 at 06:58:25.727
