   * xtb version 6.7.1 (edcfbbe) compiled by 'conda@3ef47c1a292c' on 2024-11-25

   ID    Z sym.   atoms
    1    6 C      1, 2, 4
    2   16 S      3
    3    7 N      5, 6
    4    1 H      7-15

          program call               : xtb C0802.xyz --opt --namespace C0802 --charge +1
          :  Hamiltonian                  GFN2-xTB          :
 * total energy  :   -19.6785142 Eh     change       -0.6106404E-10 Eh
 * total energy  :   -19.6808714 Eh     change       -0.2357234E-02 Eh
 * total energy  :   -19.6816011 Eh     change       -0.7297424E-03 Eh
 * total energy  :   -19.6820575 Eh     change       -0.4564024E-03 Eh
 * total energy  :   -19.6825156 Eh     change       -0.4580198E-03 Eh
 * total energy  :   -19.6830091 Eh     change       -0.4935164E-03 Eh
 * total energy  :   -19.6834242 Eh     change       -0.4150832E-03 Eh
 * total energy  :   -19.6837673 Eh     change       -0.3431225E-03 Eh
 * total energy  :   -19.6839960 Eh     change       -0.2287150E-03 Eh
 * total energy  :   -19.6841084 Eh     change       -0.1124526E-03 Eh
 * total energy  :   -19.6841489 Eh     change       -0.4046294E-04 Eh
 * total energy  :   -19.6841838 Eh     change       -0.3486120E-04 Eh
 * total energy  :   -19.6842019 Eh     change       -0.1815414E-04 Eh
 * total energy  :   -19.6842166 Eh     change       -0.1464226E-04 Eh
 * total energy  :   -19.6842229 Eh     change       -0.6350303E-05 Eh
 * total energy  :   -19.6842263 Eh     change       -0.3336183E-05 Eh
 * total energy  :   -19.6842298 Eh     change       -0.3528202E-05 Eh
   *** GEOMETRY OPTIMIZATION CONVERGED AFTER 17 ITERATIONS ***

 final structure:
================
15
 xtb: 6.7.1 (edcfbbe)
C            0.96177168441869       -0.09860386512230       -0.03140584782220
C            0.39828167506874       -0.90725041085192       -1.18297964200382
S            0.25733164397646       -0.57883386305249        1.59176119484421
C            1.03558927359610       -2.06770384796879        1.99784506411690
N            1.97443138371273       -2.62445775461756        1.25080149874485
N            0.64387966635745       -2.63870313554942        3.12649068281307
H            0.66281757625370        0.94646131116048       -0.12186975184426
H            2.04874634574939       -0.13211856258040        0.03970923028698
H            0.62117415467338       -1.96864851766042       -1.10187388140256
H           -0.68089975272542       -0.78971686282936       -1.23597909533081
H            0.82183945478093       -0.53863831343043       -2.11446342826629
H            2.42221516662101       -3.48486189737347        1.53112062869378
H            2.30118298154372       -2.18970588850394        0.40206740092667
H           -0.07202681428384       -2.20627979789273        3.69030405156703
H            1.04484556025666       -3.50329859372740        3.46051189467639

          :  Hamiltonian                  GFN2-xTB          :
         :: total energy             -19.684229779316 Eh    ::
         :: gradient norm              0.000888108995 Eh/a0 ::
         :: HOMO-LUMO gap              3.663470029384 eV    ::
         :: SCC energy               -19.938160338909 Eh    ::
         :: -> dispersion             -0.008803210918 Eh    ::
         :: repulsion energy           0.253930559593 Eh    ::

    * Orbital Energies and Occupations

         #    Occupation            Energy/Eh            Energy/eV
      -------------------------------------------------------------
         1        2.0000           -0.9131284             -24.8475
       ...           ...                  ...                  ...
         6        2.0000           -0.7704583             -20.9652
         7        2.0000           -0.7563565             -20.5815
         8        2.0000           -0.7327802             -19.9400
         9        2.0000           -0.7265010             -19.7691
        10        2.0000           -0.7155725             -19.4717
        11        2.0000           -0.6826535             -18.5759
        12        2.0000           -0.6644799             -18.0814
        13        2.0000           -0.6541405             -17.8001
        14        2.0000           -0.6358099             -17.3013
        15        2.0000           -0.6225737             -16.9411
        16        2.0000           -0.6015108             -16.3679
        17        2.0000           -0.5979518             -16.2711
        18        2.0000           -0.5620230             -15.2934 (HOMO)
        19                         -0.4273930             -11.6300 (LUMO)
        20                         -0.3740554             -10.1786
        21                         -0.3274985              -8.9117
        22                         -0.1960123              -5.3338
        23                         -0.1911698              -5.2020
        24                         -0.1739216              -4.7326
        25                         -0.1350984              -3.6762
        26                         -0.1041031              -2.8328
        27                         -0.0435546              -1.1852
        28                         -0.0304316              -0.8281
        29                          0.0014464               0.0394
       ...                                ...                  ...
        38                          0.3533203               9.6143
      -------------------------------------------------------------
                  HL-Gap            0.1346300 Eh            3.6635 eV

     #   Z          covCN         q      C6AA      α(0)
     1   6 C        3.793    -0.030    21.124     6.545
     2   6 C        3.774    -0.125    22.925     6.822
     3  16 S        2.084     0.034   139.672    19.891
     4   6 C        2.795     0.192    23.905     8.009
     5   7 N        2.677    -0.207    25.516     7.502
     6   7 N        2.725    -0.201    25.362     7.480
     7   1 H        0.925     0.102     1.770     2.080
     8   1 H        0.925     0.073     2.052     2.240
     9   1 H        0.925     0.054     2.275     2.359
    10   1 H        0.925     0.078     1.997     2.210
    11   1 H        0.925     0.084     1.940     2.178
    12   1 H        0.860     0.231     0.961     1.535
    13   1 H        0.860     0.239     0.927     1.508
    14   1 H        0.860     0.243     0.911     1.495
    15   1 H        0.860     0.234     0.947     1.524

Wiberg/Mayer (AO) data.
largest (>0.10) Wiberg bond orders for each atom

     #   Z sym  total        # sym  WBO       # sym  WBO       # sym  WBO
 ---------------------------------------------------------------------------
     1   6 C    3.950 --     2 C    1.026     3 S    0.966     8 H    0.963
                             7 H    0.957
     2   6 C    3.983 --     1 C    1.026    10 H    0.982     9 H    0.982
                            11 H    0.968
     3  16 S    2.465 --     4 C    1.205     1 C    0.966
     4   6 C    3.971 --     6 N    1.372     5 N    1.369     3 S    1.205
     5   7 N    3.449 --     4 C    1.369    12 H    0.919    13 H    0.913
                             6 N    0.124
     6   7 N    3.458 --     4 C    1.372    14 H    0.922    15 H    0.920
                             5 N    0.124
     7   1 H    0.989 --     1 C    0.957
     8   1 H    0.995 --     1 C    0.963
     9   1 H    0.997 --     2 C    0.982
    10   1 H    0.994 --     2 C    0.982
    11   1 H    0.992 --     2 C    0.968
    12   1 H    0.947 --     5 N    0.919
    13   1 H    0.943 --     5 N    0.913
    14   1 H    0.941 --     6 N    0.922
    15   1 H    0.945 --     6 N    0.920
 ---------------------------------------------------------------------------

molecular dipole:
                 x           y           z       tot (Debye)
 q only:        2.254      -3.849       2.859
   full:        2.473      -3.959       2.785      13.817

           -------------------------------------------------
          | TOTAL ENERGY              -19.684229779316 Eh   |
          | GRADIENT NORM               0.000888108995 Eh/α |
          | HOMO-LUMO GAP               3.663470029384 eV   |
           -------------------------------------------------

 * finished run on 2024/12/20 at 06:58:21.029
