   * xtb version 6.7.1 (edcfbbe) compiled by 'conda@3ef47c1a292c' on 2024-11-25

   ID    Z sym.   atoms
    1    6 C      1, 2, 4-8
    2    7 N      3
    3    1 H      9-22

          program call               : xtb C0803.xyz --opt --namespace C0803 --charge +1
          :  Hamiltonian                  GFN2-xTB          :
 * total energy  :   -24.6237418 Eh     change       -0.6785328E-10 Eh
 * total energy  :   -24.6270737 Eh     change       -0.3331961E-02 Eh
 * total energy  :   -24.6278442 Eh     change       -0.7705114E-03 Eh
 * total energy  :   -24.6280065 Eh     change       -0.1622968E-03 Eh
 * total energy  :   -24.6280489 Eh     change       -0.4233548E-04 Eh
 * total energy  :   -24.6280618 Eh     change       -0.1298707E-04 Eh
 * total energy  :   -24.6280740 Eh     change       -0.1217001E-04 Eh
 * total energy  :   -24.6280903 Eh     change       -0.1626599E-04 Eh
 * total energy  :   -24.6281029 Eh     change       -0.1262246E-04 Eh
 * total energy  :   -24.6281097 Eh     change       -0.6812981E-05 Eh
 * total energy  :   -24.6281136 Eh     change       -0.3853840E-05 Eh
   *** GEOMETRY OPTIMIZATION CONVERGED AFTER 11 ITERATIONS ***

 final structure:
================
22
 xtb: 6.7.1 (edcfbbe)
C            0.42157769483412       -0.17495943852666       -0.15185990793127
C            1.12707081860315       -1.36813893902890        0.46905126662421
N            0.66897216278049       -1.64189486815211        1.86255759448742
C            0.72261012867167       -3.09507349248381        2.21478672978938
C            1.02398434549861       -3.15056419027069        3.71501847493073
C            1.61565985048365       -1.80197623016990        3.96430362049620
C            1.42826191691634       -0.96858612713640        2.95444357499670
C            1.78168739445574        0.46354397611229        2.82648991380197
H           -0.65644072690078       -0.32404173399237       -0.16239296443463
H            0.74856316458969       -0.07133076210247       -1.18286563548227
H            0.64433411397624        0.75535846942250        0.36025840133712
H            0.90748572924401       -2.25466827085703       -0.12937323641348
H            2.20908995472126       -1.22787901250341        0.48922877682619
H           -0.30270792942709       -1.31205977591794        1.92024430774623
H           -0.20386541745777       -3.59322566378673        1.93485987386029
H            1.54973568177765       -3.53922998749693        1.65863061277021
H            0.12297276358547       -3.28246237943732        4.31853107298933
H            1.70920917240849       -3.95779999296735        3.96691012146821
H            2.11332854064739       -1.55559578081638        4.88270335024538
H            0.88883348196376        1.08038186604046        2.72719373686546
H            2.30820886588452        0.77625933136619        3.72339505355577
H            2.43045829274333        0.65215300270494        1.97337526147082

          :  Hamiltonian                  GFN2-xTB          :
         :: total energy             -24.628113572224 Eh    ::
         :: gradient norm              0.000324413088 Eh/a0 ::
         :: HOMO-LUMO gap              4.972424604767 eV    ::
         :: SCC energy               -25.007288662090 Eh    ::
         :: -> dispersion             -0.014061373444 Eh    ::
         :: repulsion energy           0.379175089867 Eh    ::

    * Orbital Energies and Occupations

         #    Occupation            Energy/Eh            Energy/eV
      -------------------------------------------------------------
         1        2.0000           -0.8705042             -23.6876
       ...           ...                  ...                  ...
        11        2.0000           -0.6842896             -18.6205
        12        2.0000           -0.6808831             -18.5278
        13        2.0000           -0.6688620             -18.2007
        14        2.0000           -0.6600819             -17.9617
        15        2.0000           -0.6497731             -17.6812
        16        2.0000           -0.6382388             -17.3674
        17        2.0000           -0.6315003             -17.1840
        18        2.0000           -0.6291596             -17.1203
        19        2.0000           -0.6240051             -16.9800
        20        2.0000           -0.6197148             -16.8633
        21        2.0000           -0.6145928             -16.7239
        22        2.0000           -0.6019283             -16.3793
        23        2.0000           -0.5622292             -15.2990 (HOMO)
        24                         -0.3794959             -10.3266 (LUMO)
        25                         -0.2414745              -6.5709
        26                         -0.1858818              -5.0581
        27                         -0.1485808              -4.0431
        28                         -0.1175170              -3.1978
        29                         -0.0787640              -2.1433
        30                         -0.0622964              -1.6952
        31                         -0.0399999              -1.0885
        32                         -0.0179854              -0.4894
        33                         -0.0099697              -0.2713
        34                         -0.0023570              -0.0641
       ...                                ...                  ...
        46                          0.4768664              12.9762
      -------------------------------------------------------------
                  HL-Gap            0.1827332 Eh            4.9724 eV

     #   Z          covCN         q      C6AA      α(0)
     1   6 C        3.751    -0.134    23.135     6.859
     2   6 C        3.736    -0.026    21.116     6.558
     3   7 N        3.600     0.029    20.733     6.763
     4   6 C        3.791    -0.030    21.113     6.544
     5   6 C        3.838    -0.073    21.867     6.653
     6   6 C        2.938    -0.040    28.988     8.830
     7   6 C        2.926     0.042    27.062     8.531
     8   6 C        3.755    -0.133    23.116     6.856
     9   1 H        0.925     0.063     2.159     2.298
    10   1 H        0.925     0.090     1.883     2.146
    11   1 H        0.925     0.073     2.048     2.238
    12   1 H        0.924     0.089     1.889     2.149
    13   1 H        0.924     0.093     1.846     2.125
    14   1 H        0.859     0.226     0.984     1.554
    15   1 H        0.925     0.090     1.876     2.142
    16   1 H        0.924     0.096     1.818     2.109
    17   1 H        0.924     0.090     1.882     2.145
    18   1 H        0.925     0.097     1.815     2.107
    19   1 H        0.926     0.099     1.798     2.097
    20   1 H        0.925     0.080     1.980     2.201
    21   1 H        0.925     0.093     1.849     2.126
    22   1 H        0.925     0.085     1.931     2.173

Wiberg/Mayer (AO) data.
largest (>0.10) Wiberg bond orders for each atom

     #   Z sym  total        # sym  WBO       # sym  WBO       # sym  WBO
 ---------------------------------------------------------------------------
     1   6 C    3.980 --     2 C    1.024     9 H    0.981    11 H    0.979
                            10 H    0.972
     2   6 C    3.926 --     1 C    1.024    13 H    0.967    12 H    0.967
                             3 N    0.928
     3   7 N    3.762 --     4 C    0.937     2 C    0.928    14 H    0.908
                             7 C    0.902
     4   6 C    3.928 --     5 C    1.003    15 H    0.973    16 H    0.970
                             3 N    0.937
     5   6 C    3.986 --     6 C    1.028     4 C    1.003    18 H    0.958
                            17 H    0.950
     6   6 C    3.984 --     7 C    1.873     5 C    1.028    19 H    0.958
     7   6 C    3.917 --     6 C    1.873     8 C    1.044     3 N    0.902
     8   6 C    3.984 --     7 C    1.044    21 H    0.970    22 H    0.958
                            20 H    0.958
     9   1 H    0.996 --     1 C    0.981
    10   1 H    0.991 --     1 C    0.972
    11   1 H    0.995 --     1 C    0.979
    12   1 H    0.992 --     2 C    0.967
    13   1 H    0.991 --     2 C    0.967
    14   1 H    0.949 --     3 N    0.908
    15   1 H    0.992 --     4 C    0.973
    16   1 H    0.991 --     4 C    0.970
    17   1 H    0.992 --     5 C    0.950
    18   1 H    0.990 --     5 C    0.958
    19   1 H    0.990 --     6 C    0.958
    20   1 H    0.994 --     8 C    0.958
    21   1 H    0.991 --     8 C    0.970
    22   1 H    0.993 --     8 C    0.958
 ---------------------------------------------------------------------------

molecular dipole:
                 x           y           z       tot (Debye)
 q only:        1.692      -2.954       3.802
   full:        1.495      -2.978       3.737      12.727

           -------------------------------------------------
          | TOTAL ENERGY              -24.628113572224 Eh   |
          | GRADIENT NORM               0.000324413088 Eh/α |
          | HOMO-LUMO GAP               4.972424604767 eV   |
           -------------------------------------------------

 * finished run on 2024/12/20 at 06:58:21.465
