   * xtb version 6.7.1 (edcfbbe) compiled by 'conda@3ef47c1a292c' on 2024-11-25

   ID    Z sym.   atoms
    1    6 C      1, 3-14, 16-22
    2    7 N      2
    3    8 O      15
    4    1 H      23-50

          program call               : xtb C0800.xyz --opt --namespace C0800 --charge +1
          :  Hamiltonian                  GFN2-xTB          :
 * total energy  :   -63.6629138 Eh     change       -0.4822880E-09 Eh
 * total energy  :   -63.6710414 Eh     change       -0.8127608E-02 Eh
 * total energy  :   -63.6731071 Eh     change       -0.2065717E-02 Eh
 * total energy  :   -63.6735321 Eh     change       -0.4249208E-03 Eh
 * total energy  :   -63.6739773 Eh     change       -0.4452135E-03 Eh
 * total energy  :   -63.6742084 Eh     change       -0.2311021E-03 Eh
 * total energy  :   -63.6744695 Eh     change       -0.2611230E-03 Eh
 * total energy  :   -63.6747375 Eh     change       -0.2680286E-03 Eh
 * total energy  :   -63.6750207 Eh     change       -0.2831317E-03 Eh
 * total energy  :   -63.6753244 Eh     change       -0.3037828E-03 Eh
 * total energy  :   -63.6798605 Eh     change       -0.9449797E-05 Eh
 * total energy  :   -63.6798704 Eh     change       -0.9820196E-05 Eh
 * total energy  :   -63.6798815 Eh     change       -0.1112554E-04 Eh
 * total energy  :   -63.6798908 Eh     change       -0.9294434E-05 Eh
 * total energy  :   -63.6798979 Eh     change       -0.7161411E-05 Eh
 * total energy  :   -63.6799052 Eh     change       -0.7289002E-05 Eh
 * total energy  :   -63.6799143 Eh     change       -0.9066998E-05 Eh
 * total energy  :   -63.6799239 Eh     change       -0.9604496E-05 Eh
 * total energy  :   -63.6799264 Eh     change       -0.2479958E-05 Eh
   *** GEOMETRY OPTIMIZATION CONVERGED AFTER 68 ITERATIONS ***

 final structure:
================
50
 xtb: 6.7.1 (edcfbbe)
C            2.14210869677059        0.45938234889352        0.64944661193639
N            1.56664281286663       -0.47569950470273        1.63079753199828
C            1.54541289626277        0.17869953896931        2.98799803237582
C            0.72357000746605        1.43918578201133        3.06756481471213
C            1.30834233102668        2.67805760899697        2.82163068920108
C            0.55904136671943        3.83797995873994        2.91323899434741
C           -0.78074203545023        3.77430257647866        3.25754656897900
C           -1.36604152403101        2.54776210409830        3.52463479740588
C           -0.61839453973924        1.38703089265761        3.43350302943211
C            0.16984725897088       -0.84202912152205        1.24681757609774
C            0.01463443262881       -1.64661247404581       -0.05060642890728
C           -0.30628197573559       -3.12704656167469        0.18062021360974
C           -1.72825562726693       -3.38810923321821        0.68321928387072
C           -2.78931121358621       -3.09428035557690       -0.37846775743599
O           -2.44236460929441       -3.80844536070409       -1.54019029864008
C           -3.25405113685536       -3.71988367088019       -2.64113487034979
C           -4.41400889327495       -2.96097420805372       -2.71468707067062
C           -5.14734498611014       -2.94346043845496       -3.89121201746256
C           -4.73693029537627       -3.67090500896067       -4.99173425953128
C           -3.57867176767763       -4.42908187191749       -4.91575331466402
C           -2.84006599259083       -4.45463249189749       -3.75111764991623
C            2.41556516691838       -1.67599808624369        1.72304918528583
H            1.53343170300214        1.36007478013667        0.59549724797699
H            2.18271012851349        0.00432258215835       -0.33689478295058
H            3.15341773120484        0.73204791537001        0.94513495996380
H            1.15944853137120       -0.55510989126066        3.69885877036878
H            2.58065762840524        0.40407603808935        3.25332549195560
H            2.35881459210165        2.74385370795142        2.57800590311381
H            1.02582954221475        4.79163764957977        2.72382694668696
H           -1.36332004531534        4.67862217535576        3.33214442507747
H           -2.40391193839288        2.49364068329195        3.81309630848124
H           -1.07999384077825        0.43900319397100        3.66886135910951
H           -0.24715181851850       -1.42418537398318        2.07083169260094
H           -0.38708168027727        0.09386297388124        1.18020118788195
H           -0.79320006980762       -1.20878583852215       -0.63564198978892
H            0.90716586269806       -1.57593937398465       -0.67094403873000
H           -0.20251371002254       -3.65313940444073       -0.76817898250826
H            0.40387104498909       -3.56561920560593        0.88352283117521
H           -1.80176720500495       -4.44317643623860        0.94762161936166
H           -1.95787704514594       -2.79885935113222        1.57299704482166
H           -3.77193384002659       -3.41196912704264       -0.00505057306132
H           -2.83999047626281       -2.01611279038674       -0.59303917971316
H           -4.76239437072610       -2.38677345064495       -1.87001308046575
H           -6.04944150609579       -2.35211247513234       -3.93852002164649
H           -5.31506977936735       -3.65109442629219       -5.90212765691561
H           -3.25011594985988       -5.00404641381893       -5.76799575119028
H           -1.93841531226529       -5.04176556718178       -3.67281996654415
H            2.48137883872030       -2.17262659275242        0.75822225369299
H            3.42020971724844       -1.40012969317674        2.03927031323029
H            2.00092289461333       -2.37259871120694        2.44932400635476

          :  Hamiltonian                  GFN2-xTB          :
         :: total energy             -63.679926389989 Eh    ::
         :: gradient norm              0.000269391439 Eh/a0 ::
         :: HOMO-LUMO gap              2.369320228731 eV    ::
         :: SCC energy               -64.697411873008 Eh    ::
         :: -> dispersion             -0.045939187835 Eh    ::
         :: repulsion energy           1.017485483019 Eh    ::

    * Orbital Energies and Occupations

         #    Occupation            Energy/Eh            Energy/eV
      -------------------------------------------------------------
         1        2.0000           -0.8579916             -23.3471
       ...           ...                  ...                  ...
        47        2.0000           -0.5487987             -14.9336
        48        2.0000           -0.5440957             -14.8056
        49        2.0000           -0.5432334             -14.7821
        50        2.0000           -0.5431315             -14.7794
        51        2.0000           -0.5395044             -14.6807
        52        2.0000           -0.5327615             -14.4972
        53        2.0000           -0.5301878             -14.4271
        54        2.0000           -0.5293586             -14.4046
        55        2.0000           -0.5139699             -13.9858
        56        2.0000           -0.4953771             -13.4799
        57        2.0000           -0.4833180             -13.1518
        58        2.0000           -0.4671394             -12.7115
        59        2.0000           -0.4459346             -12.1345 (HOMO)
        60                         -0.3588636              -9.7652 (LUMO)
        61                         -0.3477445              -9.4626
        62                         -0.2855041              -7.7690
        63                         -0.2765824              -7.5262
        64                         -0.2373092              -6.4575
        65                         -0.2062738              -5.6130
        66                         -0.1529524              -4.1620
        67                         -0.1509467              -4.1075
        68                         -0.1461824              -3.9778
        69                         -0.1350610              -3.6752
        70                         -0.0666413              -1.8134
       ...                                ...                  ...
       116                          0.6117401              16.6463
      -------------------------------------------------------------
                  HL-Gap            0.0870709 Eh            2.3693 eV

     #   Z          covCN         q      C6AA      α(0)
     1   6 C        3.717    -0.091    22.365     6.756
     2   7 N        3.620     0.128    19.048     6.482
     3   6 C        3.769    -0.042    21.355     6.586
     4   6 C        2.967    -0.008    28.220     8.714
     5   6 C        2.923    -0.039    28.961     8.825
     6   6 C        2.918    -0.022    28.554     8.763
     7   6 C        2.920    -0.018    28.456     8.748
     8   6 C        2.918    -0.022    28.555     8.763
     9   6 C        2.923    -0.038    28.957     8.825
    10   6 C        3.757    -0.040    21.336     6.586
    11   6 C        3.799    -0.074    21.908     6.664
    12   6 C        3.801    -0.071    21.861     6.657
    13   6 C        3.800    -0.068    21.809     6.649
    14   6 C        3.692     0.084    19.361     6.296
    15   8 O        1.706    -0.285    18.740     5.845
    16   6 C        2.864     0.137    24.998     8.196
    17   6 C        2.917    -0.067    29.666     8.932
    18   6 C        2.922    -0.029    28.721     8.788
    19   6 C        2.919    -0.038    28.936     8.821
    20   6 C        2.921    -0.027    28.672     8.781
    21   6 C        2.921    -0.054    29.332     8.881
    22   6 C        3.720    -0.092    22.381     6.757
    23   1 H        0.925     0.099     1.790     2.092
    24   1 H        0.925     0.096     1.819     2.109
    25   1 H        0.925     0.094     1.844     2.124
    26   1 H        0.924     0.082     1.957     2.188
    27   1 H        0.924     0.084     1.939     2.177
    28   1 H        0.926     0.042     2.425     2.435
    29   1 H        0.926     0.059     2.206     2.323
    30   1 H        0.926     0.063     2.169     2.303
    31   1 H        0.926     0.059     2.212     2.326
    32   1 H        0.926     0.039     2.461     2.453
    33   1 H        0.924     0.087     1.910     2.161
    34   1 H        0.924     0.083     1.949     2.183
    35   1 H        0.925     0.073     2.049     2.238
    36   1 H        0.925     0.052     2.298     2.370
    37   1 H        0.925     0.079     1.989     2.205
    38   1 H        0.924     0.038     2.477     2.461
    39   1 H        0.925     0.065     2.144     2.290
    40   1 H        0.924     0.032     2.552     2.498
    41   1 H        0.923     0.037     2.483     2.464
    42   1 H        0.923     0.021     2.721     2.580
    43   1 H        0.926     0.027     2.625     2.534
    44   1 H        0.926     0.040     2.452     2.449
    45   1 H        0.926     0.042     2.416     2.431
    46   1 H        0.926     0.044     2.394     2.420
    47   1 H        0.926     0.045     2.382     2.414
    48   1 H        0.925     0.104     1.753     2.070
    49   1 H        0.925     0.093     1.849     2.127
    50   1 H        0.925     0.095     1.834     2.118

Wiberg/Mayer (AO) data.
largest (>0.10) Wiberg bond orders for each atom

     #   Z sym  total        # sym  WBO       # sym  WBO       # sym  WBO
 ---------------------------------------------------------------------------
     1   6 C    3.930 --    25 H    0.975    23 H    0.971    24 H    0.969
                             2 N    0.962
     2   7 N    3.809 --     1 C    0.962    22 C    0.962    10 C    0.926
                             3 C    0.910
     3   6 C    3.929 --     4 C    1.005    26 H    0.966    27 H    0.965
                             2 N    0.910
     4   6 C    3.978 --     5 C    1.408     9 C    1.407     3 C    1.005
                             7 C    0.109
     5   6 C    3.991 --     6 C    1.444     4 C    1.408    28 H    0.968
                             8 C    0.109
     6   6 C    3.990 --     5 C    1.444     7 C    1.438    29 H    0.969
                             9 C    0.109
     7   6 C    3.988 --     6 C    1.438     8 C    1.437    30 H    0.969
                             4 C    0.109
     8   6 C    3.990 --     9 C    1.446     7 C    1.437    31 H    0.969
                             5 C    0.109
     9   6 C    3.991 --     8 C    1.446     4 C    1.407    32 H    0.968
                             6 C    0.109
    10   6 C    3.928 --    11 C    1.002    34 H    0.966    33 H    0.963
                             2 N    0.926
    11   6 C    3.985 --    12 C    1.006    10 C    1.002    35 H    0.967
                            36 H    0.963
    12   6 C    3.991 --    13 C    1.009    11 C    1.006    38 H    0.975
                            37 H    0.969
    13   6 C    3.994 --    12 C    1.009    14 C    1.001    39 H    0.974
                            40 H    0.974
    14   6 C    3.956 --    13 C    1.001    15 O    0.981    41 H    0.966
                            42 H    0.963
    15   8 O    2.208 --    16 C    1.035    14 C    0.981
    16   6 C    3.929 --    17 C    1.388    21 C    1.357    15 O    1.035
    17   6 C    3.988 --    18 C    1.431    16 C    1.388    43 H    0.967
                            20 C    0.106
    18   6 C    3.992 --    19 C    1.451    17 C    1.431    44 H    0.971
                            21 C    0.112
    19   6 C    3.992 --    18 C    1.451    20 C    1.421    45 H    0.971
    20   6 C    3.991 --    21 C    1.467    19 C    1.421    46 H    0.970
                            17 C    0.106
    21   6 C    3.988 --    20 C    1.467    16 C    1.357    47 H    0.969
                            18 C    0.112
    22   6 C    3.930 --    49 H    0.975    50 H    0.975    48 H    0.970
                             2 N    0.962
    23   1 H    0.990 --     1 C    0.971
    24   1 H    0.991 --     1 C    0.969
    25   1 H    0.991 --     1 C    0.975
    26   1 H    0.993 --     3 C    0.966
    27   1 H    0.992 --     3 C    0.965
    28   1 H    0.998 --     5 C    0.968
    29   1 H    0.996 --     6 C    0.969
    30   1 H    0.996 --     7 C    0.969
    31   1 H    0.996 --     8 C    0.969
    32   1 H    0.998 --     9 C    0.968
    33   1 H    0.992 --    10 C    0.963
    34   1 H    0.993 --    10 C    0.966
    35   1 H    0.994 --    11 C    0.967
    36   1 H    0.997 --    11 C    0.963
    37   1 H    0.993 --    12 C    0.969
    38   1 H    0.998 --    12 C    0.975
    39   1 H    0.996 --    13 C    0.974
    40   1 H    0.998 --    13 C    0.974
    41   1 H    0.999 --    14 C    0.966
    42   1 H    1.000 --    14 C    0.963
    43   1 H    0.999 --    17 C    0.967
    44   1 H    0.998 --    18 C    0.971
    45   1 H    0.998 --    19 C    0.971
    46   1 H    0.997 --    20 C    0.970
    47   1 H    0.998 --    21 C    0.969
    48   1 H    0.988 --    22 C    0.970
    49   1 H    0.991 --    22 C    0.975
    50   1 H    0.991 --    22 C    0.975
 ---------------------------------------------------------------------------

molecular dipole:
                 x           y           z       tot (Debye)
 q only:        2.058      -0.340       2.994
   full:        2.007      -0.250       3.167       9.552

           -------------------------------------------------
          | TOTAL ENERGY              -63.679926389989 Eh   |
          | GRADIENT NORM               0.000269391439 Eh/α |
          | HOMO-LUMO GAP               2.369320228731 eV   |
           -------------------------------------------------

 * finished run on 2024/12/20 at 06:58:19.856
