   * xtb version 6.7.1 (edcfbbe) compiled by 'conda@3ef47c1a292c' on 2024-11-25

   ID    Z sym.   atoms
    1    6 C      1-7, 9-27
    2    7 N      8
    3    1 H      28-83

          program call               : xtb C0808.xyz --opt --namespace C0808 --charge +1
          :  Hamiltonian                  GFN2-xTB          :
 * total energy  :   -86.7715792 Eh     change       -0.2662546E-09 Eh
 * total energy  :   -86.7814708 Eh     change       -0.9891610E-02 Eh
 * total energy  :   -86.7843671 Eh     change       -0.2896365E-02 Eh
 * total energy  :   -86.7848404 Eh     change       -0.4732718E-03 Eh
 * total energy  :   -86.7853037 Eh     change       -0.4633177E-03 Eh
 * total energy  :   -86.7856248 Eh     change       -0.3210557E-03 Eh
 * total energy  :   -86.7859959 Eh     change       -0.3711350E-03 Eh
 * total energy  :   -86.7864578 Eh     change       -0.4619015E-03 Eh
 * total energy  :   -86.7870288 Eh     change       -0.5709808E-03 Eh
 * total energy  :   -86.7877046 Eh     change       -0.6758248E-03 Eh
 * total energy  :   -86.8085309 Eh     change       -0.5652465E-05 Eh
 * total energy  :   -86.8085367 Eh     change       -0.5790184E-05 Eh
 * total energy  :   -86.8085428 Eh     change       -0.6106767E-05 Eh
 * total energy  :   -86.8085498 Eh     change       -0.6938465E-05 Eh
 * total energy  :   -86.8085574 Eh     change       -0.7615818E-05 Eh
 * total energy  :   -86.8085653 Eh     change       -0.7943775E-05 Eh
 * total energy  :   -86.8085727 Eh     change       -0.7318473E-05 Eh
 * total energy  :   -86.8085795 Eh     change       -0.6826667E-05 Eh
 * total energy  :   -86.8085856 Eh     change       -0.6144103E-05 Eh
 * total energy  :   -86.8085918 Eh     change       -0.6212410E-05 Eh

 final structure:
================
83
 xtb: 6.7.1 (edcfbbe)
C           -0.61710868945552       -0.15410902480195       -6.24084554403582
C           -1.70907155822506        0.34675071664824       -5.30228494682854
C           -1.94395507108876       -0.57687228544983       -4.10615345548693
C           -0.76355721540791       -0.59934504705085       -3.13608859202499
C           -1.05847216081701       -1.33876055786520       -1.82990372797026
C           -1.45237276348156       -2.81385911571749       -1.98831630294817
C           -0.32568796943059       -3.59763186411054       -2.66049934275669
N           -0.45033067683383       -5.08474128750347       -2.68502106703136
C           -1.74821540154351       -5.51879210475823       -3.30462436087952
C           -2.25551581486811       -4.77898051645087       -4.54598326639887
C           -3.21382645761589       -5.67030584927559       -5.34559189765466
C           -4.46705485075407       -6.11011102985192       -4.58560437360070
C           -5.32950396368096       -4.96861555940508       -4.04159788708249
C           -5.83567053878125       -3.98369928010038       -5.09739786948153
C           -6.72903758456633       -4.63628233109458       -6.14516064168633
C            0.71680297351483       -5.68075295109824       -3.41010920878550
C            0.84335485233587       -5.47301444711276       -4.91659755240406
C            2.18237466015080       -6.03608210043193       -5.41192029877530
C            2.29185126375295       -7.55552651482868       -5.27998712009437
C            3.46244065659657       -8.13094365569048       -6.07918977463897
C            4.82164694101256       -7.67726382397876       -5.56093233984026
C           -0.44687564412999       -5.66512512141394       -1.29115474690408
C            0.87714426275660       -5.87743236922032       -0.54481359478866
C            1.68121526518203       -4.65890849460139       -0.08231114843596
C            0.94873743980392       -3.71155366415099        0.87059137774802
C            0.44883085872332       -4.35702480622196        2.16506987978427
C            1.56598329349095       -4.94492216354463        3.01833615737632
H            0.35192057389093       -0.16741163519310       -5.74804693193141
H           -0.54186117014522        0.49828532282367       -7.10631933008347
H           -0.84491511317826       -1.15875682255941       -6.59402491742404
H           -1.44928346787119        1.34366036056239       -4.94309805370463
H           -2.64208009372297        0.43139874654447       -5.86276320074284
H           -2.83138590951417       -0.23567162208905       -3.56883177101221
H           -2.14697865868751       -1.58209760179546       -4.48326266234100
H            0.11320105065875       -1.03078905043445       -3.62068405637919
H           -0.51110943132361        0.43090679637135       -2.87924230619814
H           -0.18005344500132       -1.27067629265316       -1.18384131906967
H           -1.87844459209600       -0.83105790065731       -1.31935599487970
H           -1.66848094205227       -3.19855295568251       -0.99109760483263
H           -2.37304260598068       -2.86947139704210       -2.56434503485870
H           -0.24704363254565       -3.26339757904066       -3.69361689691222
H            0.60828059872791       -3.35767463800199       -2.15288697551730
H           -1.63233471545298       -6.57612677229109       -3.55497903815406
H           -2.51552772664329       -5.43827739426277       -2.53304520753503
H           -2.79001305076133       -3.87438367846633       -4.26261986250447
H           -1.44466079569760       -4.48718714119881       -5.20731635394917
H           -3.51429591078574       -5.12193063720352       -6.23829284686559
H           -2.68044414168527       -6.56350733934090       -5.68089936719524
H           -5.07147367893873       -6.71226036248663       -5.26392573914158
H           -4.18652902241782       -6.75985601754411       -3.75301542417890
H           -6.19357713840779       -5.41447234426705       -3.54489062502590
H           -4.77620543201733       -4.41444349312849       -3.27797858807758
H           -6.40680629821422       -3.20719457388289       -4.58391754661001
H           -4.99469091815358       -3.49211820822699       -5.59113678709259
H           -7.54560557531993       -5.17241168054340       -5.66753379863564
H           -7.15504139786623       -3.87824329485967       -6.79725846653442
H           -6.17143843224130       -5.33561499420585       -6.76291937993199
H            1.61909643488603       -5.28083784684781       -2.94531784367169
H            0.67854595783999       -6.75567169554953       -3.22602279938624
H            0.04511486688437       -5.98833030105996       -5.44968543187500
H            0.81576532172244       -4.41224205834447       -5.16955230311840
H            2.28168448560047       -5.77374435081093       -6.46630477508144
H            3.00066416469793       -5.55548344123216       -4.87453438906556
H            2.41809391251401       -7.83808866016272       -4.23239410469417
H            1.36777027456711       -8.01111686497849       -5.64492510503770
H            3.41020101647731       -9.22001157297187       -6.02764513332300
H            3.35859963216055       -7.84568753561386       -7.12760478781612
H            4.92710008552845       -7.91249269649032       -4.50384069954256
H            5.61424578567407       -8.18664560152825       -6.10174246446449
H            4.95846354498498       -6.60746754860278       -5.69534735004024
H           -1.10026552527026       -5.04726616890135       -0.67783370729472
H           -0.90599793880647       -6.65318947481697       -1.37435366825283
H            0.59233670783001       -6.43553952430078        0.34975773895683
H            1.53633342087299       -6.53562994947952       -1.11117467436231
H            2.56321932726507       -5.04405963099812        0.43092147683950
H            2.05439978387055       -4.08702365314104       -0.93542948857950
H            1.64197625133476       -2.90987260236499        1.13363375751892
H            0.10136106945807       -3.24605813826803        0.36469497681841
H           -0.06196586470342       -3.58439122244377        2.74297777956449
H           -0.28918189330678       -5.13169451837188        1.94415139638046
H            2.32726463932284       -4.19463982836770        3.21671519412432
H            1.16692010511274       -5.28359790150558        3.97049308197754
H            2.03696940008111       -5.79562776235449        2.53182105550723

          :  Hamiltonian                  GFN2-xTB          :
         :: total energy             -86.808598879501 Eh    ::
         :: gradient norm              0.000294107413 Eh/a0 ::
         :: HOMO-LUMO gap              7.430318328588 eV    ::
         :: SCC energy               -88.078488318008 Eh    ::
         :: -> dispersion             -0.072373378243 Eh    ::
         :: repulsion energy           1.269889438507 Eh    ::

    * Orbital Energies and Occupations

         #    Occupation            Energy/Eh            Energy/eV
      -------------------------------------------------------------
         1        2.0000           -0.8365684             -22.7642
       ...           ...                  ...                  ...
        70        2.0000           -0.5330001             -14.5037
        71        2.0000           -0.5286558             -14.3855
        72        2.0000           -0.5228992             -14.2288
        73        2.0000           -0.5228443             -14.2273
        74        2.0000           -0.5178623             -14.0917
        75        2.0000           -0.5169233             -14.0662
        76        2.0000           -0.5167635             -14.0619
        77        2.0000           -0.5145704             -14.0022
        78        2.0000           -0.5136939             -13.9783
        79        2.0000           -0.5095562             -13.8657
        80        2.0000           -0.5087204             -13.8430
        81        2.0000           -0.5064649             -13.7816
        82        2.0000           -0.5042488             -13.7213 (HOMO)
        83                         -0.2311896              -6.2910 (LUMO)
        84                         -0.1689074              -4.5962
        85                         -0.1534812              -4.1764
        86                         -0.1442210              -3.9245
        87                         -0.0690206              -1.8781
        88                         -0.0635254              -1.7286
        89                         -0.0569826              -1.5506
        90                         -0.0501761              -1.3654
        91                         -0.0366611              -0.9976
        92                         -0.0331808              -0.9029
        93                         -0.0311502              -0.8476
       ...                                ...                  ...
       164                          0.2341610               6.3718
      -------------------------------------------------------------
                  HL-Gap            0.2730592 Eh            7.4303 eV

     #   Z          covCN         q      C6AA      α(0)
     1   6 C        3.751    -0.104    22.552     6.772
     2   6 C        3.800    -0.058    21.616     6.620
     3   6 C        3.801    -0.060    21.653     6.625
     4   6 C        3.801    -0.066    21.768     6.643
     5   6 C        3.802    -0.065    21.754     6.640
     6   6 C        3.799    -0.066    21.774     6.644
     7   6 C        3.751    -0.033    21.227     6.571
     8   7 N        3.615     0.097    19.555     6.568
     9   6 C        3.757    -0.032    21.190     6.563
    10   6 C        3.800    -0.070    21.836     6.653
    11   6 C        3.802    -0.064    21.720     6.635
    12   6 C        3.800    -0.065    21.754     6.641
    13   6 C        3.800    -0.059    21.640     6.623
    14   6 C        3.799    -0.054    21.553     6.610
    15   6 C        3.752    -0.107    22.605     6.780
    16   6 C        3.759    -0.033    21.221     6.567
    17   6 C        3.800    -0.068    21.802     6.648
    18   6 C        3.803    -0.067    21.786     6.645
    19   6 C        3.801    -0.062    21.693     6.631
    20   6 C        3.800    -0.057    21.608     6.618
    21   6 C        3.752    -0.108    22.625     6.783
    22   6 C        3.761    -0.036    21.263     6.574
    23   6 C        3.798    -0.074    21.915     6.666
    24   6 C        3.799    -0.063    21.715     6.635
    25   6 C        3.800    -0.065    21.746     6.640
    26   6 C        3.799    -0.057    21.593     6.616
    27   6 C        3.751    -0.109    22.640     6.785
    28   1 H        0.925     0.033     2.547     2.496
    29   1 H        0.925     0.044     2.398     2.421
    30   1 H        0.925     0.027     2.631     2.537
    31   1 H        0.924     0.040     2.455     2.450
    32   1 H        0.924     0.039     2.469     2.457
    33   1 H        0.924     0.036     2.499     2.472
    34   1 H        0.924     0.022     2.708     2.573
    35   1 H        0.924     0.030     2.583     2.513
    36   1 H        0.924     0.050     2.319     2.382
    37   1 H        0.924     0.040     2.446     2.446
    38   1 H        0.924     0.053     2.277     2.360
    39   1 H        0.924     0.043     2.407     2.426
    40   1 H        0.925     0.055     2.253     2.347
    41   1 H        0.925     0.085     1.929     2.172
    42   1 H        0.925     0.084     1.938     2.177
    43   1 H        0.924     0.076     2.021     2.223
    44   1 H        0.924     0.078     2.001     2.212
    45   1 H        0.925     0.059     2.210     2.325
    46   1 H        0.925     0.053     2.287     2.365
    47   1 H        0.925     0.058     2.217     2.328
    48   1 H        0.924     0.033     2.540     2.492
    49   1 H        0.925     0.053     2.278     2.360
    50   1 H        0.924     0.024     2.675     2.558
    51   1 H        0.924     0.042     2.423     2.434
    52   1 H        0.924     0.016     2.791     2.612
    53   1 H        0.924     0.036     2.510     2.477
    54   1 H        0.924     0.028     2.620     2.531
    55   1 H        0.925     0.041     2.438     2.442
    56   1 H        0.925     0.041     2.432     2.439
    57   1 H        0.925     0.036     2.507     2.476
    58   1 H        0.924     0.083     1.953     2.185
    59   1 H        0.924     0.079     1.993     2.208
    60   1 H        0.925     0.058     2.221     2.331
    61   1 H        0.924     0.045     2.379     2.412
    62   1 H        0.924     0.058     2.228     2.334
    63   1 H        0.924     0.044     2.394     2.419
    64   1 H        0.924     0.027     2.624     2.533
    65   1 H        0.924     0.032     2.558     2.501
    66   1 H        0.924     0.041     2.434     2.440
    67   1 H        0.924     0.039     2.464     2.455
    68   1 H        0.925     0.035     2.512     2.478
    69   1 H        0.925     0.046     2.369     2.407
    70   1 H        0.925     0.036     2.504     2.475
    71   1 H        0.925     0.085     1.926     2.170
    72   1 H        0.924     0.071     2.079     2.255
    73   1 H        0.924     0.076     2.020     2.222
    74   1 H        0.925     0.050     2.322     2.383
    75   1 H        0.924     0.060     2.200     2.320
    76   1 H        0.924     0.025     2.661     2.551
    77   1 H        0.924     0.046     2.370     2.407
    78   1 H        0.924     0.026     2.638     2.540
    79   1 H        0.924     0.041     2.438     2.442
    80   1 H        0.924     0.025     2.659     2.550
    81   1 H        0.925     0.044     2.402     2.424
    82   1 H        0.925     0.045     2.385     2.415
    83   1 H        0.925     0.034     2.524     2.485

Wiberg/Mayer (AO) data.
largest (>0.10) Wiberg bond orders for each atom

     #   Z sym  total        # sym  WBO       # sym  WBO       # sym  WBO
 ---------------------------------------------------------------------------
     1   6 C    3.997 --     2 C    1.020    30 H    0.988    29 H    0.986
                            28 H    0.986
     2   6 C    3.996 --     1 C    1.020     3 C    1.006    32 H    0.978
                            31 H    0.977
     3   6 C    3.997 --     4 C    1.009     2 C    1.006    33 H    0.977
                            34 H    0.973
     4   6 C    3.995 --     3 C    1.009     5 C    1.007    35 H    0.974
                            36 H    0.974
     5   6 C    3.991 --     4 C    1.007     6 C    0.997    37 H    0.975
                            38 H    0.974
     6   6 C    3.989 --     7 C    1.007     5 C    0.997    40 H    0.966
                            39 H    0.963
     7   6 C    3.932 --     6 C    1.007    41 H    0.959    42 H    0.957
                             8 N    0.933
     8   7 N    3.795 --     7 C    0.933    16 C    0.931     9 C    0.928
                            22 C    0.924
     9   6 C    3.933 --    10 C    1.003    44 H    0.968    43 H    0.966
                             8 N    0.928
    10   6 C    3.986 --     9 C    1.003    11 C    0.998    46 H    0.966
                            45 H    0.963
    11   6 C    3.991 --    12 C    1.008    10 C    0.998    48 H    0.976
                            47 H    0.971
    12   6 C    3.995 --    11 C    1.008    13 C    1.007    50 H    0.977
                            49 H    0.973
    13   6 C    3.997 --    14 C    1.007    12 C    1.007    51 H    0.976
                            52 H    0.975
    14   6 C    3.998 --    15 C    1.020    13 C    1.007    53 H    0.978
                            54 H    0.976
    15   6 C    3.996 --    14 C    1.020    55 H    0.987    56 H    0.986
                            57 H    0.986
    16   6 C    3.934 --    17 C    1.007    59 H    0.964    58 H    0.963
                             8 N    0.931
    17   6 C    3.989 --    16 C    1.007    18 C    0.995    60 H    0.971
                            61 H    0.970
    18   6 C    3.990 --    19 C    1.008    17 C    0.995    63 H    0.975
                            62 H    0.973
    19   6 C    3.997 --    18 C    1.008    20 C    1.006    65 H    0.977
                            64 H    0.976
    20   6 C    3.996 --    21 C    1.021    19 C    1.006    67 H    0.977
                            66 H    0.977
    21   6 C    3.996 --    20 C    1.021    68 H    0.987    70 H    0.987
                            69 H    0.986
    22   6 C    3.933 --    23 C    1.005    72 H    0.969    71 H    0.958
                             8 N    0.924
    23   6 C    3.984 --    24 C    1.006    22 C    1.005    74 H    0.971
                            73 H    0.959
    24   6 C    3.993 --    25 C    1.007    23 C    1.006    75 H    0.970
                            76 H    0.967
    25   6 C    3.996 --    26 C    1.007    24 C    1.007    77 H    0.975
                            78 H    0.971
    26   6 C    3.997 --    27 C    1.021    25 C    1.007    79 H    0.977
                            80 H    0.976
    27   6 C    3.995 --    26 C    1.021    81 H    0.987    82 H    0.986
                            83 H    0.986
    28   1 H    0.999 --     1 C    0.986
    29   1 H    0.998 --     1 C    0.986
    30   1 H    0.999 --     1 C    0.988
    31   1 H    0.998 --     2 C    0.977
    32   1 H    0.998 --     2 C    0.978
    33   1 H    0.999 --     3 C    0.977
    34   1 H    1.000 --     3 C    0.973
    35   1 H    0.999 --     4 C    0.974
    36   1 H    0.997 --     4 C    0.974
    37   1 H    0.998 --     5 C    0.975
    38   1 H    0.997 --     5 C    0.974
    39   1 H    0.998 --     6 C    0.963
    40   1 H    0.997 --     6 C    0.966
    41   1 H    0.993 --     7 C    0.959
    42   1 H    0.993 --     7 C    0.957
    43   1 H    0.994 --     9 C    0.966
    44   1 H    0.994 --     9 C    0.968
    45   1 H    0.996 --    10 C    0.963
    46   1 H    0.997 --    10 C    0.966
    47   1 H    0.996 --    11 C    0.971
    48   1 H    0.999 --    11 C    0.976
    49   1 H    0.997 --    12 C    0.973
    50   1 H    0.999 --    12 C    0.977
    51   1 H    0.998 --    13 C    0.976
    52   1 H    1.000 --    13 C    0.975
    53   1 H    0.999 --    14 C    0.978
    54   1 H    0.999 --    14 C    0.976
    55   1 H    0.998 --    15 C    0.987
    56   1 H    0.998 --    15 C    0.986
    57   1 H    0.999 --    15 C    0.986
    58   1 H    0.993 --    16 C    0.963
    59   1 H    0.993 --    16 C    0.964
    60   1 H    0.997 --    17 C    0.971
    61   1 H    0.998 --    17 C    0.970
    62   1 H    0.996 --    18 C    0.973
    63   1 H    0.998 --    18 C    0.975
    64   1 H    0.999 --    19 C    0.976
    65   1 H    0.999 --    19 C    0.977
    66   1 H    0.998 --    20 C    0.977
    67   1 H    0.998 --    20 C    0.977
    68   1 H    0.999 --    21 C    0.987
    69   1 H    0.998 --    21 C    0.986
    70   1 H    0.999 --    21 C    0.987
    71   1 H    0.992 --    22 C    0.958
    72   1 H    0.995 --    22 C    0.969
    73   1 H    0.994 --    23 C    0.959
    74   1 H    0.997 --    23 C    0.971
    75   1 H    0.996 --    24 C    0.970
    76   1 H    0.999 --    24 C    0.967
    77   1 H    0.998 --    25 C    0.975
    78   1 H    0.999 --    25 C    0.971
    79   1 H    0.998 --    26 C    0.977
    80   1 H    0.999 --    26 C    0.976
    81   1 H    0.998 --    27 C    0.987
    82   1 H    0.998 --    27 C    0.986
    83   1 H    0.999 --    27 C    0.986
 ---------------------------------------------------------------------------

molecular dipole:
                 x           y           z       tot (Debye)
 q only:       -0.822      -9.242      -5.340
   full:       -0.839      -9.331      -5.252      27.300

           -------------------------------------------------
          | TOTAL ENERGY              -86.808598879501 Eh   |
          | GRADIENT NORM               0.000294107413 Eh/α |
          | HOMO-LUMO GAP               7.430318328588 eV   |
           -------------------------------------------------

 * finished run on 2024/12/20 at 06:58:45.243
