   * xtb version 6.7.1 (edcfbbe) compiled by 'conda@3ef47c1a292c' on 2024-11-25

   ID    Z sym.   atoms
    1    6 C      1, 2, 4-6, 11-14
    2    7 N      3
    3   16 S      7
    4    8 O      8-10
    5    1 H      15-36

          program call               : xtb C0817.xyz --opt --namespace C0817 --charge +1
          :  Hamiltonian                  GFN2-xTB          :
 * total energy  :   -48.4506951 Eh     change       -0.3934986E-10 Eh
 * total energy  :   -48.4599268 Eh     change       -0.9231722E-02 Eh
 * total energy  :   -48.4634325 Eh     change       -0.3505690E-02 Eh
 * total energy  :   -48.4642335 Eh     change       -0.8010546E-03 Eh
 * total energy  :   -48.4651385 Eh     change       -0.9049341E-03 Eh
 * total energy  :   -48.4655329 Eh     change       -0.3944066E-03 Eh
 * total energy  :   -48.4660480 Eh     change       -0.5151410E-03 Eh
 * total energy  :   -48.4665209 Eh     change       -0.4729096E-03 Eh
 * total energy  :   -48.4668537 Eh     change       -0.3328182E-03 Eh
 * total energy  :   -48.4670961 Eh     change       -0.2423853E-03 Eh
 * total energy  :   -48.4674228 Eh     change       -0.3726376E-04 Eh
 * total energy  :   -48.4674638 Eh     change       -0.4101278E-04 Eh
 * total energy  :   -48.4674902 Eh     change       -0.2631811E-04 Eh
 * total energy  :   -48.4675158 Eh     change       -0.2560191E-04 Eh
 * total energy  :   -48.4675346 Eh     change       -0.1883967E-04 Eh
 * total energy  :   -48.4675474 Eh     change       -0.1283399E-04 Eh
 * total energy  :   -48.4675536 Eh     change       -0.6137560E-05 Eh
 * total energy  :   -48.4675565 Eh     change       -0.2966635E-05 Eh
 * total energy  :   -48.4675615 Eh     change       -0.4953873E-05 Eh
   *** GEOMETRY OPTIMIZATION CONVERGED AFTER 22 ITERATIONS ***

 final structure:
================
36
 xtb: 6.7.1 (edcfbbe)
C            0.94158992474777        0.05043523142557       -0.17087768732199
C            0.69996035853133       -1.19329688258993        0.67303133424591
N            1.04805160768203       -1.06252080350329        2.11846535323320
C            0.42892938601881        0.16375126009954        2.71914472014860
C           -1.10156306138150        0.25794338068644        2.76910174659279
C           -1.74353225618985       -0.23203212522110        4.05675290216454
S           -0.91477828570888        0.51811962713869        5.48508727622991
O           -0.25681071760845        1.71284782322610        5.07520140331884
O           -1.75199898913756        0.50428010334129        6.62991491824303
O            0.23715710072716       -0.62337296114347        5.72282101269476
C            0.52705735472635       -2.24865370547999        2.86797403909195
C            1.18837960881737       -3.59101298117369        2.59582970227233
C            2.53172801707107       -0.90649088969506        2.32880751893583
C            3.46732798190184       -1.63875880032715        1.37540731783063
H            0.21263278486181        0.83005846744583        0.02849561415270
H            0.83876885585039       -0.22755997198436       -1.21691157650774
H            1.93868286481370        0.45765815322241       -0.03698293399850
H           -0.35377324491795       -1.46727511043388        0.60261076788450
H            1.28153811741314       -2.02197978180186        0.27210949091765
H            0.80972270852710        0.26799375974245        3.73432031631740
H            0.79726368466354        1.01486434851144        2.14775098743320
H           -1.33355863648478        1.32206578974587        2.69737393394962
H           -1.56908830691595       -0.22973569771638        1.91194285018345
H           -2.77716819020668        0.09468472338166        4.12253632974751
H           -1.70206230270802       -1.30213151067821        4.22177775438543
H            0.26963971596001       -0.85133017609843        6.65519946611183
H            0.62478619453280       -2.01770158016666        3.93088404461741
H           -0.53216162444987       -2.33628258584277        2.62393928271137
H            2.21062142338587       -3.62849815440524        2.95769426497995
H            0.62770187351720       -4.34603269155979        3.14242105384568
H            1.15995104286818       -3.86729526472518        1.54577842776264
H            2.76424773565845        0.15715181843447        2.26092069588908
H            2.73380066163066       -1.21940750198449        3.35423309081179
H            3.42531603832283       -1.23949200426330        0.36681510163531
H            4.47954877260146       -1.47925152918517        1.74061231593258
H            3.30185180088552       -2.70890177642105        1.33716716356213

          :  Hamiltonian                  GFN2-xTB          :
         :: total energy             -48.467561498103 Eh    ::
         :: gradient norm              0.000499098874 Eh/a0 ::
         :: HOMO-LUMO gap              7.782968976944 eV    ::
         :: SCC energy               -49.008312762413 Eh    ::
         :: -> dispersion             -0.032777542100 Eh    ::
         :: repulsion energy           0.540751264310 Eh    ::

    * Orbital Energies and Occupations

         #    Occupation            Energy/Eh            Energy/eV
      -------------------------------------------------------------
         1        2.0000           -0.9112732             -24.7970
       ...           ...                  ...                  ...
        31        2.0000           -0.6222719             -16.9329
        32        2.0000           -0.6178347             -16.8121
        33        2.0000           -0.6128055             -16.6753
        34        2.0000           -0.6074246             -16.5289
        35        2.0000           -0.6067494             -16.5105
        36        2.0000           -0.6009753             -16.3534
        37        2.0000           -0.5981434             -16.2763
        38        2.0000           -0.5935166             -16.1504
        39        2.0000           -0.5897754             -16.0486
        40        2.0000           -0.5806679             -15.8008
        41        2.0000           -0.5780358             -15.7292
        42        2.0000           -0.5640497             -15.3486
        43        2.0000           -0.5543058             -15.0834 (HOMO)
        44                         -0.2682869              -7.3005 (LUMO)
        45                         -0.2397581              -6.5242
        46                         -0.2233951              -6.0789
        47                         -0.1777864              -4.8378
        48                         -0.1703579              -4.6357
        49                         -0.1652600              -4.4970
        50                         -0.1600634              -4.3555
        51                         -0.1485272              -4.0416
        52                         -0.0879281              -2.3926
        53                         -0.0689360              -1.8758
        54                         -0.0527339              -1.4350
       ...                                ...                  ...
        83                          1.1698774              31.8340
      -------------------------------------------------------------
                  HL-Gap            0.2860188 Eh            7.7830 eV

     #   Z          covCN         q      C6AA      α(0)
     1   6 C        3.751    -0.131    23.090     6.853
     2   6 C        3.749    -0.033    21.224     6.571
     3   7 N        3.616     0.105    19.435     6.548
     4   6 C        3.766    -0.060    21.702     6.640
     5   6 C        3.844    -0.082    22.023     6.676
     6   6 C        3.796    -0.185    24.118     6.993
     7  16 S        3.605     1.323    97.875    16.651
     8   8 O        0.860    -0.580    25.626     6.787
     9   8 O        0.860    -0.569    25.378     6.754
    10   8 O        1.662    -0.576    24.587     6.694
    11   6 C        3.757    -0.040    21.345     6.587
    12   6 C        3.751    -0.128    23.026     6.843
    13   6 C        3.757    -0.034    21.239     6.571
    14   6 C        3.750    -0.131    23.088     6.853
    15   1 H        0.925     0.067     2.124     2.279
    16   1 H        0.925     0.083     1.946     2.181
    17   1 H        0.925     0.068     2.111     2.272
    18   1 H        0.924     0.078     1.998     2.210
    19   1 H        0.925     0.095     1.829     2.115
    20   1 H        0.925     0.108     1.714     2.047
    21   1 H        0.925     0.105     1.740     2.063
    22   1 H        0.924     0.098     1.801     2.099
    23   1 H        0.924     0.082     1.963     2.191
    24   1 H        0.925     0.104     1.747     2.067
    25   1 H        0.926     0.087     1.904     2.158
    26   1 H        0.818     0.359     0.565     1.179
    27   1 H        0.924     0.094     1.839     2.121
    28   1 H        0.924     0.079     1.993     2.208
    29   1 H        0.925     0.072     2.066     2.248
    30   1 H        0.925     0.082     1.961     2.190
    31   1 H        0.925     0.064     2.150     2.293
    32   1 H        0.924     0.086     1.918     2.166
    33   1 H        0.924     0.087     1.911     2.162
    34   1 H        0.925     0.070     2.082     2.257
    35   1 H        0.925     0.084     1.943     2.180
    36   1 H        0.925     0.071     2.078     2.254

Wiberg/Mayer (AO) data.
largest (>0.10) Wiberg bond orders for each atom

     #   Z sym  total        # sym  WBO       # sym  WBO       # sym  WBO
 ---------------------------------------------------------------------------
     1   6 C    3.982 --     2 C    1.021    15 H    0.981    17 H    0.979
                            16 H    0.974
     2   6 C    3.935 --     1 C    1.021    18 H    0.964    19 H    0.961
                             3 N    0.933
     3   7 N    3.798 --     4 C    0.935     2 C    0.933    11 C    0.931
                            13 C    0.921
     4   6 C    3.931 --     5 C    1.007    21 H    0.960    20 H    0.955
                             3 N    0.935
     5   6 C    3.985 --     6 C    1.021     4 C    1.007    22 H    0.964
                            23 H    0.960
     6   6 C    3.977 --     5 C    1.021    25 H    0.968    24 H    0.965
                             7 S    0.735     8 O    0.110     9 O    0.102
     7  16 S    4.884 --     9 O    1.611     8 O    1.590    10 O    0.915
                             6 C    0.735
     8   8 O    1.913 --     7 S    1.590     9 O    0.120     6 C    0.110
     9   8 O    1.924 --     7 S    1.611     8 O    0.120     6 C    0.102
    10   8 O    1.992 --     7 S    0.915    26 H    0.849
    11   6 C    3.935 --    12 C    1.022    28 H    0.965    27 H    0.960
                             3 N    0.931
    12   6 C    3.982 --    11 C    1.022    31 H    0.980    29 H    0.979
                            30 H    0.973
    13   6 C    3.931 --    14 C    1.022    33 H    0.968    32 H    0.967
                             3 N    0.921
    14   6 C    3.980 --    13 C    1.022    34 H    0.979    36 H    0.976
                            35 H    0.971
    15   1 H    0.996 --     1 C    0.981
    16   1 H    0.993 --     1 C    0.974
    17   1 H    0.995 --     1 C    0.979
    18   1 H    0.994 --     2 C    0.964
    19   1 H    0.991 --     2 C    0.961
    20   1 H    0.988 --     4 C    0.955
    21   1 H    0.989 --     4 C    0.960
    22   1 H    0.990 --     5 C    0.964
    23   1 H    0.993 --     5 C    0.960
    24   1 H    0.989 --     6 C    0.965
    25   1 H    0.992 --     6 C    0.968
    26   1 H    0.871 --    10 O    0.849
    27   1 H    0.991 --    11 C    0.960
    28   1 H    0.994 --    11 C    0.965
    29   1 H    0.995 --    12 C    0.979
    30   1 H    0.993 --    12 C    0.973
    31   1 H    0.996 --    12 C    0.980
    32   1 H    0.993 --    13 C    0.967
    33   1 H    0.992 --    13 C    0.968
    34   1 H    0.995 --    14 C    0.979
    35   1 H    0.993 --    14 C    0.971
    36   1 H    0.995 --    14 C    0.976
 ---------------------------------------------------------------------------

molecular dipole:
                 x           y           z       tot (Debye)
 q only:        1.773      -3.101       3.259
   full:        1.672      -3.212       3.530      12.854

           -------------------------------------------------
          | TOTAL ENERGY              -48.467561498103 Eh   |
          | GRADIENT NORM               0.000499098874 Eh/α |
          | HOMO-LUMO GAP               7.782968976944 eV   |
           -------------------------------------------------

 * finished run on 2024/12/20 at 06:59:08.095
