   * xtb version 6.7.1 (edcfbbe) compiled by 'conda@3ef47c1a292c' on 2024-11-25

   ID    Z sym.   atoms
    1    6 C      1, 2, 4-6
    2    7 N      3
    3    1 H      7-20

          program call               : xtb C0812.xyz --opt --namespace C0812 --charge +1
          :  Hamiltonian                  GFN2-xTB          :
 * total energy  :   -20.3568310 Eh     change       -0.1862333E-10 Eh
 * total energy  :   -20.3618252 Eh     change       -0.4994261E-02 Eh
 * total energy  :   -20.3628931 Eh     change       -0.1067898E-02 Eh
 * total energy  :   -20.3629145 Eh     change       -0.2142752E-04 Eh
 * total energy  :   -20.3629169 Eh     change       -0.2408170E-05 Eh
   *** GEOMETRY OPTIMIZATION CONVERGED AFTER 5 ITERATIONS ***

 final structure:
================
20
 xtb: 6.7.1 (edcfbbe)
C            1.00715197740539        0.02219988812561       -0.11334097783581
C            0.57009766622329       -1.33483051168907       -0.64086487712930
N            1.05959621457293       -2.51896205956998        0.13323966880135
C            0.56830590522867       -2.47677848018902        1.52245145115564
C            0.54158116896497       -3.73765225377186       -0.51842448320569
C            2.53281246371404       -2.57071594531998        0.13651878866350
H            0.63801568934175        0.21729352217392        0.88905576004805
H            0.58311737634941        0.78150662742981       -0.76585880016988
H            2.08554138082268        0.14807403689404       -0.13215750647449
H           -0.52113256237829       -1.37998163144300       -0.64951549548933
H            0.92282396469222       -1.44903012820620       -1.66821099874033
H           -0.51647573860358       -2.38504337797847        1.53578326145912
H            0.84761068704648       -3.39082480442232        2.04390950266078
H            1.00065091501519       -1.63295506880882        2.05503777109600
H            0.89736627178127       -3.79878584721444       -1.54566123199743
H            0.87766453938306       -4.62359295162986        0.01801176065946
H           -0.54718250377803       -3.72970999643765       -0.52655402560975
H            2.91279800779033       -2.54901672248244       -0.88352273111758
H            2.94347320795348       -1.72585872536074        0.68440769154603
H            2.87194336847472       -3.48762557009952        0.61576547167968

          :  Hamiltonian                  GFN2-xTB          :
         :: total energy             -20.362916947562 Eh    ::
         :: gradient norm              0.000496506616 Eh/a0 ::
         :: HOMO-LUMO gap             10.170763030540 eV    ::
         :: SCC energy               -20.653001443134 Eh    ::
         :: -> dispersion             -0.010998514900 Eh    ::
         :: repulsion energy           0.290084495572 Eh    ::

    * Orbital Energies and Occupations

         #    Occupation            Energy/Eh            Energy/eV
      -------------------------------------------------------------
         1        2.0000           -0.8758275             -23.8325
       ...           ...                  ...                  ...
         7        2.0000           -0.7338480             -19.9690
         8        2.0000           -0.7321475             -19.9227
         9        2.0000           -0.7177231             -19.5302
        10        2.0000           -0.6846707             -18.6308
        11        2.0000           -0.6744842             -18.3536
        12        2.0000           -0.6622700             -18.0213
        13        2.0000           -0.6598541             -17.9555
        14        2.0000           -0.6511749             -17.7194
        15        2.0000           -0.6509655             -17.7137
        16        2.0000           -0.6488387             -17.6558
        17        2.0000           -0.6378256             -17.3561
        18        2.0000           -0.6171119             -16.7925
        19        2.0000           -0.6081488             -16.5486 (HOMO)
        20                         -0.2343801              -6.3778 (LUMO)
        21                         -0.1661279              -4.5206
        22                         -0.1554669              -4.2305
        23                         -0.1510303              -4.1097
        24                         -0.0717883              -1.9535
        25                         -0.0501145              -1.3637
        26                         -0.0214558              -0.5838
        27                          0.0074205               0.2019
        28                          0.0102713               0.2795
        29                          0.0180025               0.4899
        30                          0.0269547               0.7335
       ...                                ...                  ...
        38                          0.1319473               3.5905
      -------------------------------------------------------------
                  HL-Gap            0.3737687 Eh           10.1708 eV

     #   Z          covCN         q      C6AA      α(0)
     1   6 C        3.751    -0.132    23.090     6.853
     2   6 C        3.761    -0.037    21.281     6.576
     3   7 N        3.622     0.145    18.784     6.437
     4   6 C        3.721    -0.099    22.502     6.775
     5   6 C        3.729    -0.100    22.508     6.773
     6   6 C        3.721    -0.099    22.502     6.775
     7   1 H        0.925     0.069     2.092     2.262
     8   1 H        0.925     0.090     1.883     2.146
     9   1 H        0.925     0.069     2.092     2.262
    10   1 H        0.924     0.088     1.894     2.152
    11   1 H        0.924     0.088     1.894     2.152
    12   1 H        0.925     0.100     1.782     2.087
    13   1 H        0.925     0.101     1.780     2.086
    14   1 H        0.925     0.105     1.740     2.063
    15   1 H        0.925     0.101     1.779     2.086
    16   1 H        0.925     0.102     1.765     2.078
    17   1 H        0.925     0.101     1.779     2.086
    18   1 H        0.925     0.100     1.782     2.087
    19   1 H        0.925     0.105     1.740     2.063
    20   1 H        0.925     0.101     1.780     2.086

Wiberg/Mayer (AO) data.
largest (>0.10) Wiberg bond orders for each atom

     #   Z sym  total        # sym  WBO       # sym  WBO       # sym  WBO
 ---------------------------------------------------------------------------
     1   6 C    3.980 --     2 C    1.024     9 H    0.980     7 H    0.980
                             8 H    0.971
     2   6 C    3.930 --     1 C    1.024    10 H    0.968    11 H    0.968
                             3 N    0.921
     3   7 N    3.816 --     5 C    0.958     4 C    0.958     6 C    0.958
                             2 C    0.921
     4   6 C    3.925 --    12 H    0.975    13 H    0.974    14 H    0.971
                             3 N    0.958
     5   6 C    3.926 --    15 H    0.975    17 H    0.975    16 H    0.974
                             3 N    0.958
     6   6 C    3.925 --    18 H    0.975    20 H    0.974    19 H    0.971
                             3 N    0.958
     7   1 H    0.995 --     1 C    0.980
     8   1 H    0.992 --     1 C    0.971
     9   1 H    0.995 --     1 C    0.980
    10   1 H    0.992 --     2 C    0.968
    11   1 H    0.992 --     2 C    0.968
    12   1 H    0.990 --     4 C    0.975
    13   1 H    0.990 --     4 C    0.974
    14   1 H    0.989 --     4 C    0.971
    15   1 H    0.990 --     5 C    0.975
    16   1 H    0.989 --     5 C    0.974
    17   1 H    0.990 --     5 C    0.975
    18   1 H    0.990 --     6 C    0.975
    19   1 H    0.989 --     6 C    0.971
    20   1 H    0.990 --     6 C    0.974
 ---------------------------------------------------------------------------

molecular dipole:
                 x           y           z       tot (Debye)
 q only:        2.023      -4.483       0.262
   full:        2.004      -4.543       0.239      12.635

           -------------------------------------------------
          | TOTAL ENERGY              -20.362916947562 Eh   |
          | GRADIENT NORM               0.000496506616 Eh/α |
          | HOMO-LUMO GAP              10.170763030540 eV   |
           -------------------------------------------------

 * finished run on 2024/12/20 at 06:58:54.646
