   * xtb version 6.7.1 (edcfbbe) compiled by 'conda@3ef47c1a292c' on 2024-11-25

   ID    Z sym.   atoms
    1    6 C      1, 2, 4, 6-15
    2    8 O      3
    3    7 N      5
    4    1 H      16-35

          program call               : xtb C0810.xyz --opt --namespace C0810 --charge +1
          :  Hamiltonian                  GFN2-xTB          :
 * total energy  :   -44.5848326 Eh     change       -0.2867964E-09 Eh
 * total energy  :   -44.5945213 Eh     change       -0.9688680E-02 Eh
 * total energy  :   -44.5972620 Eh     change       -0.2740668E-02 Eh
 * total energy  :   -44.5979582 Eh     change       -0.6962456E-03 Eh
 * total energy  :   -44.5988446 Eh     change       -0.8864434E-03 Eh
 * total energy  :   -44.5994370 Eh     change       -0.5923841E-03 Eh
 * total energy  :   -44.6002885 Eh     change       -0.8514661E-03 Eh
 * total energy  :   -44.6009813 Eh     change       -0.6928344E-03 Eh
 * total energy  :   -44.6013495 Eh     change       -0.3681482E-03 Eh
 * total energy  :   -44.6018046 Eh     change       -0.4550852E-03 Eh
 * total energy  :   -44.6066612 Eh     change       -0.1497552E-04 Eh
 * total energy  :   -44.6066736 Eh     change       -0.1247749E-04 Eh
 * total energy  :   -44.6066837 Eh     change       -0.1009029E-04 Eh
 * total energy  :   -44.6066921 Eh     change       -0.8368870E-05 Eh
 * total energy  :   -44.6066995 Eh     change       -0.7405361E-05 Eh
 * total energy  :   -44.6067064 Eh     change       -0.6862628E-05 Eh
 * total energy  :   -44.6067125 Eh     change       -0.6099068E-05 Eh
 * total energy  :   -44.6067177 Eh     change       -0.5195935E-05 Eh
 * total energy  :   -44.6067221 Eh     change       -0.4400542E-05 Eh
   *** GEOMETRY OPTIMIZATION CONVERGED AFTER 60 ITERATIONS ***

 final structure:
================
35
 xtb: 6.7.1 (edcfbbe)
C            0.95349965523210       -0.58535610677395       -0.33387583013858
C            0.11154436856379        0.09931144500942        0.69554077419159
O           -1.08270937794920        0.02883432231929        0.74829217077756
C            0.96300150850781        0.98583299395845        1.63286555788764
N            0.37589444576468        1.43476050592568        2.92310347598996
C            0.29302966178149        0.29940140354328        3.91394495441194
C           -0.39937869742098       -0.93940509655607        3.41230576147214
C            0.39352112217483       -1.90577688637151        2.79015703762562
C           -0.15227422839526       -3.06176839965004        2.27197703652082
C           -1.51751588209323       -3.27092647763867        2.37558535375534
C           -2.30089975082578       -2.34451073049293        3.03182946345954
C           -1.76740813748264       -1.17516728918377        3.57036838457154
C           -2.71152220684658       -0.26784099682271        4.30243346955571
C            1.27171001712811        2.45995824109116        3.49876035096864
C           -0.94778293359694        2.04910407727339        2.71003921816388
H            0.32252639917760       -0.92344965572874       -1.15127808146263
H            1.42637183497178       -1.45977202085244        0.10979801528405
H            1.73594802006320        0.06711884476590       -0.71278373463597
H            1.90168433179396        0.46963073033249        1.84093530363703
H            1.19570366044242        1.87882865540294        1.04263435787050
H           -0.20099388520580        0.69006212533605        4.80412773072175
H            1.32037042505899        0.04024844748529        4.18156905317527
H            1.46392886953852       -1.75841348917837        2.73543815990208
H            0.47991177242980       -3.79629295174980        1.79834449069271
H           -1.96326079746865       -4.16303280853591        1.96561181868857
H           -3.35937050281026       -2.52486778177449        3.14067260891727
H           -3.32399358375257        0.29659662998866        3.60023020699256
H           -3.39048794041648       -0.87182316514646        4.90036635103528
H           -2.21441588576370        0.42852186471919        4.97085815341452
H            1.30444824874898        3.33776243441571        2.85525356500374
H            0.90700584316385        2.76529249769973        4.47809347081260
H            2.28231300704892        2.07047215807981        3.61102283317386
H           -0.86882460452743        2.85164394832788        1.97859706956260
H           -1.64333975108704        1.30355259915699        2.33291971208051
H           -1.31927502593425        2.46133993161622        3.64526173590096

          :  Hamiltonian                  GFN2-xTB          :
         :: total energy             -44.606722061793 Eh    ::
         :: gradient norm              0.000176538099 Eh/a0 ::
         :: HOMO-LUMO gap              3.121465951833 eV    ::
         :: SCC energy               -45.291617410247 Eh    ::
         :: -> dispersion             -0.034404425001 Eh    ::
         :: repulsion energy           0.684895348454 Eh    ::

    * Orbital Energies and Occupations

         #    Occupation            Energy/Eh            Energy/eV
      -------------------------------------------------------------
         1        2.0000           -0.8666766             -23.5835
       ...           ...                  ...                  ...
        29        2.0000           -0.6108631             -16.6224
        30        2.0000           -0.6084490             -16.5567
        31        2.0000           -0.6057017             -16.4820
        32        2.0000           -0.6024384             -16.3932
        33        2.0000           -0.5953971             -16.2016
        34        2.0000           -0.5900663             -16.0565
        35        2.0000           -0.5801554             -15.7868
        36        2.0000           -0.5744437             -15.6314
        37        2.0000           -0.5484362             -14.9237
        38        2.0000           -0.5394337             -14.6787
        39        2.0000           -0.5388116             -14.6618
        40        2.0000           -0.5215243             -14.1914
        41        2.0000           -0.5118427             -13.9279 (HOMO)
        42                         -0.3971309             -10.8065 (LUMO)
        43                         -0.3504697              -9.5368
        44                         -0.3376548              -9.1881
        45                         -0.2368267              -6.4444
        46                         -0.2086733              -5.6783
        47                         -0.1637854              -4.4568
        48                         -0.1500859              -4.0840
        49                         -0.1406221              -3.8265
        50                         -0.0715120              -1.9459
        51                         -0.0564428              -1.5359
        52                         -0.0269562              -0.7335
       ...                                ...                  ...
        80                          0.5417155              14.7408
      -------------------------------------------------------------
                  HL-Gap            0.1147118 Eh            3.1215 eV

     #   Z          covCN         q      C6AA      α(0)
     1   6 C        3.755    -0.157    23.604     6.927
     2   6 C        2.806     0.249    22.830     7.828
     3   8 O        0.857    -0.324    20.213     6.028
     4   6 C        3.762    -0.064    21.781     6.653
     5   7 N        3.620     0.137    18.910     6.459
     6   6 C        3.763    -0.037    21.280     6.576
     7   6 C        2.969    -0.015    28.375     8.737
     8   6 C        2.926    -0.044    29.102     8.847
     9   6 C        2.918    -0.029    28.719     8.788
    10   6 C        2.919    -0.018    28.457     8.748
    11   6 C        2.930    -0.029    28.719     8.789
    12   6 C        2.965     0.022    27.523     8.605
    13   6 C        3.759    -0.122    22.895     6.821
    14   6 C        3.730    -0.095    22.416     6.758
    15   6 C        3.716    -0.100    22.534     6.782
    16   1 H        0.925     0.103     1.757     2.073
    17   1 H        0.925     0.101     1.778     2.085
    18   1 H        0.925     0.083     1.947     2.182
    19   1 H        0.924     0.098     1.801     2.098
    20   1 H        0.924     0.102     1.767     2.079
    21   1 H        0.924     0.085     1.933     2.174
    22   1 H        0.924     0.079     1.994     2.208
    23   1 H        0.925     0.026     2.649     2.545
    24   1 H        0.926     0.051     2.307     2.375
    25   1 H        0.926     0.061     2.187     2.312
    26   1 H        0.926     0.060     2.195     2.317
    27   1 H        0.925     0.064     2.158     2.297
    28   1 H        0.925     0.070     2.085     2.258
    29   1 H        0.925     0.040     2.454     2.450
    30   1 H        0.925     0.096     1.819     2.109
    31   1 H        0.925     0.100     1.788     2.091
    32   1 H        0.925     0.093     1.847     2.125
    33   1 H        0.925     0.090     1.882     2.145
    34   1 H        0.925     0.134     1.503     1.917
    35   1 H        0.925     0.092     1.860     2.133

Wiberg/Mayer (AO) data.
largest (>0.10) Wiberg bond orders for each atom

     #   Z sym  total        # sym  WBO       # sym  WBO       # sym  WBO
 ---------------------------------------------------------------------------
     1   6 C    3.984 --     2 C    1.020    16 H    0.971    18 H    0.963
                            17 H    0.938
     2   6 C    3.926 --     3 O    1.884     1 C    1.020     4 C    0.952
     3   8 O    2.122 --     2 C    1.884
     4   6 C    3.941 --    19 H    0.958     2 C    0.952     5 N    0.947
                            20 H    0.944
     5   7 N    3.812 --    14 C    0.959    15 C    0.953     4 C    0.947
                             6 C    0.903
     6   6 C    3.924 --     7 C    1.008    22 H    0.965    21 H    0.958
                             5 N    0.903
     7   6 C    3.974 --    12 C    1.393     8 C    1.388     6 C    1.008
                            10 C    0.103
     8   6 C    3.991 --     9 C    1.459     7 C    1.388    23 H    0.967
                            11 C    0.109
     9   6 C    3.991 --     8 C    1.459    10 C    1.418    24 H    0.969
                            12 C    0.103
    10   6 C    3.989 --    11 C    1.461     9 C    1.418    25 H    0.968
                             7 C    0.103
    11   6 C    3.989 --    10 C    1.461    12 C    1.397    26 H    0.967
                             8 C    0.109
    12   6 C    3.988 --    11 C    1.397     7 C    1.393    13 C    1.029
                             9 C    0.103
    13   6 C    3.993 --    12 C    1.029    29 H    0.977    28 H    0.972
                            27 H    0.962
    14   6 C    3.931 --    32 H    0.976    30 H    0.974    31 H    0.974
                             5 N    0.959
    15   6 C    3.914 --    33 H    0.976    35 H    0.975    34 H    0.955
                             5 N    0.953
    16   1 H    0.989 --     1 C    0.971
    17   1 H    0.990 --     1 C    0.938
    18   1 H    0.993 --     1 C    0.963
    19   1 H    0.990 --     4 C    0.958
    20   1 H    0.989 --     4 C    0.944
    21   1 H    0.992 --     6 C    0.958
    22   1 H    0.994 --     6 C    0.965
    23   1 H    0.999 --     8 C    0.967
    24   1 H    0.997 --     9 C    0.969
    25   1 H    0.995 --    10 C    0.968
    26   1 H    0.996 --    11 C    0.967
    27   1 H    0.996 --    13 C    0.962
    28   1 H    0.995 --    13 C    0.972
    29   1 H    0.998 --    13 C    0.977
    30   1 H    0.990 --    14 C    0.974
    31   1 H    0.989 --    14 C    0.974
    32   1 H    0.991 --    14 C    0.976
    33   1 H    0.992 --    15 C    0.976
    34   1 H    0.982 --    15 C    0.955
    35   1 H    0.991 --    15 C    0.975
 ---------------------------------------------------------------------------

molecular dipole:
                 x           y           z       tot (Debye)
 q only:        0.924       1.796       5.086
   full:        1.227       1.936       5.164      14.360

           -------------------------------------------------
          | TOTAL ENERGY              -44.606722061793 Eh   |
          | GRADIENT NORM               0.000176538099 Eh/α |
          | HOMO-LUMO GAP               3.121465951833 eV   |
           -------------------------------------------------

 * finished run on 2024/12/20 at 06:58:53.571
