   * xtb version 6.7.1 (edcfbbe) compiled by 'conda@3ef47c1a292c' on 2024-11-25

   ID    Z sym.   atoms
    1    6 C      1-3, 6, 8-12
    2    8 O      4, 5
    3    7 N      7
    4    1 H      13-22

          program call               : xtb C0811.xyz --opt --namespace C0811 --charge +1
          :  Hamiltonian                  GFN2-xTB          :
 * total energy  :   -34.9854349 Eh     change       -0.3640892E-09 Eh
 * total energy  :   -34.9890079 Eh     change       -0.3573015E-02 Eh
 * total energy  :   -34.9898244 Eh     change       -0.8165113E-03 Eh
 * total energy  :   -34.9900403 Eh     change       -0.2159120E-03 Eh
 * total energy  :   -34.9901764 Eh     change       -0.1361491E-03 Eh
 * total energy  :   -34.9902372 Eh     change       -0.6080779E-04 Eh
 * total energy  :   -34.9902914 Eh     change       -0.5412932E-04 Eh
 * total energy  :   -34.9903599 Eh     change       -0.6851867E-04 Eh
 * total energy  :   -34.9904600 Eh     change       -0.1001440E-03 Eh
 * total energy  :   -34.9906361 Eh     change       -0.1760496E-03 Eh
 * total energy  :   -34.9962894 Eh     change       -0.2189740E-04 Eh
 * total energy  :   -34.9963157 Eh     change       -0.2632759E-04 Eh
 * total energy  :   -34.9963381 Eh     change       -0.2240428E-04 Eh
 * total energy  :   -34.9963586 Eh     change       -0.2052448E-04 Eh
 * total energy  :   -34.9963816 Eh     change       -0.2290571E-04 Eh
 * total energy  :   -34.9963964 Eh     change       -0.1487168E-04 Eh
 * total energy  :   -34.9964055 Eh     change       -0.9072949E-05 Eh
 * total energy  :   -34.9964108 Eh     change       -0.5309347E-05 Eh
 * total energy  :   -34.9964144 Eh     change       -0.3589605E-05 Eh
   *** GEOMETRY OPTIMIZATION CONVERGED AFTER 41 ITERATIONS ***

 final structure:
================
22
 xtb: 6.7.1 (edcfbbe)
C            0.47870595921816       -0.30569885918872        0.64918142361983
C            0.52668962598100       -0.73260445659935       -0.60694818755895
C           -0.68017151522504       -0.74568149188411       -1.48984851056108
O           -0.62244162232497       -1.02999249050791       -2.66404397593242
O           -1.79139847073189       -0.40749283663733       -0.86415576217327
C            1.78719916416846       -1.27733466036598       -1.24981116632826
N            2.05930100443699       -0.62714626011255       -2.52433684180916
C            2.40569650560003        0.66550150424331       -2.52415357649196
C            2.60825853321291        1.34975932238317       -3.70311183432552
C            2.44067797696501        0.68197487018384       -4.91075334380410
C            2.08580723477365       -0.65928419478797       -4.88729965046767
C            1.89814400561240       -1.28857882944447       -3.67290305545062
H           -0.44647122112272        0.03716339386887        1.07922149184942
H            1.34681795702808       -0.29944809905709        1.28826810218203
H           -2.55963248585543       -0.43858019393153       -1.45823315514049
H            2.63458811519709       -1.12616575497551       -0.57676108230560
H            1.66230865285125       -2.34922697671448       -1.42463276841591
H            2.51358376892964        1.14601115590051       -1.56214214738774
H            2.88770242750188        2.39094585019385       -3.67544117074507
H            2.58359942859838        1.19784991131835       -5.84733852678045
H            1.94541919357607       -1.21497431840489       -5.80039946990806
H            1.60261576160566       -2.32512658548126       -3.61857679206558

          :  Hamiltonian                  GFN2-xTB          :
         :: total energy             -34.996414399745 Eh    ::
         :: gradient norm              0.000883893601 Eh/a0 ::
         :: HOMO-LUMO gap              2.741395924896 eV    ::
         :: SCC energy               -35.508733229886 Eh    ::
         :: -> dispersion             -0.018576255735 Eh    ::
         :: repulsion energy           0.512318830141 Eh    ::

    * Orbital Energies and Occupations

         #    Occupation            Energy/Eh            Energy/eV
      -------------------------------------------------------------
         1        2.0000           -0.8773730             -23.8745
       ...           ...                  ...                  ...
        19        2.0000           -0.6782007             -18.4548
        20        2.0000           -0.6736434             -18.3308
        21        2.0000           -0.6569033             -17.8752
        22        2.0000           -0.6542669             -17.8035
        23        2.0000           -0.6272320             -17.0679
        24        2.0000           -0.6243096             -16.9883
        25        2.0000           -0.6204522             -16.8834
        26        2.0000           -0.6193791             -16.8542
        27        2.0000           -0.6112930             -16.6341
        28        2.0000           -0.6080868             -16.5469
        29        2.0000           -0.6052132             -16.4687
        30        2.0000           -0.5797867             -15.7768
        31        2.0000           -0.5568422             -15.1524 (HOMO)
        32                         -0.4560977             -12.4111 (LUMO)
        33                         -0.4245353             -11.5522
        34                         -0.4171558             -11.3514
        35                         -0.3165126              -8.6127
        36                         -0.3037286              -8.2649
        37                         -0.1675922              -4.5604
        38                         -0.1001158              -2.7243
        39                         -0.0712735              -1.9395
        40                         -0.0523143              -1.4235
        41                         -0.0341581              -0.9295
        42                         -0.0258286              -0.7028
       ...                                ...                  ...
        58                          0.5471280              14.8881
      -------------------------------------------------------------
                  HL-Gap            0.1007444 Eh            2.7414 eV

     #   Z          covCN         q      C6AA      α(0)
     1   6 C        2.842    -0.064    29.583     8.914
     2   6 C        2.938    -0.018    28.469     8.751
     3   6 C        2.696     0.359    20.914     7.485
     4   8 O        0.857    -0.429    22.272     6.327
     5   8 O        1.660    -0.343    19.783     6.004
     6   6 C        3.765    -0.036    21.250     6.570
     7   7 N        2.750     0.124    19.128     6.496
     8   6 C        2.894     0.031    27.299     8.566
     9   6 C        2.916    -0.010    28.262     8.718
    10   6 C        2.925     0.016    27.650     8.623
    11   6 C        2.916    -0.006    28.162     8.702
    12   6 C        2.890     0.048    26.913     8.505
    13   1 H        0.926     0.113     1.667     2.019
    14   1 H        0.926     0.089     1.887     2.148
    15   1 H        0.804     0.355     0.578     1.194
    16   1 H        0.924     0.104     1.748     2.068
    17   1 H        0.924     0.108     1.717     2.049
    18   1 H        0.926     0.106     1.730     2.057
    19   1 H        0.926     0.108     1.710     2.045
    20   1 H        0.926     0.109     1.702     2.040
    21   1 H        0.926     0.113     1.669     2.020
    22   1 H        0.926     0.121     1.602     1.980

Wiberg/Mayer (AO) data.
largest (>0.10) Wiberg bond orders for each atom

     #   Z sym  total        # sym  WBO       # sym  WBO       # sym  WBO
 ---------------------------------------------------------------------------
     1   6 C    3.965 --     2 C    1.893    14 H    0.968    13 H    0.961
     2   6 C    3.982 --     1 C    1.893     3 C    0.989     6 C    0.985
     3   6 C    3.925 --     4 O    1.708     5 O    1.180     2 C    0.989
     4   8 O    2.019 --     3 C    1.708     5 O    0.182
     5   8 O    2.248 --     3 C    1.180    15 H    0.849     4 O    0.182
     6   6 C    3.942 --     2 C    0.985     7 N    0.963    16 H    0.954
                            17 H    0.952
     7   7 N    3.771 --    12 C    1.334     8 C    1.322     6 C    0.963
     8   6 C    3.958 --     9 C    1.471     7 N    1.322    18 H    0.956
     9   6 C    3.981 --     8 C    1.471    10 C    1.414    19 H    0.959
    10   6 C    3.968 --    11 C    1.430     9 C    1.414    20 H    0.961
    11   6 C    3.979 --    12 C    1.450    10 C    1.430    21 H    0.958
    12   6 C    3.951 --    11 C    1.450     7 N    1.334    22 H    0.951
    13   1 H    0.986 --     1 C    0.961
    14   1 H    0.992 --     1 C    0.968
    15   1 H    0.874 --     5 O    0.849
    16   1 H    0.989 --     6 C    0.954
    17   1 H    0.988 --     6 C    0.952
    18   1 H    0.989 --     8 C    0.956
    19   1 H    0.988 --     9 C    0.959
    20   1 H    0.988 --    10 C    0.961
    21   1 H    0.987 --    11 C    0.958
    22   1 H    0.985 --    12 C    0.951
 ---------------------------------------------------------------------------

molecular dipole:
                 x           y           z       tot (Debye)
 q only:        3.499      -0.341      -4.646
   full:        3.373      -0.380      -4.624      14.580

           -------------------------------------------------
          | TOTAL ENERGY              -34.996414399745 Eh   |
          | GRADIENT NORM               0.000883893601 Eh/α |
          | HOMO-LUMO GAP               2.741395924896 eV   |
           -------------------------------------------------

 * finished run on 2024/12/20 at 06:58:54.491
