   * xtb version 6.7.1 (edcfbbe) compiled by 'conda@3ef47c1a292c' on 2024-11-25

   ID    Z sym.   atoms
    1    6 C      1-8, 10, 11, 13-15
    2    7 N      9, 12
    3    1 H      16-40

          program call               : xtb C0813.xyz --opt --namespace C0813 --charge +1
          :  Hamiltonian                  GFN2-xTB          :
 * total energy  :   -46.0796402 Eh     change       -0.2347633E-10 Eh
 * total energy  :   -46.0831826 Eh     change       -0.3542406E-02 Eh
 * total energy  :   -46.0839690 Eh     change       -0.7864305E-03 Eh
 * total energy  :   -46.0841416 Eh     change       -0.1726211E-03 Eh
 * total energy  :   -46.0842953 Eh     change       -0.1536473E-03 Eh
 * total energy  :   -46.0843595 Eh     change       -0.6420866E-04 Eh
 * total energy  :   -46.0844678 Eh     change       -0.1083219E-03 Eh
 * total energy  :   -46.0845559 Eh     change       -0.8809881E-04 Eh
 * total energy  :   -46.0846155 Eh     change       -0.5957311E-04 Eh
 * total energy  :   -46.0846435 Eh     change       -0.2802635E-04 Eh
 * total energy  :   -46.0850217 Eh     change       -0.1103233E-04 Eh
 * total energy  :   -46.0850325 Eh     change       -0.1084146E-04 Eh
 * total energy  :   -46.0850395 Eh     change       -0.6977044E-05 Eh
 * total energy  :   -46.0850458 Eh     change       -0.6276108E-05 Eh
 * total energy  :   -46.0850519 Eh     change       -0.6095593E-05 Eh
 * total energy  :   -46.0850587 Eh     change       -0.6812460E-05 Eh
 * total energy  :   -46.0850649 Eh     change       -0.6256325E-05 Eh
 * total energy  :   -46.0850705 Eh     change       -0.5583683E-05 Eh
 * total energy  :   -46.0850739 Eh     change       -0.3353291E-05 Eh
   *** GEOMETRY OPTIMIZATION CONVERGED AFTER 35 ITERATIONS ***

 final structure:
================
40
 xtb: 6.7.1 (edcfbbe)
C            1.19058002569920       -0.03840297258363        0.52504871967134
C            0.84953934587722        1.37315287448758        0.98749226278194
C            1.24908019654872        2.45264037026997       -0.02023893003165
C            0.55309922234350        2.35465833189821       -1.37942434216447
C           -0.97420223801620        2.44429027171124       -1.33201236741821
C           -1.52809746688438        3.71967802262568       -0.69104223534973
C           -1.06860863723661        5.02219752391766       -1.34736784502334
C           -1.52387866570631        5.18276899971462       -2.80331400639330
N           -2.96108553932820        5.30074111623465       -2.89314766743204
C           -3.84204970690026        4.27955656421703       -3.07087093854491
C           -5.09562064354449        4.81229940802288       -3.03212838041178
N           -4.96015769677664        6.15124362778312       -2.83158026357582
C           -3.66071544318481        6.42185696323462       -2.74313582250746
C           -6.04499425284312        7.09619721444900       -2.67514846325494
C           -6.53341379296283        7.12515256525574       -1.22966414581796
H            0.60624669743000       -0.32353691950372       -0.34632511831116
H            0.98110609023017       -0.75248994784111        1.31755919066343
H            2.24568012834448       -0.11040020111092        0.27183799658301
H           -0.21843626523800        1.43798339724220        1.20507427568454
H            1.38096874645359        1.57374809639032        1.92011329996013
H            1.05895315338097        3.43367823979004        0.42141545204001
H            2.32514594453992        2.38181794591943       -0.19267571692352
H            0.94918410120937        3.14001846253753       -2.02808337614777
H            0.81688954659826        1.40309376211704       -1.84237497754574
H           -1.35228026974632        2.33963293139861       -2.35282975240524
H           -1.36104702183392        1.59546243061297       -0.76732084405794
H           -2.62122177492224        3.67026147609891       -0.69365960917168
H           -1.21599249877071        3.74825253908878        0.35272773525566
H           -1.44070045721074        5.86787249677427       -0.76447429288284
H            0.01918805074874        5.06922073122937       -1.33635200286001
H           -1.07658149204248        6.08194060557672       -3.23177231914381
H           -1.21152273862741        4.31923884607346       -3.39105873138418
H           -3.53129701188451        3.26564613536450       -3.21913593003869
H           -6.04949769332073        4.33743300480981       -3.13849892345481
H           -3.24117503710280        7.39722333264475       -2.58965750848215
H           -5.68931756257797        8.08396441144900       -2.97485835670289
H           -6.85712023755484        6.79691915663368       -3.34078827426528
H           -5.74083953902796        7.44578258828650       -0.55786270512198
H           -7.35898845579392        7.82468557279357       -1.14372986697023
H           -6.88218911037077        6.14360002438514       -0.91808521884258

          :  Hamiltonian                  GFN2-xTB          :
         :: total energy             -46.085073861443 Eh    ::
         :: gradient norm              0.000639114266 Eh/a0 ::
         :: HOMO-LUMO gap              2.450440260138 eV    ::
         :: SCC energy               -46.783064254880 Eh    ::
         :: -> dispersion             -0.031300685087 Eh    ::
         :: repulsion energy           0.697990393438 Eh    ::

    * Orbital Energies and Occupations

         #    Occupation            Energy/Eh            Energy/eV
      -------------------------------------------------------------
         1        2.0000           -0.8929016             -24.2971
       ...           ...                  ...                  ...
        31        2.0000           -0.5876165             -15.9899
        32        2.0000           -0.5856375             -15.9360
        33        2.0000           -0.5836245             -15.8812
        34        2.0000           -0.5719114             -15.5625
        35        2.0000           -0.5653944             -15.3852
        36        2.0000           -0.5546849             -15.0937
        37        2.0000           -0.5500223             -14.9669
        38        2.0000           -0.5349998             -14.5581
        39        2.0000           -0.5281115             -14.3706
        40        2.0000           -0.5234863             -14.2448
        41        2.0000           -0.5028005             -13.6819
        42        2.0000           -0.4988799             -13.5752
        43        2.0000           -0.4945237             -13.4567 (HOMO)
        44                         -0.4044717             -11.0062 (LUMO)
        45                         -0.3677172             -10.0061
        46                         -0.1823797              -4.9628
        47                         -0.1285927              -3.4992
        48                         -0.0608953              -1.6570
        49                         -0.0506393              -1.3780
        50                         -0.0473114              -1.2874
        51                         -0.0356376              -0.9697
        52                         -0.0303261              -0.8252
        53                         -0.0212765              -0.5790
        54                         -0.0106147              -0.2888
       ...                                ...                  ...
        85                          0.4660592              12.6821
      -------------------------------------------------------------
                  HL-Gap            0.0900520 Eh            2.4504 eV

     #   Z          covCN         q      C6AA      α(0)
     1   6 C        3.751    -0.105    22.570     6.775
     2   6 C        3.799    -0.054    21.551     6.610
     3   6 C        3.800    -0.061    21.674     6.628
     4   6 C        3.800    -0.062    21.692     6.631
     5   6 C        3.800    -0.061    21.681     6.630
     6   6 C        3.800    -0.065    21.747     6.640
     7   6 C        3.801    -0.069    21.823     6.651
     8   6 C        3.742    -0.028    21.146     6.560
     9   7 N        2.868     0.071    19.997     6.642
    10   6 C        3.076    -0.005    28.056     8.684
    11   6 C        3.074    -0.007    28.126     8.695
    12   7 N        2.869     0.066    20.097     6.658
    13   6 C        3.104     0.046    26.840     8.489
    14   6 C        3.741    -0.022    21.045     6.545
    15   6 C        3.753    -0.124    22.937     6.829
    16   1 H        0.925     0.033     2.544     2.494
    17   1 H        0.925     0.039     2.462     2.454
    18   1 H        0.925     0.040     2.454     2.450
    19   1 H        0.924     0.028     2.620     2.531
    20   1 H        0.924     0.035     2.511     2.478
    21   1 H        0.924     0.026     2.643     2.542
    22   1 H        0.924     0.040     2.450     2.448
    23   1 H        0.924     0.025     2.663     2.552
    24   1 H        0.924     0.046     2.366     2.405
    25   1 H        0.924     0.018     2.766     2.601
    26   1 H        0.924     0.050     2.319     2.381
    27   1 H        0.924     0.023     2.681     2.561
    28   1 H        0.925     0.062     2.181     2.309
    29   1 H        0.924     0.046     2.374     2.410
    30   1 H        0.925     0.079     1.989     2.205
    31   1 H        0.924     0.079     1.984     2.203
    32   1 H        0.924     0.096     1.826     2.113
    33   1 H        0.926     0.109     1.706     2.043
    34   1 H        0.926     0.106     1.728     2.056
    35   1 H        0.926     0.110     1.698     2.038
    36   1 H        0.924     0.085     1.931     2.173
    37   1 H        0.924     0.092     1.862     2.134
    38   1 H        0.925     0.063     2.164     2.301
    39   1 H        0.925     0.085     1.928     2.172
    40   1 H        0.925     0.067     2.120     2.277

Wiberg/Mayer (AO) data.
largest (>0.10) Wiberg bond orders for each atom

     #   Z sym  total        # sym  WBO       # sym  WBO       # sym  WBO
 ---------------------------------------------------------------------------
     1   6 C    3.996 --     2 C    1.020    18 H    0.987    17 H    0.987
                            16 H    0.986
     2   6 C    3.998 --     1 C    1.020     3 C    1.008    20 H    0.978
                            19 H    0.976
     3   6 C    3.997 --     2 C    1.008     4 C    1.008    22 H    0.976
                            21 H    0.976
     4   6 C    3.996 --     3 C    1.008     5 C    1.007    23 H    0.975
                            24 H    0.973
     5   6 C    3.995 --     4 C    1.007     6 C    1.007    25 H    0.974
                            26 H    0.973
     6   6 C    3.993 --     7 C    1.008     5 C    1.007    27 H    0.975
                            28 H    0.969
     7   6 C    3.983 --     6 C    1.008     8 C    0.980    29 H    0.975
                            30 H    0.963
     8   6 C    3.934 --     7 C    0.980     9 N    0.967    31 H    0.965
                            32 H    0.960
     9   7 N    3.720 --    13 C    1.363    10 C    1.232     8 C    0.967
    10   6 C    3.950 --    11 C    1.585     9 N    1.232    33 H    0.959
    11   6 C    3.949 --    10 C    1.585    12 N    1.231    34 H    0.961
    12   7 N    3.716 --    13 C    1.361    11 C    1.231    14 C    0.966
    13   6 C    3.948 --     9 N    1.363    12 N    1.361    35 H    0.955
    14   6 C    3.939 --    15 C    1.001    36 H    0.967    12 N    0.966
                            37 H    0.964
    15   6 C    3.981 --    14 C    1.001    38 H    0.985    40 H    0.984
                            39 H    0.976
    16   1 H    0.999 --     1 C    0.986
    17   1 H    0.998 --     1 C    0.987
    18   1 H    0.998 --     1 C    0.987
    19   1 H    0.999 --     2 C    0.976
    20   1 H    0.999 --     2 C    0.978
    21   1 H    0.999 --     3 C    0.976
    22   1 H    0.998 --     3 C    0.976
    23   1 H    0.999 --     4 C    0.975
    24   1 H    0.998 --     4 C    0.973
    25   1 H    1.000 --     5 C    0.974
    26   1 H    0.997 --     5 C    0.973
    27   1 H    0.999 --     6 C    0.975
    28   1 H    0.996 --     6 C    0.969
    29   1 H    0.998 --     7 C    0.975
    30   1 H    0.993 --     7 C    0.963
    31   1 H    0.994 --     8 C    0.965
    32   1 H    0.990 --     8 C    0.960
    33   1 H    0.988 --    10 C    0.959
    34   1 H    0.989 --    11 C    0.961
    35   1 H    0.988 --    13 C    0.955
    36   1 H    0.993 --    14 C    0.967
    37   1 H    0.991 --    14 C    0.964
    38   1 H    0.996 --    15 C    0.985
    39   1 H    0.992 --    15 C    0.976
    40   1 H    0.996 --    15 C    0.984
 ---------------------------------------------------------------------------

molecular dipole:
                 x           y           z       tot (Debye)
 q only:       -7.138      10.576      -4.709
   full:       -7.151      10.695      -4.827      34.927

           -------------------------------------------------
          | TOTAL ENERGY              -46.085073861443 Eh   |
          | GRADIENT NORM               0.000639114266 Eh/α |
          | HOMO-LUMO GAP               2.450440260138 eV   |
           -------------------------------------------------

 * finished run on 2024/12/20 at 06:58:56.459
