   * xtb version 6.7.1 (edcfbbe) compiled by 'conda@3ef47c1a292c' on 2024-11-25

   ID    Z sym.   atoms
    1    7 N      1, 6, 8, 19
    2    6 C      2-5, 7, 9-18, 20
    3    1 H      21-39

          program call               : xtb C0815.xyz --opt --namespace C0815 --charge +1
          :  Hamiltonian                  GFN2-xTB          :
 * total energy  :   -55.1766922 Eh     change       -0.7334293E-09 Eh
 * total energy  :   -55.2130800 Eh     change       -0.3638779E-01 Eh
 * total energy  :   -55.2166367 Eh     change       -0.3556613E-02 Eh
 * total energy  :   -55.2177085 Eh     change       -0.1071861E-02 Eh
 * total energy  :   -55.2184025 Eh     change       -0.6939579E-03 Eh
 * total energy  :   -55.2190841 Eh     change       -0.6816103E-03 Eh
 * total energy  :   -55.2196336 Eh     change       -0.5494818E-03 Eh
 * total energy  :   -55.2201747 Eh     change       -0.5410956E-03 Eh
 * total energy  :   -55.2206058 Eh     change       -0.4311570E-03 Eh
 * total energy  :   -55.2211130 Eh     change       -0.5072199E-03 Eh
 * total energy  :   -55.2315453 Eh     change       -0.8026438E-05 Eh
 * total energy  :   -55.2315512 Eh     change       -0.5915025E-05 Eh
 * total energy  :   -55.2315571 Eh     change       -0.5902793E-05 Eh
 * total energy  :   -55.2315639 Eh     change       -0.6843818E-05 Eh
 * total energy  :   -55.2315694 Eh     change       -0.5503738E-05 Eh
 * total energy  :   -55.2315749 Eh     change       -0.5463063E-05 Eh
 * total energy  :   -55.2315829 Eh     change       -0.8017674E-05 Eh
 * total energy  :   -55.2315865 Eh     change       -0.3645725E-05 Eh
 * total energy  :   -55.2315913 Eh     change       -0.4701040E-05 Eh
   *** GEOMETRY OPTIMIZATION CONVERGED AFTER 78 ITERATIONS ***

 final structure:
================
39
 xtb: 6.7.1 (edcfbbe)
N            4.36069825732312        1.46095981674736       -0.19091161672349
C            4.56149462890833        0.44225406156761       -0.66999290200659
C            4.76552122711208       -0.80527146046394       -1.35507270538059
C            3.51910519708740       -1.21608822895591       -2.16047569868376
C            2.77070566371930       -0.03056646541413       -2.78435207585346
N            3.62207166668899        0.84042052329143       -3.57291989686741
C            4.46505149065647        0.39377747196290       -4.49397045108993
N            5.14391853005673        1.38712256418175       -5.05762990058204
C            4.73038442195310        2.56259667784479       -4.46167208731550
C            3.73798176428763        2.22317928310891       -3.51557679025239
C            3.09051410259260        3.22114002038791       -2.77062265253099
C            2.00386911073171        2.98224811517777       -1.77528400269843
C            3.52668071783305        4.51635840920477       -3.00618096544028
C            4.52354240143310        4.84157341687116       -3.92314793672217
C            5.14212861091634        3.87004469586628       -4.67899134566042
C            6.23093933941972        1.26809758511544       -6.01755321251755
C            7.56752202952112        1.19022552584775       -5.24141474696139
C            7.45471433313807        0.17469247471040       -4.22880840407424
N            7.23905012692274       -0.61732760641590       -3.43339302890234
C            6.04567176287395        0.05934546146807       -6.92644340116896
H            5.64047263032378       -0.69321551260227       -2.00441212223752
H            5.00284448313316       -1.57735151088641       -0.62020228441661
H            3.81544459436076       -1.93935545811304       -2.92082466612180
H            2.80691768092586       -1.71297800498362       -1.49961492026986
H            1.96458572776233       -0.40867850049102       -3.42215874754023
H            2.33227005973429        0.56844407180355       -1.98975611821680
H            4.57465515160548       -0.64075362069814       -4.75339508923531
H            1.19550613080547        2.38622349147356       -2.19446814220167
H            2.40774446729475        2.48493007508577       -0.89266773730475
H            1.58840293521531        3.93278086707377       -1.45324628206777
H            3.06564447194218        5.31689701448169       -2.44939985305127
H            4.80780114858681        5.87406292983209       -4.04654082269138
H            5.90107094176893        4.11988764322702       -5.40156144891299
H            6.22171440658246        2.18140929326339       -6.62068427818318
H            8.38271226975493        0.94552722949821       -5.92478596947812
H            7.79399425466869        2.14209221170426       -4.75301081538211
H            5.04393275898808        0.04614823896921       -7.34959186268379
H            6.75419016365457        0.11497018902416       -7.74861923935681
H            6.22404033972292       -0.87243298978035       -6.39441577920809

          :  Hamiltonian                  GFN2-xTB          :
         :: total energy             -55.231591250658 Eh    ::
         :: gradient norm              0.000630032303 Eh/a0 ::
         :: HOMO-LUMO gap              3.130772960353 eV    ::
         :: SCC energy               -56.194723143556 Eh    ::
         :: -> dispersion             -0.042905693009 Eh    ::
         :: repulsion energy           0.963131892899 Eh    ::

    * Orbital Energies and Occupations

         #    Occupation            Energy/Eh            Energy/eV
      -------------------------------------------------------------
         1        2.0000           -0.8781655             -23.8961
       ...           ...                  ...                  ...
        39        2.0000           -0.5987651             -16.2932
        40        2.0000           -0.5958245             -16.2132
        41        2.0000           -0.5931030             -16.1392
        42        2.0000           -0.5860845             -15.9482
        43        2.0000           -0.5817921             -15.8314
        44        2.0000           -0.5734155             -15.6034
        45        2.0000           -0.5718800             -15.5616
        46        2.0000           -0.5677047             -15.4480
        47        2.0000           -0.5630348             -15.3210
        48        2.0000           -0.5543857             -15.0856
        49        2.0000           -0.5493967             -14.9498
        50        2.0000           -0.5322231             -14.4825
        51        2.0000           -0.5274224             -14.3519 (HOMO)
        52                         -0.4123686             -11.2211 (LUMO)
        53                         -0.3601202              -9.7994
        54                         -0.3531018              -9.6084
        55                         -0.3458832              -9.4120
        56                         -0.3401288              -9.2554
        57                         -0.3160429              -8.6000
        58                         -0.3075982              -8.3702
        59                         -0.2349331              -6.3929
        60                         -0.1903477              -5.1796
        61                         -0.1500644              -4.0835
        62                         -0.0853356              -2.3221
       ...                                ...                  ...
        99                          1.0376040              28.2346
      -------------------------------------------------------------
                  HL-Gap            0.1150538 Eh            3.1308 eV

     #   Z          covCN         q      C6AA      α(0)
     1   7 N        0.911    -0.241    26.300     7.417
     2   6 C        1.897     0.115    28.271     8.587
     3   6 C        3.803    -0.071    21.854     6.655
     4   6 C        3.805    -0.064    21.723     6.635
     5   6 C        3.742    -0.026    21.111     6.555
     6   7 N        2.827     0.034    20.641     6.748
     7   6 C        3.064     0.069    26.385     8.423
     8   7 N        2.824     0.011    21.056     6.815
     9   6 C        3.127     0.037    26.979     8.505
    10   6 C        3.097     0.030    27.213     8.549
    11   6 C        2.955     0.031    27.308     8.571
    12   6 C        3.757    -0.130    23.047     6.845
    13   6 C        2.933    -0.031    28.762     8.795
    14   6 C        2.925    -0.018    28.458     8.748
    15   6 C        2.909    -0.044    29.089     8.844
    16   6 C        3.798     0.041    19.889     6.350
    17   6 C        3.806    -0.069    21.817     6.649
    18   6 C        1.901     0.123    28.078     8.558
    19   7 N        0.911    -0.232    26.072     7.385
    20   6 C        3.754    -0.128    23.007     6.839
    21   1 H        0.924     0.095     1.828     2.114
    22   1 H        0.924     0.097     1.815     2.107
    23   1 H        0.924     0.059     2.216     2.328
    24   1 H        0.924     0.077     2.014     2.219
    25   1 H        0.924     0.079     1.989     2.206
    26   1 H        0.925     0.101     1.773     2.082
    27   1 H        0.926     0.106     1.727     2.055
    28   1 H        0.925     0.062     2.173     2.305
    29   1 H        0.924     0.093     1.852     2.128
    30   1 H        0.925     0.078     2.003     2.213
    31   1 H        0.926     0.081     1.971     2.196
    32   1 H        0.926     0.078     1.995     2.209
    33   1 H        0.926     0.060     2.194     2.316
    34   1 H        0.924     0.082     1.962     2.190
    35   1 H        0.924     0.108     1.714     2.047
    36   1 H        0.924     0.092     1.855     2.130
    37   1 H        0.925     0.066     2.128     2.281
    38   1 H        0.925     0.081     1.967     2.193
    39   1 H        0.925     0.064     2.157     2.297

Wiberg/Mayer (AO) data.
largest (>0.10) Wiberg bond orders for each atom

     #   Z sym  total        # sym  WBO       # sym  WBO       # sym  WBO
 ---------------------------------------------------------------------------
     1   7 N    3.010 --     2 C    2.838
     2   6 C    3.946 --     1 N    2.838     3 C    1.060
     3   6 C    3.991 --     2 C    1.060     4 C    0.979    22 H    0.939
                            21 H    0.924
     4   6 C    3.987 --     5 C    0.997     3 C    0.979    23 H    0.974
                            24 H    0.970
     5   6 C    3.941 --     4 C    0.997     6 N    0.967    25 H    0.957
                            26 H    0.956
     6   7 N    3.684 --     7 C    1.384    10 C    1.120     5 C    0.967
                             8 N    0.105
     7   6 C    3.955 --     6 N    1.384     8 N    1.355    27 H    0.950
     8   7 N    3.665 --     7 C    1.355     9 C    1.119    16 C    0.958
                             6 N    0.105
     9   6 C    3.950 --    15 C    1.341    10 C    1.276     8 N    1.119
    10   6 C    3.946 --    11 C    1.304     9 C    1.276     6 N    1.120
    11   6 C    3.983 --    13 C    1.453    10 C    1.304    12 C    1.036
                            15 C    0.113
    12   6 C    3.986 --    11 C    1.036    30 H    0.977    28 H    0.965
                            29 H    0.943
    13   6 C    3.985 --    11 C    1.453    14 C    1.390    31 H    0.963
    14   6 C    3.986 --    15 C    1.482    13 C    1.390    32 H    0.966
    15   6 C    3.985 --    14 C    1.482     9 C    1.341    33 H    0.963
                            11 C    0.113
    16   6 C    3.951 --    20 C    1.008     8 N    0.958    34 H    0.955
                            17 C    0.949
    17   6 C    3.989 --    18 C    1.060    16 C    0.949    36 H    0.940
                            35 H    0.936
    18   6 C    3.946 --    19 N    2.838    17 C    1.060
    19   7 N    3.019 --    18 C    2.838
    20   6 C    3.983 --    16 C    1.008    39 H    0.981    37 H    0.981
                            38 H    0.978
    21   1 H    0.991 --     3 C    0.924
    22   1 H    0.990 --     3 C    0.939
    23   1 H    0.996 --     4 C    0.974
    24   1 H    0.993 --     4 C    0.970
    25   1 H    0.993 --     5 C    0.957
    26   1 H    0.989 --     5 C    0.956
    27   1 H    0.988 --     7 C    0.950
    28   1 H    0.996 --    12 C    0.965
    29   1 H    0.991 --    12 C    0.943
    30   1 H    0.993 --    12 C    0.977
    31   1 H    0.993 --    13 C    0.963
    32   1 H    0.993 --    14 C    0.966
    33   1 H    0.995 --    15 C    0.963
    34   1 H    0.993 --    16 C    0.955
    35   1 H    0.987 --    17 C    0.936
    36   1 H    0.991 --    17 C    0.940
    37   1 H    0.996 --    20 C    0.981
    38   1 H    0.993 --    20 C    0.978
    39   1 H    0.996 --    20 C    0.981
 ---------------------------------------------------------------------------

molecular dipole:
                 x           y           z       tot (Debye)
 q only:        8.313       2.390      -8.570
   full:        8.588       2.146      -9.151      32.361

           -------------------------------------------------
          | TOTAL ENERGY              -55.231591250658 Eh   |
          | GRADIENT NORM               0.000630032303 Eh/α |
          | HOMO-LUMO GAP               3.130772960353 eV   |
           -------------------------------------------------

 * finished run on 2024/12/20 at 06:59:05.000
