   * xtb version 6.7.1 (edcfbbe) compiled by 'conda@3ef47c1a292c' on 2024-11-25

   ID    Z sym.   atoms
    1    8 O      1, 13
    2    6 C      2-9, 11, 12, 14-16
    3    7 N      10
    4    1 H      17-34

          program call               : xtb C0818.xyz --opt --namespace C0818 --charge +1
          :  Hamiltonian                  GFN2-xTB          :
 * total energy  :   -47.6201469 Eh     change       -0.2327241E-09 Eh
 * total energy  :   -47.6311802 Eh     change       -0.1103326E-01 Eh
 * total energy  :   -47.6348916 Eh     change       -0.3711443E-02 Eh
 * total energy  :   -47.6356026 Eh     change       -0.7109369E-03 Eh
 * total energy  :   -47.6360832 Eh     change       -0.4806449E-03 Eh
 * total energy  :   -47.6363218 Eh     change       -0.2385855E-03 Eh
 * total energy  :   -47.6366597 Eh     change       -0.3378564E-03 Eh
 * total energy  :   -47.6369822 Eh     change       -0.3225389E-03 Eh
 * total energy  :   -47.6372366 Eh     change       -0.2544244E-03 Eh
 * total energy  :   -47.6374027 Eh     change       -0.1660623E-03 Eh
 * total energy  :   -47.6375548 Eh     change       -0.1520690E-03 Eh
 * total energy  :   -47.6376782 Eh     change       -0.1234265E-03 Eh
 * total energy  :   -47.6378030 Eh     change       -0.1247705E-03 Eh
 * total energy  :   -47.6378473 Eh     change       -0.4433273E-04 Eh
 * total energy  :   -47.6378696 Eh     change       -0.2233541E-04 Eh
 * total energy  :   -47.6378802 Eh     change       -0.1056660E-04 Eh
 * total energy  :   -47.6378853 Eh     change       -0.5074384E-05 Eh
 * total energy  :   -47.6378892 Eh     change       -0.3983047E-05 Eh
   *** GEOMETRY OPTIMIZATION CONVERGED AFTER 18 ITERATIONS ***

 final structure:
================
34
 xtb: 6.7.1 (edcfbbe)
O            1.52366104173472        0.32784102367071        1.23884619485564
C            2.63617836821475        0.30141356222248        0.75194093053620
C            3.34665496602783        1.49834771421312        0.30661985055289
C            4.56420364405442        1.47556637623635       -0.38505785596992
C            5.16626124790952        2.66047845260385       -0.75777686184813
C            4.57597879127902        3.87882254244201       -0.44886921688819
C            3.36712282221955        3.91350928563323        0.22976919803686
C            2.75506446749492        2.73461221482061        0.60140522176523
C            3.38553284610498       -1.02978962321493        0.57976763633237
N            2.69606602798831       -2.22075012975386        1.15206591709383
C            1.34713089286996       -2.41592764358685        0.55049423109128
C            1.31297124880553       -2.56357919521547       -0.97358120891010
O            2.30909263192863       -2.52070379426020       -1.64691633910730
C           -0.06560758309089       -2.72433625107007       -1.51732955252324
C            3.53089544786865       -3.41303491648697        0.89687215494630
C            2.54175956293454       -2.05417442698344        2.61216597123960
H            5.04033090883018        0.54487258800934       -0.65137089864011
H            6.10207845459860        2.63757890227350       -1.29416370371011
H            5.05852498162510        4.79857583680088       -0.74125004120351
H            2.90493922120269        4.85878522035948        0.46685333294055
H            1.81497953318216        2.74160343919134        1.13199452115855
H            3.52807564344857       -1.20469687299499       -0.49077082322805
H            4.36444599420519       -0.94214436959163        1.05479484546013
H            0.89579584201152       -3.30488160249733        0.99612911760550
H            0.73082248163497       -1.54952515525044        0.81447042807817
H           -0.70277385118923       -3.31190647696013       -0.86320128714186
H           -0.51194348042737       -1.73514905492376       -1.62231965994591
H           -0.02149449985109       -3.17233606375629       -2.50671456409278
H            4.50322143353509       -3.29811505230179        1.37169665418744
H            3.04730843987217       -4.29903925412255        1.30400076923244
H            3.67431492305765       -3.54857852815720       -0.17363416420149
H            3.51626374994194       -1.90581000778674        3.07401959141931
H            1.91363975186429       -1.19108845801886        2.82574514644340
H            2.08222404811064       -2.94137028154250        3.04337446443060

          :  Hamiltonian                  GFN2-xTB          :
         :: total energy             -47.637889243686 Eh    ::
         :: gradient norm              0.000982843297 Eh/a0 ::
         :: HOMO-LUMO gap              3.018524649548 eV    ::
         :: SCC energy               -48.325050578767 Eh    ::
         :: -> dispersion             -0.029928937938 Eh    ::
         :: repulsion energy           0.687161335081 Eh    ::

    * Orbital Energies and Occupations

         #    Occupation            Energy/Eh            Energy/eV
      -------------------------------------------------------------
         1        2.0000           -0.8699926             -23.6737
       ...           ...                  ...                  ...
        31        2.0000           -0.6267201             -17.0539
        32        2.0000           -0.6109790             -16.6256
        33        2.0000           -0.6077775             -16.5385
        34        2.0000           -0.6022287             -16.3875
        35        2.0000           -0.6012619             -16.3612
        36        2.0000           -0.5982496             -16.2792
        37        2.0000           -0.5950778             -16.1929
        38        2.0000           -0.5574125             -15.1680
        39        2.0000           -0.5503715             -14.9764
        40        2.0000           -0.5396321             -14.6841
        41        2.0000           -0.5324739             -14.4894
        42        2.0000           -0.5314540             -14.4616
        43        2.0000           -0.5269017             -14.3377 (HOMO)
        44                         -0.4159729             -11.3192 (LUMO)
        45                         -0.3986638             -10.8482
        46                         -0.3432601              -9.3406
        47                         -0.3180518              -8.6546
        48                         -0.2313407              -6.2951
        49                         -0.2070468              -5.6340
        50                         -0.1726813              -4.6989
        51                         -0.1477461              -4.0204
        52                         -0.1420976              -3.8667
        53                         -0.0716096              -1.9486
        54                         -0.0487452              -1.3264
       ...                                ...                  ...
        82                          0.5440718              14.8049
      -------------------------------------------------------------
                  HL-Gap            0.1109287 Eh            3.0185 eV

     #   Z          covCN         q      C6AA      α(0)
     1   8 O        0.857    -0.379    21.266     6.183
     2   6 C        2.821     0.227    23.235     7.898
     3   6 C        2.971    -0.020    28.511     8.758
     4   6 C        2.918    -0.028    28.698     8.785
     5   6 C        2.917    -0.019    28.471     8.750
     6   6 C        2.920    -0.006    28.162     8.702
     7   6 C        2.915    -0.017    28.446     8.746
     8   6 C        2.927    -0.009    28.246     8.716
     9   6 C        3.762    -0.068    21.845     6.662
    10   7 N        3.621     0.150    18.697     6.422
    11   6 C        3.764    -0.074    21.965     6.680
    12   6 C        2.808     0.247    22.862     7.834
    13   8 O        0.857    -0.346    20.633     6.090
    14   6 C        3.755    -0.156    23.585     6.925
    15   6 C        3.723    -0.099    22.515     6.776
    16   6 C        3.722    -0.099    22.499     6.774
    17   1 H        0.926     0.043     2.414     2.430
    18   1 H        0.926     0.063     2.164     2.300
    19   1 H        0.926     0.069     2.097     2.265
    20   1 H        0.926     0.067     2.118     2.276
    21   1 H        0.926     0.075     2.036     2.231
    22   1 H        0.924     0.129     1.542     1.942
    23   1 H        0.924     0.097     1.812     2.105
    24   1 H        0.924     0.102     1.768     2.080
    25   1 H        0.924     0.141     1.452     1.884
    26   1 H        0.925     0.083     1.952     2.185
    27   1 H        0.924     0.108     1.711     2.046
    28   1 H        0.925     0.106     1.734     2.059
    29   1 H        0.925     0.095     1.834     2.118
    30   1 H        0.925     0.094     1.836     2.119
    31   1 H        0.925     0.118     1.633     1.999
    32   1 H        0.925     0.094     1.839     2.121
    33   1 H        0.925     0.119     1.620     1.991
    34   1 H        0.925     0.094     1.840     2.121

Wiberg/Mayer (AO) data.
largest (>0.10) Wiberg bond orders for each atom

     #   Z sym  total        # sym  WBO       # sym  WBO       # sym  WBO
 ---------------------------------------------------------------------------
     1   8 O    2.070 --     2 C    1.770
     2   6 C    3.934 --     1 O    1.770     3 C    1.084     9 C    0.965
     3   6 C    3.984 --     4 C    1.349     8 C    1.348     2 C    1.084
     4   6 C    3.991 --     5 C    1.476     3 C    1.349    17 H    0.966
                             7 C    0.102
     5   6 C    3.990 --     4 C    1.476     6 C    1.415    18 H    0.968
     6   6 C    3.984 --     7 C    1.427     5 C    1.415    19 H    0.968
     7   6 C    3.989 --     8 C    1.464     6 C    1.427    20 H    0.967
                             4 C    0.102
     8   6 C    3.984 --     7 C    1.464     3 C    1.348    21 H    0.964
     9   6 C    3.930 --     2 C    0.965    23 H    0.953    10 N    0.939
                            22 H    0.932
    10   7 N    3.819 --    15 C    0.954    16 C    0.954    11 C    0.941
                             9 C    0.939
    11   6 C    3.932 --    12 C    0.972    24 H    0.949    10 N    0.941
                            25 H    0.926
    12   6 C    3.925 --    13 O    1.852    14 C    1.029    11 C    0.972
    13   8 O    2.098 --    12 C    1.852
    14   6 C    3.984 --    12 C    1.029    26 H    0.968    28 H    0.967
                            27 H    0.930
    15   6 C    3.922 --    29 H    0.976    30 H    0.975    31 H    0.967
                            10 N    0.954
    16   6 C    3.922 --    34 H    0.976    32 H    0.975    33 H    0.966
                            10 N    0.954
    17   1 H    0.998 --     4 C    0.966
    18   1 H    0.996 --     5 C    0.968
    19   1 H    0.995 --     6 C    0.968
    20   1 H    0.995 --     7 C    0.967
    21   1 H    0.994 --     8 C    0.964
    22   1 H    0.983 --     9 C    0.932
    23   1 H    0.990 --     9 C    0.953
    24   1 H    0.990 --    11 C    0.949
    25   1 H    0.980 --    11 C    0.926
    26   1 H    0.993 --    14 C    0.968
    27   1 H    0.988 --    14 C    0.930
    28   1 H    0.988 --    14 C    0.967
    29   1 H    0.991 --    15 C    0.976
    30   1 H    0.991 --    15 C    0.975
    31   1 H    0.986 --    15 C    0.967
    32   1 H    0.991 --    16 C    0.975
    33   1 H    0.986 --    16 C    0.966
    34   1 H    0.991 --    16 C    0.976
 ---------------------------------------------------------------------------

molecular dipole:
                 x           y           z       tot (Debye)
 q only:        5.228      -2.743       1.644
   full:        5.278      -2.848       1.733      15.867

           -------------------------------------------------
          | TOTAL ENERGY              -47.637889243686 Eh   |
          | GRADIENT NORM               0.000982843297 Eh/α |
          | HOMO-LUMO GAP               3.018524649548 eV   |
           -------------------------------------------------

 * finished run on 2024/12/20 at 06:59:09.117
