   * xtb version 6.7.1 (edcfbbe) compiled by 'conda@3ef47c1a292c' on 2024-11-25

   ID    Z sym.   atoms
    1    6 C      1-3, 5-17
    2    7 N      4
    3    1 H      18-45

          program call               : xtb C0816.xyz --opt --namespace C0816 --charge +1
          :  Hamiltonian                  GFN2-xTB          :
 * total energy  :   -51.0400157 Eh     change       -0.2748521E-09 Eh
 * total energy  :   -51.0486575 Eh     change       -0.8641838E-02 Eh
 * total energy  :   -51.0512890 Eh     change       -0.2631518E-02 Eh
 * total energy  :   -51.0516154 Eh     change       -0.3264296E-03 Eh
 * total energy  :   -51.0518855 Eh     change       -0.2700311E-03 Eh
 * total energy  :   -51.0521618 Eh     change       -0.2762925E-03 Eh
 * total energy  :   -51.0525189 Eh     change       -0.3571204E-03 Eh
 * total energy  :   -51.0528482 Eh     change       -0.3292866E-03 Eh
 * total energy  :   -51.0530821 Eh     change       -0.2339623E-03 Eh
 * total energy  :   -51.0532497 Eh     change       -0.1675179E-03 Eh
 * total energy  :   -51.0589073 Eh     change       -0.2976640E-04 Eh
 * total energy  :   -51.0589219 Eh     change       -0.1461594E-04 Eh
 * total energy  :   -51.0589363 Eh     change       -0.1439691E-04 Eh
 * total energy  :   -51.0589432 Eh     change       -0.6890313E-05 Eh
 * total energy  :   -51.0589769 Eh     change       -0.3367833E-04 Eh
 * total energy  :   -51.0589865 Eh     change       -0.9607980E-05 Eh
 * total energy  :   -51.0589953 Eh     change       -0.8762621E-05 Eh
 * total energy  :   -51.0590073 Eh     change       -0.1205223E-04 Eh
 * total energy  :   -51.0590096 Eh     change       -0.2229416E-05 Eh
   *** GEOMETRY OPTIMIZATION CONVERGED AFTER 48 ITERATIONS ***

 final structure:
================
45
 xtb: 6.7.1 (edcfbbe)
C            1.20500762911461        0.00483860462723       -1.60415653513460
C            0.31565225198080       -1.19126355029589       -1.27547258436388
C            1.01287402683714       -2.28400186237094       -0.44557380232617
N            0.63948130549927       -2.40935911936366        0.99448326602181
C           -0.84289097861849       -2.69507896197700        1.13324622195312
C           -1.34719549450141       -3.93362994700055        0.43663071869093
C           -1.74453138687542       -3.90757877035624       -0.89648578854696
C           -2.22795945662734       -5.05093696846329       -1.50871040180068
C           -2.33326936719569       -6.23298876449397       -0.79550860943632
C           -1.97339928102930       -6.26223710418220        0.54120733055305
C           -1.48807769580350       -5.12053290980417        1.15390762233243
C            1.35212510905586       -3.58278168998748        1.59982014486827
C            2.79312937846928       -3.87761851855708        1.17926994342697
C            3.33204164739118       -5.00875601823216        2.05312259397111
C            0.88503907957039       -1.13997484847623        1.76128448887279
C            2.28642590805910       -0.83325611395023        2.30248819186680
C            3.29727946801466       -0.25814965791225        1.31662778437751
H            1.44407734850224        0.59520185368256       -0.72497237022345
H            0.69074386683006        0.65363157897654       -2.30805843859867
H            2.13297424226912       -0.31968684731760       -2.06755490175033
H           -0.59399857460161       -0.83134848434450       -0.79568711527107
H            0.01584664408044       -1.64268386655200       -2.22233270571005
H            0.80717037104341       -3.25992249010380       -0.88966905728860
H            2.08603474387693       -2.10868373943605       -0.48808153400521
H           -1.04302861527757       -2.79965124850799        2.20196094167191
H           -1.38680075047334       -1.82282366951708        0.77022809818448
H           -1.70229120769160       -2.98780185715276       -1.45799330239309
H           -2.53255560090688       -5.01336660949794       -2.54280776040084
H           -2.71189086128626       -7.12223269521269       -1.27371024721810
H           -2.07845670545748       -7.17108993185186        1.11248723370062
H           -1.24298425975593       -5.15050842191235        2.20660560598558
H            1.30903767618983       -3.45557437778145        2.68368975953791
H            0.77120012100699       -4.47072053184836        1.34323618796623
H            2.82648960599996       -4.20248113251331        0.13904985733399
H            3.44502261123731       -3.01454576625717        1.28970420711387
H            2.71600801399582       -5.89931103029183        1.95882911006729
H            4.34246353509676       -5.26169302298797        1.74718594332471
H            3.35841632663660       -4.71649755247468        3.09999485347009
H            0.55936009863635       -0.31237736392737        1.13158571145395
H            0.22387380585548       -1.17614710605567        2.62995084180993
H            2.12879669187779       -0.07616205446073        3.07466935469102
H            2.70560528459078       -1.70026919181926        2.80970000340528
H            2.93993940751819        0.68009762748273        0.90160988309448
H            4.22427770882530       -0.04935877618207        1.84436461513788
H            3.53096632805503       -0.93158709135773        0.49703463959347

          :  Hamiltonian                  GFN2-xTB          :
         :: total energy             -51.059009552451 Eh    ::
         :: gradient norm              0.000281929247 Eh/a0 ::
         :: HOMO-LUMO gap              4.631627982045 eV    ::
         :: SCC energy               -51.873839887255 Eh    ::
         :: -> dispersion             -0.041895507968 Eh    ::
         :: repulsion energy           0.814830334804 Eh    ::

    * Orbital Energies and Occupations

         #    Occupation            Energy/Eh            Energy/eV
      -------------------------------------------------------------
         1        2.0000           -0.8410272             -22.8855
       ...           ...                  ...                  ...
        36        2.0000           -0.5908823             -16.0787
        37        2.0000           -0.5852684             -15.9260
        38        2.0000           -0.5845391             -15.9061
        39        2.0000           -0.5771435             -15.7049
        40        2.0000           -0.5707849             -15.5318
        41        2.0000           -0.5677371             -15.4489
        42        2.0000           -0.5658530             -15.3976
        43        2.0000           -0.5607080             -15.2576
        44        2.0000           -0.5600636             -15.2401
        45        2.0000           -0.5446558             -14.8208
        46        2.0000           -0.5398244             -14.6894
        47        2.0000           -0.5257188             -14.3055
        48        2.0000           -0.5250415             -14.2871 (HOMO)
        49                         -0.3548323              -9.6555 (LUMO)
        50                         -0.3439031              -9.3581
        51                         -0.2384793              -6.4894
        52                         -0.2115742              -5.7572
        53                         -0.1648350              -4.4854
        54                         -0.1524531              -4.1485
        55                         -0.1460159              -3.9733
        56                         -0.0632835              -1.7220
        57                         -0.0598925              -1.6298
        58                         -0.0494305              -1.3451
        59                         -0.0412567              -1.1227
       ...                                ...                  ...
        96                          0.5416816              14.7399
      -------------------------------------------------------------
                  HL-Gap            0.1702092 Eh            4.6316 eV

     #   Z          covCN         q      C6AA      α(0)
     1   6 C        3.751    -0.118    22.829     6.814
     2   6 C        3.798    -0.064    21.729     6.637
     3   6 C        3.748    -0.035    21.270     6.578
     4   7 N        3.614     0.099    19.526     6.563
     5   6 C        3.768    -0.037    21.265     6.572
     6   6 C        2.966    -0.007    28.182     8.708
     7   6 C        2.923    -0.039    28.963     8.825
     8   6 C        2.919    -0.022    28.567     8.765
     9   6 C        2.920    -0.018    28.463     8.749
    10   6 C        2.918    -0.022    28.560     8.764
    11   6 C        2.924    -0.039    28.966     8.826
    12   6 C        3.759    -0.039    21.313     6.582
    13   6 C        3.799    -0.068    21.796     6.647
    14   6 C        3.755    -0.116    22.778     6.805
    15   6 C        3.751    -0.036    21.277     6.578
    16   6 C        3.798    -0.067    21.794     6.647
    17   6 C        3.751    -0.115    22.757     6.803
    18   1 H        0.925     0.047     2.360     2.402
    19   1 H        0.925     0.061     2.183     2.310
    20   1 H        0.925     0.051     2.307     2.375
    21   1 H        0.925     0.050     2.315     2.380
    22   1 H        0.924     0.064     2.150     2.293
    23   1 H        0.924     0.078     2.003     2.213
    24   1 H        0.925     0.092     1.864     2.135
    25   1 H        0.924     0.076     2.024     2.225
    26   1 H        0.925     0.080     1.979     2.200
    27   1 H        0.926     0.044     2.398     2.421
    28   1 H        0.926     0.057     2.233     2.337
    29   1 H        0.926     0.061     2.187     2.313
    30   1 H        0.926     0.058     2.225     2.333
    31   1 H        0.925     0.040     2.451     2.448
    32   1 H        0.924     0.078     2.001     2.212
    33   1 H        0.924     0.087     1.912     2.162
    34   1 H        0.924     0.051     2.309     2.376
    35   1 H        0.925     0.061     2.183     2.310
    36   1 H        0.925     0.050     2.321     2.382
    37   1 H        0.925     0.066     2.135     2.285
    38   1 H        0.925     0.049     2.329     2.386
    39   1 H        0.925     0.088     1.895     2.153
    40   1 H        0.924     0.071     2.074     2.252
    41   1 H        0.924     0.069     2.099     2.266
    42   1 H        0.925     0.061     2.191     2.315
    43   1 H        0.925     0.051     2.305     2.374
    44   1 H        0.925     0.061     2.183     2.311
    45   1 H        0.925     0.041     2.434     2.440

Wiberg/Mayer (AO) data.
largest (>0.10) Wiberg bond orders for each atom

     #   Z sym  total        # sym  WBO       # sym  WBO       # sym  WBO
 ---------------------------------------------------------------------------
     1   6 C    3.990 --     2 C    1.019    20 H    0.985    19 H    0.983
                            18 H    0.979
     2   6 C    3.989 --     1 C    1.019     3 C    1.001    22 H    0.971
                            21 H    0.964
     3   6 C    3.934 --     2 C    1.001    23 H    0.967    24 H    0.957
                             4 N    0.936
     4   7 N    3.796 --     3 C    0.936    15 C    0.930    12 C    0.929
                             5 C    0.914
     5   6 C    3.936 --     6 C    1.006    25 H    0.965    26 H    0.959
                             4 N    0.914
     6   6 C    3.979 --     7 C    1.409    11 C    1.401     5 C    1.006
                             9 C    0.109
     7   6 C    3.991 --     8 C    1.444     6 C    1.409    27 H    0.965
                            10 C    0.109
     8   6 C    3.990 --     7 C    1.444     9 C    1.438    28 H    0.969
                            11 C    0.109
     9   6 C    3.988 --     8 C    1.438    10 C    1.437    29 H    0.969
                             6 C    0.109
    10   6 C    3.990 --    11 C    1.445     9 C    1.437    30 H    0.969
                             7 C    0.109
    11   6 C    3.991 --    10 C    1.445     6 C    1.401    31 H    0.966
                             8 C    0.109
    12   6 C    3.930 --    13 C    1.005    32 H    0.966    33 H    0.955
                             4 N    0.929
    13   6 C    3.988 --    14 C    1.011    12 C    1.005    34 H    0.975
                            35 H    0.967
    14   6 C    3.989 --    13 C    1.011    36 H    0.986    38 H    0.986
                            37 H    0.983
    15   6 C    3.934 --    16 C    1.005    40 H    0.969    39 H    0.962
                             4 N    0.930
    16   6 C    3.985 --    17 C    1.020    15 C    1.005    42 H    0.967
                            41 H    0.966
    17   6 C    3.991 --    16 C    1.020    44 H    0.982    43 H    0.982
                            45 H    0.977
    18   1 H    0.998 --     1 C    0.979
    19   1 H    0.996 --     1 C    0.983
    20   1 H    0.997 --     1 C    0.985
    21   1 H    0.997 --     2 C    0.964
    22   1 H    0.996 --     2 C    0.971
    23   1 H    0.994 --     3 C    0.967
    24   1 H    0.991 --     3 C    0.957
    25   1 H    0.994 --     5 C    0.965
    26   1 H    0.993 --     5 C    0.959
    27   1 H    0.998 --     7 C    0.965
    28   1 H    0.996 --     8 C    0.969
    29   1 H    0.996 --     9 C    0.969
    30   1 H    0.996 --    10 C    0.969
    31   1 H    0.998 --    11 C    0.966
    32   1 H    0.994 --    12 C    0.966
    33   1 H    0.992 --    12 C    0.955
    34   1 H    0.997 --    13 C    0.975
    35   1 H    0.996 --    13 C    0.967
    36   1 H    0.997 --    14 C    0.986
    37   1 H    0.995 --    14 C    0.983
    38   1 H    0.998 --    14 C    0.986
    39   1 H    0.992 --    15 C    0.962
    40   1 H    0.995 --    15 C    0.969
    41   1 H    0.995 --    16 C    0.966
    42   1 H    0.996 --    16 C    0.967
    43   1 H    0.997 --    17 C    0.982
    44   1 H    0.996 --    17 C    0.982
    45   1 H    0.998 --    17 C    0.977
 ---------------------------------------------------------------------------

molecular dipole:
                 x           y           z       tot (Debye)
 q only:        1.350      -5.022       1.435
   full:        1.203      -4.987       1.523      13.601

           -------------------------------------------------
          | TOTAL ENERGY              -51.059009552451 Eh   |
          | GRADIENT NORM               0.000281929247 Eh/α |
          | HOMO-LUMO GAP               4.631627982045 eV   |
           -------------------------------------------------

 * finished run on 2024/12/20 at 06:59:07.014
