   * xtb version 6.7.1 (edcfbbe) compiled by 'conda@3ef47c1a292c' on 2024-11-25

   ID    Z sym.   atoms
    1    6 C      1-9, 11, 13, 14, 16, 17, 19-27
    2    8 O      10, 18
    3    7 N      12, 15
    4    1 H      28-72

          program call               : xtb C0814.xyz --opt --namespace C0814 --charge +1
          :  Hamiltonian                  GFN2-xTB          :
 * total energy  :   -85.8165579 Eh     change       -0.3324487E-09 Eh
 * total energy  :   -85.8236029 Eh     change       -0.7044914E-02 Eh
 * total energy  :   -85.8253448 Eh     change       -0.1741986E-02 Eh
 * total energy  :   -85.8256835 Eh     change       -0.3386672E-03 Eh
 * total energy  :   -85.8259176 Eh     change       -0.2340677E-03 Eh
 * total energy  :   -85.8260071 Eh     change       -0.8949868E-04 Eh
 * total energy  :   -85.8261317 Eh     change       -0.1245845E-03 Eh
 * total energy  :   -85.8263013 Eh     change       -0.1696432E-03 Eh
 * total energy  :   -85.8264924 Eh     change       -0.1911019E-03 Eh
 * total energy  :   -85.8266783 Eh     change       -0.1859063E-03 Eh
 * total energy  :   -85.8287209 Eh     change       -0.1178449E-04 Eh
 * total energy  :   -85.8287309 Eh     change       -0.1003220E-04 Eh
 * total energy  :   -85.8287397 Eh     change       -0.8737497E-05 Eh
 * total energy  :   -85.8287490 Eh     change       -0.9346389E-05 Eh
 * total energy  :   -85.8287587 Eh     change       -0.9702452E-05 Eh
 * total energy  :   -85.8287670 Eh     change       -0.8233776E-05 Eh
 * total energy  :   -85.8287735 Eh     change       -0.6508052E-05 Eh
 * total energy  :   -85.8287790 Eh     change       -0.5526762E-05 Eh
 * total energy  :   -85.8287838 Eh     change       -0.4765950E-05 Eh
   *** GEOMETRY OPTIMIZATION CONVERGED AFTER 57 ITERATIONS ***

 final structure:
================
72
 xtb: 6.7.1 (edcfbbe)
C            2.74982853791949       -0.44226565572586        0.76296314860190
C            2.01920483280857       -1.56110636003749        0.03037994609618
C            2.10169119659714       -2.90907914923150        0.74935523384233
C            1.47510029607463       -2.93801749019113        2.14556407943292
C           -0.00294259836238       -2.54810187197754        2.19897430770837
C           -0.92910050696088       -3.41185733960544        1.34090246050629
C           -0.94230654234836       -4.90145861026043        1.69560654945532
C           -1.34989079591484       -5.21872486177119        3.13955578434954
C           -2.76035038680459       -4.77771014375575        3.54099748524621
O           -3.75566507836478       -5.80918844484989        3.50217574433063
C           -3.97861477708140       -6.43510324307576        2.30662666765953
N           -4.64225495087290       -5.53647696838285        1.34372320349531
C           -5.58185355826521       -4.60720262186282        1.67949648881759
C           -5.93526808581107       -3.96032991367292        0.53507895962897
N           -5.21157609942881       -4.51161949743029       -0.47970050484704
C           -4.43318252414392       -5.46006589200743        0.03352694930834
C           -5.26478312487839       -4.14777771381433       -1.90893537588475
O           -4.05528001135035       -4.35606996660184       -2.51464463857348
C           -3.02706065164595       -3.38590565336161       -2.27035955494417
C           -3.24668591464214       -2.02643115026763       -2.94257139778436
C           -3.97695999023205       -0.94931502573331       -2.12750055070323
C           -3.43359810210274       -0.71036336472857       -0.71643475341999
C           -1.93600137747928       -0.40594089366224       -0.65160546298759
C           -1.50490962378838        0.87075285388998       -1.37462466240643
C           -2.10664450519518        2.16200883625695       -0.81609034952270
C           -1.80938131831194        2.42652385546427        0.66133741378710
C           -0.32008414800053        2.53439398454979        0.96708067048303
H            2.27574309586225       -0.21740216797393        1.71500215790192
H            2.74879190902227        0.46470380362371        0.16269296365953
H            3.78301945011958       -0.72354639363062        0.95123925735619
H            0.97480275577881       -1.27873636290969       -0.11700989004865
H            2.46440487129394       -1.68101154156938       -0.96021635512634
H            1.63250183496918       -3.67075119663354        0.12161315134653
H            3.15422517511879       -3.18227307734540        0.85062665160129
H            1.60477933927447       -3.94039402111380        2.55917487208676
H            2.02491570020040       -2.25524476426208        2.79450721833990
H           -0.33574622256744       -2.58114113586699        3.23846630327133
H           -0.10738804253827       -1.51402467699621        1.86729557294199
H           -1.94148468670388       -3.00182831724962        1.41830785516596
H           -0.62858641447177       -3.32093677044126        0.29553541438323
H           -1.60153762615918       -5.41239249168915        0.98608145257335
H            0.05906365422537       -5.30428662131561        1.54079523019232
H           -1.26004271790714       -6.29259054538920        3.31852522549181
H           -0.64056327223764       -4.73114754471693        3.80653348000782
H           -2.77751502004968       -4.47497422902085        4.58838684296010
H           -3.09147206874274       -3.92653662851660        2.93406540335404
H           -3.06923169375652       -6.81515619962515        1.82236133890113
H           -4.65752356263534       -7.27074207656753        2.51808060053868
H           -5.91022688953625       -4.47971044888407        2.69161294042506
H           -6.63581698843633       -3.16574252813277        0.37850151582833
H           -3.75414357547126       -6.06067717209850       -0.54082916487828
H           -5.98828428837958       -4.80985350062527       -2.40127479891835
H           -5.61918414957290       -3.11154169245936       -1.96241657769595
H           -2.86943416959900       -3.27561739854194       -1.19216581003049
H           -2.14451439381250       -3.86142838242839       -2.70140920356261
H           -2.26348818948371       -1.63820521303149       -3.20824516868899
H           -3.78567580584160       -2.19501259230794       -3.87693484818370
H           -3.90189568694487       -0.01871513983966       -2.69123555191954
H           -5.04501979138721       -1.17318200660659       -2.05216060280996
H           -3.98613515443460        0.12269883667271       -0.27966880885418
H           -3.63760959989190       -1.58368011783714       -0.08598359745363
H           -1.65451501426690       -0.32844640808443        0.39983526694333
H           -1.37916036250720       -1.24562086210804       -1.07371990633307
H           -0.41701373881962        0.93588659953340       -1.32116750489109
H           -1.76630653491013        0.79815394616781       -2.43213305520976
H           -1.71116982757538        2.99404183880545       -1.40257441016531
H           -3.18947355175917        2.15432348843195       -0.96010288568391
H           -2.29336810963500        3.36580160942832        0.93771046866173
H           -2.25353931305521        1.64308731781051        1.27964116434526
H            0.14289903560898        3.28900463676196        0.33571898147376
H           -0.16968436044918        2.82038573174650        2.00541155110810
H            0.18831381069808        1.58801471870610        0.80099741785645

          :  Hamiltonian                  GFN2-xTB          :
         :: total energy             -85.828783754133 Eh    ::
         :: gradient norm              0.000414819753 Eh/a0 ::
         :: HOMO-LUMO gap              2.125046914461 eV    ::
         :: SCC energy               -86.988110025685 Eh    ::
         :: -> dispersion             -0.067250458414 Eh    ::
         :: repulsion energy           1.159326271552 Eh    ::

    * Orbital Energies and Occupations

         #    Occupation            Energy/Eh            Energy/eV
      -------------------------------------------------------------
         1        2.0000           -0.8984967             -24.4493
       ...           ...                  ...                  ...
        67        2.0000           -0.5294768             -14.4078
        68        2.0000           -0.5232502             -14.2384
        69        2.0000           -0.5210061             -14.1773
        70        2.0000           -0.5191846             -14.1277
        71        2.0000           -0.5159632             -14.0401
        72        2.0000           -0.5153450             -14.0233
        73        2.0000           -0.5121627             -13.9367
        74        2.0000           -0.4962834             -13.5046
        75        2.0000           -0.4940682             -13.4443
        76        2.0000           -0.4928532             -13.4112
        77        2.0000           -0.4909593             -13.3597
        78        2.0000           -0.4903156             -13.3422
        79        2.0000           -0.4881425             -13.2830 (HOMO)
        80                         -0.4100484             -11.1580 (LUMO)
        81                         -0.3727952             -10.1443
        82                         -0.2054588              -5.5908
        83                         -0.1515950              -4.1251
        84                         -0.1218458              -3.3156
        85                         -0.1144503              -3.1144
        86                         -0.0632820              -1.7220
        87                         -0.0552614              -1.5037
        88                         -0.0417543              -1.1362
        89                         -0.0368572              -1.0029
        90                         -0.0345135              -0.9392
       ...                                ...                  ...
       153                          0.4608709              12.5409
      -------------------------------------------------------------
                  HL-Gap            0.0780940 Eh            2.1250 eV

     #   Z          covCN         q      C6AA      α(0)
     1   6 C        3.751    -0.104    22.544     6.771
     2   6 C        3.799    -0.053    21.520     6.605
     3   6 C        3.800    -0.059    21.637     6.623
     4   6 C        3.800    -0.061    21.670     6.628
     5   6 C        3.800    -0.060    21.655     6.626
     6   6 C        3.799    -0.055    21.559     6.611
     7   6 C        3.799    -0.060    21.653     6.626
     8   6 C        3.799    -0.078    21.996     6.678
     9   6 C        3.688     0.061    19.737     6.359
    10   8 O        1.701    -0.284    18.712     5.840
    11   6 C        3.629     0.125    18.917     6.264
    12   7 N        2.869     0.033    20.657     6.750
    13   6 C        3.067     0.006    27.807     8.647
    14   6 C        3.066    -0.003    28.042     8.683
    15   7 N        2.869     0.033    20.666     6.752
    16   6 C        3.085     0.064    26.471     8.434
    17   6 C        3.631     0.123    18.941     6.266
    18   8 O        1.701    -0.291    18.843     5.861
    19   6 C        3.689     0.062    19.714     6.355
    20   6 C        3.798    -0.078    21.984     6.676
    21   6 C        3.799    -0.061    21.676     6.629
    22   6 C        3.799    -0.055    21.562     6.611
    23   6 C        3.800    -0.058    21.609     6.619
    24   6 C        3.800    -0.060    21.656     6.626
    25   6 C        3.800    -0.060    21.648     6.624
    26   6 C        3.799    -0.053    21.518     6.605
    27   6 C        3.751    -0.104    22.551     6.772
    28   1 H        0.925     0.035     2.515     2.480
    29   1 H        0.925     0.035     2.516     2.480
    30   1 H        0.925     0.039     2.458     2.452
    31   1 H        0.924     0.025     2.653     2.547
    32   1 H        0.924     0.030     2.590     2.517
    33   1 H        0.924     0.023     2.692     2.566
    34   1 H        0.924     0.038     2.479     2.462
    35   1 H        0.924     0.029     2.595     2.519
    36   1 H        0.924     0.043     2.407     2.426
    37   1 H        0.924     0.029     2.596     2.520
    38   1 H        0.924     0.042     2.425     2.435
    39   1 H        0.924     0.007     2.938     2.681
    40   1 H        0.924     0.039     2.468     2.457
    41   1 H        0.924     0.005     2.970     2.695
    42   1 H        0.924     0.055     2.259     2.350
    43   1 H        0.924     0.052     2.290     2.367
    44   1 H        0.925     0.066     2.124     2.279
    45   1 H        0.924     0.080     1.983     2.202
    46   1 H        0.924     0.033     2.542     2.494
    47   1 H        0.923     0.075     2.032     2.229
    48   1 H        0.924     0.102     1.770     2.081
    49   1 H        0.926     0.122     1.601     1.979
    50   1 H        0.926     0.108     1.711     2.045
    51   1 H        0.926     0.121     1.605     1.981
    52   1 H        0.924     0.099     1.795     2.095
    53   1 H        0.924     0.085     1.932     2.174
    54   1 H        0.924     0.034     2.530     2.488
    55   1 H        0.924     0.073     2.049     2.239
    56   1 H        0.925     0.062     2.170     2.304
    57   1 H        0.924     0.057     2.231     2.336
    58   1 H        0.924     0.056     2.251     2.346
    59   1 H        0.924     0.018     2.762     2.599
    60   1 H        0.924     0.045     2.390     2.417
    61   1 H        0.924     0.001     3.045     2.729
    62   1 H        0.924     0.038     2.481     2.463
    63   1 H        0.924     0.024     2.672     2.556
    64   1 H        0.924     0.041     2.433     2.439
    65   1 H        0.924     0.030     2.585     2.514
    66   1 H        0.924     0.038     2.480     2.462
    67   1 H        0.924     0.027     2.634     2.538
    68   1 H        0.924     0.033     2.547     2.496
    69   1 H        0.924     0.024     2.677     2.559
    70   1 H        0.925     0.039     2.466     2.456
    71   1 H        0.925     0.035     2.518     2.482
    72   1 H        0.925     0.034     2.524     2.484

Wiberg/Mayer (AO) data.
largest (>0.10) Wiberg bond orders for each atom

     #   Z sym  total        # sym  WBO       # sym  WBO       # sym  WBO
 ---------------------------------------------------------------------------
     1   6 C    3.996 --     2 C    1.020    30 H    0.987    29 H    0.987
                            28 H    0.986
     2   6 C    3.998 --     1 C    1.020     3 C    1.008    32 H    0.978
                            31 H    0.974
     3   6 C    3.997 --     2 C    1.008     4 C    1.008    34 H    0.976
                            33 H    0.976
     4   6 C    3.996 --     5 C    1.008     3 C    1.008    35 H    0.975
                            36 H    0.974
     5   6 C    3.996 --     4 C    1.008     6 C    1.007    37 H    0.975
                            38 H    0.971
     6   6 C    3.997 --     5 C    1.007     7 C    1.007    40 H    0.972
                            39 H    0.972
     7   6 C    3.995 --     8 C    1.007     6 C    1.007    41 H    0.973
                            42 H    0.972
     8   6 C    3.991 --     7 C    1.007     9 C    1.001    43 H    0.971
                            44 H    0.969
     9   6 C    3.925 --     8 C    1.001    45 H    0.969    46 H    0.966
                            10 O    0.941
    10   8 O    2.132 --    11 C    1.059     9 C    0.941
    11   6 C    3.931 --    10 O    1.059    47 H    0.948    48 H    0.944
                            12 N    0.918
    12   7 N    3.700 --    16 C    1.367    13 C    1.226    11 C    0.918
    13   6 C    3.946 --    14 C    1.596    12 N    1.226    49 H    0.958
    14   6 C    3.947 --    13 C    1.596    15 N    1.224    50 H    0.961
    15   7 N    3.699 --    16 C    1.368    14 C    1.224    17 C    0.917
    16   6 C    3.946 --    15 N    1.368    12 N    1.367    51 H    0.951
    17   6 C    3.928 --    18 O    1.058    52 H    0.944    53 H    0.943
                            15 N    0.917
    18   8 O    2.126 --    17 C    1.058    19 C    0.939
    19   6 C    3.924 --    20 C    1.000    55 H    0.969    54 H    0.966
                            18 O    0.939
    20   6 C    3.990 --    21 C    1.006    19 C    1.000    57 H    0.973
                            56 H    0.971
    21   6 C    3.995 --    22 C    1.007    20 C    1.006    58 H    0.972
                            59 H    0.969
    22   6 C    3.996 --    21 C    1.007    23 C    1.007    61 H    0.973
                            60 H    0.973
    23   6 C    3.997 --    24 C    1.008    22 C    1.007    63 H    0.973
                            62 H    0.971
    24   6 C    3.996 --    23 C    1.008    25 C    1.008    65 H    0.975
                            64 H    0.974
    25   6 C    3.997 --    24 C    1.008    26 C    1.008    66 H    0.976
                            67 H    0.976
    26   6 C    3.998 --    27 C    1.020    25 C    1.008    68 H    0.978
                            69 H    0.976
    27   6 C    3.997 --    26 C    1.020    70 H    0.987    71 H    0.987
                            72 H    0.985
    28   1 H    0.999 --     1 C    0.986
    29   1 H    0.999 --     1 C    0.987
    30   1 H    0.998 --     1 C    0.987
    31   1 H    0.999 --     2 C    0.974
    32   1 H    0.999 --     2 C    0.978
    33   1 H    0.999 --     3 C    0.976
    34   1 H    0.999 --     3 C    0.976
    35   1 H    0.999 --     4 C    0.975
    36   1 H    0.998 --     4 C    0.974
    37   1 H    0.999 --     5 C    0.975
    38   1 H    0.998 --     5 C    0.971
    39   1 H    1.000 --     6 C    0.972
    40   1 H    0.999 --     6 C    0.972
    41   1 H    1.000 --     7 C    0.973
    42   1 H    0.997 --     7 C    0.972
    43   1 H    0.997 --     8 C    0.971
    44   1 H    0.995 --     8 C    0.969
    45   1 H    0.994 --     9 C    0.969
    46   1 H    0.999 --     9 C    0.966
    47   1 H    0.994 --    11 C    0.948
    48   1 H    0.989 --    11 C    0.944
    49   1 H    0.985 --    13 C    0.958
    50   1 H    0.988 --    14 C    0.961
    51   1 H    0.985 --    16 C    0.951
    52   1 H    0.990 --    17 C    0.944
    53   1 H    0.992 --    17 C    0.943
    54   1 H    0.999 --    19 C    0.966
    55   1 H    0.995 --    19 C    0.969
    56   1 H    0.996 --    20 C    0.971
    57   1 H    0.997 --    20 C    0.973
    58   1 H    0.997 --    21 C    0.972
    59   1 H    1.000 --    21 C    0.969
    60   1 H    0.998 --    22 C    0.973
    61   1 H    1.000 --    22 C    0.973
    62   1 H    0.999 --    23 C    0.971
    63   1 H    0.999 --    23 C    0.973
    64   1 H    0.998 --    24 C    0.974
    65   1 H    0.999 --    24 C    0.975
    66   1 H    0.999 --    25 C    0.976
    67   1 H    0.999 --    25 C    0.976
    68   1 H    0.999 --    26 C    0.978
    69   1 H    0.999 --    26 C    0.976
    70   1 H    0.998 --    27 C    0.987
    71   1 H    0.999 --    27 C    0.987
    72   1 H    0.999 --    27 C    0.985
 ---------------------------------------------------------------------------

molecular dipole:
                 x           y           z       tot (Debye)
 q only:       -7.783      -8.067       0.743
   full:       -7.907      -8.124       0.640      28.862

           -------------------------------------------------
          | TOTAL ENERGY              -85.828783754133 Eh   |
          | GRADIENT NORM               0.000414819753 Eh/α |
          | HOMO-LUMO GAP               2.125046914461 eV   |
           -------------------------------------------------

 * finished run on 2024/12/20 at 06:59:02.659
