   * xtb version 6.7.1 (edcfbbe) compiled by 'conda@3ef47c1a292c' on 2024-11-25

   ID    Z sym.   atoms
    1    6 C      1, 3, 5-10
    2    7 N      2, 4
    3    1 H      11-25

          program call               : xtb C0819.xyz --opt --namespace C0819 --charge +1
          :  Hamiltonian                  GFN2-xTB          :
 * total energy  :   -30.1455628 Eh     change       -0.7252865E-10 Eh
 * total energy  :   -30.1811800 Eh     change       -0.3561723E-01 Eh
 * total energy  :   -30.1851212 Eh     change       -0.3941199E-02 Eh
 * total energy  :   -30.1856445 Eh     change       -0.5232742E-03 Eh
 * total energy  :   -30.1857466 Eh     change       -0.1020758E-03 Eh
 * total energy  :   -30.1857875 Eh     change       -0.4092751E-04 Eh
 * total energy  :   -30.1858105 Eh     change       -0.2305249E-04 Eh
 * total energy  :   -30.1858202 Eh     change       -0.9700286E-05 Eh
 * total energy  :   -30.1858300 Eh     change       -0.9720244E-05 Eh
 * total energy  :   -30.1858335 Eh     change       -0.3587690E-05 Eh
   *** GEOMETRY OPTIMIZATION CONVERGED AFTER 10 ITERATIONS ***

 final structure:
================
25
 xtb: 6.7.1 (edcfbbe)
C            1.14166269244103        0.09547968817899       -0.00467792812341
N            0.00358495359557        0.14884612889227       -0.03044426572353
C            2.59274023234535        0.03530673340341        0.01461678871584
N            3.19278088993335        0.72342651446794       -1.16036073847444
C            2.78102522248918        2.16010165055455       -1.14174444693790
C            3.46675514607653        2.99378138683682       -2.21723322571024
C            4.98287497984943        2.89514531835141       -2.08370265388882
C            5.40849292438832        1.43107188164499       -2.12370002404138
C            4.67832563807572        0.63229365817528       -1.04994329858306
C            2.71385176160194        0.05197651269978       -2.38370828654316
H            2.94304359062540        0.50079695312130        0.94218228128440
H            2.89540997130722       -1.01767916402027        0.02008354841004
H            3.04451753762331        2.56512581721050       -0.16125692276503
H            1.69572069849366        2.20702675704118       -1.25368250342615
H            3.14593575220665        4.02747838446098       -2.08674002929257
H            3.15149381985240        2.68669669534913       -3.21451672336251
H            5.46397002119321        3.44405803904297       -2.89107932955228
H            5.30083487086177        3.34666191596526       -1.14232224411922
H            5.23240814506074        1.01129178292437       -3.11418738506255
H            6.47755109220323        1.34673464976796       -1.92720442687525
H            4.96381488620773       -0.42061456574603       -1.09998814617963
H            4.96172614720946        1.02248545296631       -0.06922167694508
H            3.01756451883518       -0.99412087594398       -2.37893989882089
H            1.62671874305042        0.10203865398683       -2.43386310641786
H            3.12525576447317        0.52791003066818       -3.26877535756544

          :  Hamiltonian                  GFN2-xTB          :
         :: total energy             -30.185833545654 Eh    ::
         :: gradient norm              0.000675656395 Eh/a0 ::
         :: HOMO-LUMO gap              5.392782798223 eV    ::
         :: SCC energy               -30.654636183687 Eh    ::
         :: -> dispersion             -0.019224917671 Eh    ::
         :: repulsion energy           0.468802638033 Eh    ::

    * Orbital Energies and Occupations

         #    Occupation            Energy/Eh            Energy/eV
      -------------------------------------------------------------
         1        2.0000           -0.8857270             -24.1019
       ...           ...                  ...                  ...
        16        2.0000           -0.6784185             -18.4607
        17        2.0000           -0.6642885             -18.0762
        18        2.0000           -0.6624232             -18.0255
        19        2.0000           -0.6575163             -17.8919
        20        2.0000           -0.6538788             -17.7929
        21        2.0000           -0.6508601             -17.7108
        22        2.0000           -0.6430076             -17.4971
        23        2.0000           -0.6345279             -17.2664
        24        2.0000           -0.6194225             -16.8553
        25        2.0000           -0.5983358             -16.2815
        26        2.0000           -0.5968996             -16.2425
        27        2.0000           -0.5871790             -15.9780
        28        2.0000           -0.5859308             -15.9440 (HOMO)
        29                         -0.3877497             -10.5512 (LUMO)
        30                         -0.3691845             -10.0460
        31                         -0.2387612              -6.4970
        32                         -0.1823073              -4.9608
        33                         -0.1658442              -4.5128
        34                         -0.1605338              -4.3683
        35                         -0.0882481              -2.4014
        36                         -0.0779845              -2.1221
        37                         -0.0713112              -1.9405
        38                         -0.0508130              -1.3827
        39                         -0.0404203              -1.0999
       ...                                ...                  ...
        55                          0.9841609              26.7804
      -------------------------------------------------------------
                  HL-Gap            0.1981811 Eh            5.3928 eV

     #   Z          covCN         q      C6AA      α(0)
     1   6 C        1.893     0.108    28.445     8.614
     2   7 N        0.911    -0.140    24.041     7.092
     3   6 C        3.773    -0.028    21.101     6.546
     4   7 N        3.624     0.128    19.053     6.483
     5   6 C        3.762    -0.031    21.173     6.559
     6   6 C        3.804    -0.074    21.905     6.663
     7   6 C        3.806    -0.074    21.900     6.662
     8   6 C        3.804    -0.073    21.899     6.662
     9   6 C        3.764    -0.033    21.202     6.563
    10   6 C        3.714    -0.090    22.359     6.756
    11   1 H        0.924     0.115     1.657     2.013
    12   1 H        0.924     0.117     1.636     2.000
    13   1 H        0.924     0.084     1.935     2.175
    14   1 H        0.924     0.087     1.904     2.158
    15   1 H        0.925     0.084     1.937     2.177
    16   1 H        0.925     0.065     2.147     2.291
    17   1 H        0.925     0.076     2.024     2.225
    18   1 H        0.924     0.060     2.203     2.321
    19   1 H        0.925     0.065     2.146     2.291
    20   1 H        0.924     0.083     1.947     2.182
    21   1 H        0.924     0.082     1.960     2.189
    22   1 H        0.924     0.085     1.930     2.173
    23   1 H        0.925     0.095     1.834     2.118
    24   1 H        0.925     0.101     1.779     2.086
    25   1 H        0.925     0.110     1.701     2.039

Wiberg/Mayer (AO) data.
largest (>0.10) Wiberg bond orders for each atom

     #   Z sym  total        # sym  WBO       # sym  WBO       # sym  WBO
 ---------------------------------------------------------------------------
     1   6 C    3.957 --     2 N    2.892     3 C    1.031
     2   7 N    3.037 --     1 C    2.892
     3   6 C    3.949 --     1 C    1.031    11 H    0.939    12 H    0.939
                             4 N    0.939
     4   7 N    3.807 --    10 C    0.956     3 C    0.939     9 C    0.925
                             5 C    0.922
     5   6 C    3.926 --     6 C    1.008    13 H    0.967    14 H    0.965
                             4 N    0.922
     6   6 C    3.984 --     7 C    1.009     5 C    1.008    16 H    0.970
                            15 H    0.964
     7   6 C    3.991 --     6 C    1.009     8 C    1.008    18 H    0.974
                            17 H    0.971
     8   6 C    3.983 --     7 C    1.008     9 C    1.007    19 H    0.970
                            20 H    0.964
     9   6 C    3.929 --     8 C    1.007    21 H    0.968    22 H    0.967
                             4 N    0.925
    10   6 C    3.923 --    23 H    0.975    24 H    0.971    25 H    0.966
                             4 N    0.956
    11   1 H    0.987 --     3 C    0.939
    12   1 H    0.986 --     3 C    0.939
    13   1 H    0.993 --     5 C    0.967
    14   1 H    0.992 --     5 C    0.965
    15   1 H    0.993 --     6 C    0.964
    16   1 H    0.996 --     6 C    0.970
    17   1 H    0.994 --     7 C    0.971
    18   1 H    0.996 --     7 C    0.974
    19   1 H    0.996 --     8 C    0.970
    20   1 H    0.993 --     8 C    0.964
    21   1 H    0.993 --     9 C    0.968
    22   1 H    0.993 --     9 C    0.967
    23   1 H    0.991 --    10 C    0.975
    24   1 H    0.990 --    10 C    0.971
    25   1 H    0.988 --    10 C    0.966
 ---------------------------------------------------------------------------

molecular dipole:
                 x           y           z       tot (Debye)
 q only:        7.051       1.840      -2.563
   full:        7.455       1.677      -2.403      20.360

           -------------------------------------------------
          | TOTAL ENERGY              -30.185833545654 Eh   |
          | GRADIENT NORM               0.000675656395 Eh/α |
          | HOMO-LUMO GAP               5.392782798223 eV   |
           -------------------------------------------------

 * finished run on 2024/12/20 at 06:59:09.665
