   * xtb version 6.7.1 (edcfbbe) compiled by 'conda@3ef47c1a292c' on 2024-11-25

   ID    Z sym.   atoms
    1    6 C      1-7, 9, 11, 13-25
    2    7 N      8, 10, 12
    3    1 H      26-45

          program call               : xtb C0820.xyz --opt --namespace C0820 --charge +1
          :  Hamiltonian                  GFN2-xTB          :
 * total energy  :   -65.7073072 Eh     change       -0.3754508E-09 Eh
 * total energy  :   -65.7165925 Eh     change       -0.9285328E-02 Eh
 * total energy  :   -65.7194645 Eh     change       -0.2871948E-02 Eh
 * total energy  :   -65.7198245 Eh     change       -0.3600231E-03 Eh
 * total energy  :   -65.7200723 Eh     change       -0.2478434E-03 Eh
 * total energy  :   -65.7201792 Eh     change       -0.1069201E-03 Eh
 * total energy  :   -65.7202707 Eh     change       -0.9145789E-04 Eh
 * total energy  :   -65.7203109 Eh     change       -0.4024696E-04 Eh
 * total energy  :   -65.7203337 Eh     change       -0.2271837E-04 Eh
 * total energy  :   -65.7203584 Eh     change       -0.2472605E-04 Eh
 * total energy  :   -65.7203843 Eh     change       -0.2592273E-04 Eh
 * total energy  :   -65.7204112 Eh     change       -0.2691332E-04 Eh
 * total energy  :   -65.7204195 Eh     change       -0.8250148E-05 Eh
 * total energy  :   -65.7204250 Eh     change       -0.5486531E-05 Eh
 * total energy  :   -65.7204295 Eh     change       -0.4505106E-05 Eh
   *** GEOMETRY OPTIMIZATION CONVERGED AFTER 15 ITERATIONS ***

 final structure:
================
45
 xtb: 6.7.1 (edcfbbe)
C            2.48763929510021        0.14675078536389       -0.05184312950407
C            0.99523797680085        0.11600868744940       -0.04613365130154
C            0.31596665444485       -1.09914250473410        0.00942820296892
C           -1.06380123170919       -1.14712824855496        0.00682039490241
C           -1.78646743218001        0.03839650486613       -0.04703090543456
C           -1.12982137062785        1.26048568795826       -0.10975446868156
C            0.25290346694355        1.29005047158909       -0.10940162136319
N           -3.20826404150548        0.00446431296118       -0.03798651489813
C           -4.01786311830219        0.55864121611143       -1.00460919484617
N           -3.52965937142924        1.29337783702774       -2.03463326820814
C           -5.30840430457251        0.26162883845876       -0.65015709257687
N           -5.26019705858003       -0.45537224756500        0.51961248432996
C           -3.98452071537001       -0.61334460087627        0.88384132632800
C           -3.49765119408182       -1.34866264851020        2.04162756561943
C           -2.47563920421778       -0.82462191294508        2.83424807650793
C           -2.01588504335660       -1.53669673375025        3.92568579032177
C           -2.56327720032118       -2.77148082170541        4.23518580715415
C           -3.57829662094450       -3.29601743038232        3.45064001313212
C           -4.04786800254797       -2.59209721486076        2.35867156126642
C           -6.41088998955069       -0.87382335034617        1.23663735537345
C           -6.50961564713331       -0.62246926932597        2.59934768062870
C           -7.64518009983386       -1.02192865949981        3.28036014165157
C           -8.67504295011637       -1.66015419830467        2.60773337103591
C           -8.57349390986605       -1.89955999354752        1.24725325048818
C           -7.44179120594844       -1.50646384087230        0.55461428859651
H            2.88929675051933       -0.54153012661175        0.68835084319055
H            2.86119030004058       -0.16452419850518       -1.02718988487371
H            2.86099991597238        1.14604012921746        0.15285118779358
H            0.87765492215878       -2.01939258548438        0.05411784506790
H           -1.58025488187438       -2.09393963676789        0.04791706129169
H           -1.69730588677442        2.17853517047924       -0.13814519808514
H            0.75973831982707        2.24178037976507       -0.15220509603448
H           -2.56286285118237        1.16009486069656       -2.28443905517716
H           -4.15951389107835        1.48455956922712       -2.79521094914102
H           -6.23203842069548        0.53491259379800       -1.11303700935148
H           -2.05846397776398        0.14437186988048        2.60644345231776
H           -1.22922497758147       -1.12413754719138        4.53752522398097
H           -2.20005202961263       -3.32439094946297        5.08708198243677
H           -4.00425291084645       -4.25822077455829        3.68754606599525
H           -4.82750303724454       -3.01027549011611        1.74001862492264
H           -5.71082802104608       -0.11236012700216        3.11508658478607
H           -7.72670877927344       -0.82709980489668        4.33789973682084
H           -9.55896356711058       -1.96732122532186        3.14371232723404
H           -9.37491541629771       -2.39379268979905        0.72142781410393
H           -7.35090924122965       -1.70067008335281       -0.50330902077118

          :  Hamiltonian                  GFN2-xTB          :
         :: total energy             -65.720429468082 Eh    ::
         :: gradient norm              0.000927093348 Eh/a0 ::
         :: HOMO-LUMO gap              2.914946735908 eV    ::
         :: SCC energy               -66.919623004689 Eh    ::
         :: -> dispersion             -0.054396389672 Eh    ::
         :: repulsion energy           1.199193536606 Eh    ::

    * Orbital Energies and Occupations

         #    Occupation            Energy/Eh            Energy/eV
      -------------------------------------------------------------
         1        2.0000           -0.8537029             -23.2304
       ...           ...                  ...                  ...
        49        2.0000           -0.5490259             -14.9398
        50        2.0000           -0.5473702             -14.8947
        51        2.0000           -0.5440867             -14.8054
        52        2.0000           -0.5404637             -14.7068
        53        2.0000           -0.5395124             -14.6809
        54        2.0000           -0.5357521             -14.5786
        55        2.0000           -0.5286968             -14.3866
        56        2.0000           -0.5271326             -14.3440
        57        2.0000           -0.5240113             -14.2591
        58        2.0000           -0.5239117             -14.2564
        59        2.0000           -0.5211119             -14.1802
        60        2.0000           -0.5078684             -13.8198
        61        2.0000           -0.4972340             -13.5304 (HOMO)
        62                         -0.3901116             -10.6155 (LUMO)
        63                         -0.3484841              -9.4827
        64                         -0.3460214              -9.4157
        65                         -0.3449093              -9.3855
        66                         -0.3426003              -9.3226
        67                         -0.3383897              -9.2081
        68                         -0.3140894              -8.5468
        69                         -0.3081284              -8.3846
        70                         -0.2153880              -5.8610
        71                         -0.2132131              -5.8018
        72                         -0.2083258              -5.6688
       ...                                ...                  ...
       120                          0.5630704              15.3219
      -------------------------------------------------------------
                  HL-Gap            0.1071223 Eh            2.9149 eV

     #   Z          covCN         q      C6AA      α(0)
     1   6 C        3.759    -0.121    22.871     6.818
     2   6 C        2.965     0.034    27.237     8.560
     3   6 C        2.927    -0.033    28.817     8.804
     4   6 C        2.918    -0.039    28.965     8.825
     5   6 C        2.917     0.043    27.039     8.527
     6   6 C        2.918    -0.044    29.092     8.845
     7   6 C        2.926    -0.034    28.851     8.809
     8   7 N        2.869    -0.010    21.447     6.878
     9   6 C        2.989     0.120    25.350     8.259
    10   7 N        2.635    -0.259    26.721     7.677
    11   6 C        3.033    -0.058    29.400     8.894
    12   7 N        2.861     0.028    20.747     6.765
    13   6 C        3.073     0.097    25.783     8.325
    14   6 C        2.973    -0.001    28.050     8.687
    15   6 C        2.923    -0.028    28.705     8.786
    16   6 C        2.919    -0.020    28.516     8.757
    17   6 C        2.920    -0.016    28.411     8.741
    18   6 C        2.919    -0.020    28.510     8.756
    19   6 C        2.923    -0.028    28.708     8.787
    20   6 C        2.919     0.052    26.834     8.495
    21   6 C        2.920    -0.035    28.866     8.811
    22   6 C        2.921    -0.019    28.481     8.752
    23   6 C        2.919    -0.019    28.475     8.751
    24   6 C        2.921    -0.019    28.490     8.753
    25   6 C        2.921    -0.036    28.899     8.816
    26   1 H        0.925     0.065     2.138     2.287
    27   1 H        0.925     0.070     2.082     2.256
    28   1 H        0.925     0.061     2.186     2.312
    29   1 H        0.926     0.061     2.193     2.316
    30   1 H        0.926     0.045     2.378     2.411
    31   1 H        0.926     0.055     2.255     2.348
    32   1 H        0.926     0.061     2.188     2.313
    33   1 H        0.860     0.198     1.114     1.653
    34   1 H        0.860     0.199     1.109     1.650
    35   1 H        0.927     0.083     1.953     2.185
    36   1 H        0.926     0.044     2.401     2.423
    37   1 H        0.926     0.060     2.203     2.321
    38   1 H        0.926     0.063     2.161     2.299
    39   1 H        0.926     0.060     2.197     2.318
    40   1 H        0.926     0.042     2.421     2.433
    41   1 H        0.926     0.048     2.339     2.392
    42   1 H        0.926     0.064     2.157     2.297
    43   1 H        0.926     0.066     2.126     2.280
    44   1 H        0.926     0.065     2.141     2.288
    45   1 H        0.926     0.054     2.271     2.357

Wiberg/Mayer (AO) data.
largest (>0.10) Wiberg bond orders for each atom

     #   Z sym  total        # sym  WBO       # sym  WBO       # sym  WBO
 ---------------------------------------------------------------------------
     1   6 C    3.991 --     2 C    1.037    28 H    0.982    26 H    0.971
                            27 H    0.958
     2   6 C    3.984 --     7 C    1.406     3 C    1.394     1 C    1.037
     3   6 C    3.989 --     4 C    1.460     2 C    1.394    29 H    0.967
                             6 C    0.105
     4   6 C    3.989 --     3 C    1.460     5 C    1.383    30 H    0.967
                             7 C    0.104
     5   6 C    3.938 --     6 C    1.392     4 C    1.383     8 N    0.978
     6   6 C    3.987 --     7 C    1.446     5 C    1.392    31 H    0.966
                             3 C    0.105
     7   6 C    3.989 --     6 C    1.446     2 C    1.406    32 H    0.966
                             4 C    0.104
     8   7 N    3.638 --    13 C    1.245     9 C    1.148     5 C    0.978
     9   6 C    3.954 --    11 C    1.465    10 N    1.202     8 N    1.148
    10   7 N    3.282 --     9 C    1.202    34 H    0.941    33 H    0.934
                            11 C    0.104
    11   6 C    3.912 --     9 C    1.465    12 N    1.168    35 H    0.965
                            13 C    0.105    10 N    0.104
    12   7 N    3.686 --    13 C    1.318    11 C    1.168    20 C    0.987
    13   6 C    3.940 --    12 N    1.318     8 N    1.245    14 C    1.058
                            11 C    0.105
    14   6 C    3.979 --    15 C    1.374    19 C    1.371    13 C    1.058
                            17 C    0.102
    15   6 C    3.987 --    16 C    1.453    14 C    1.374    36 H    0.968
                            18 C    0.106
    16   6 C    3.989 --    15 C    1.453    17 C    1.433    37 H    0.968
                            19 C    0.106
    17   6 C    3.977 --    16 C    1.433    18 C    1.431    38 H    0.969
                            14 C    0.102
    18   6 C    3.989 --    19 C    1.455    17 C    1.431    39 H    0.968
                            15 C    0.106
    19   6 C    3.988 --    18 C    1.455    14 C    1.371    40 H    0.969
                            16 C    0.106
    20   6 C    3.941 --    25 C    1.394    21 C    1.389    12 N    0.987
                            23 C    0.104
    21   6 C    3.989 --    22 C    1.447    20 C    1.389    41 H    0.967
                            24 C    0.110
    22   6 C    3.989 --    21 C    1.447    23 C    1.435    42 H    0.968
                            25 C    0.109
    23   6 C    3.984 --    24 C    1.439    22 C    1.435    43 H    0.968
                            20 C    0.104
    24   6 C    3.988 --    25 C    1.442    23 C    1.439    44 H    0.968
                            21 C    0.110
    25   6 C    3.986 --    24 C    1.442    20 C    1.394    45 H    0.967
                            22 C    0.109
    26   1 H    0.995 --     1 C    0.971
    27   1 H    0.994 --     1 C    0.958
    28   1 H    0.996 --     1 C    0.982
    29   1 H    0.996 --     3 C    0.967
    30   1 H    0.998 --     4 C    0.967
    31   1 H    0.997 --     6 C    0.966
    32   1 H    0.995 --     7 C    0.966
    33   1 H    0.960 --    10 N    0.934
    34   1 H    0.960 --    10 N    0.941
    35   1 H    0.992 --    11 C    0.965
    36   1 H    0.998 --    15 C    0.968
    37   1 H    0.996 --    16 C    0.968
    38   1 H    0.996 --    17 C    0.969
    39   1 H    0.996 --    18 C    0.968
    40   1 H    0.998 --    19 C    0.969
    41   1 H    0.998 --    21 C    0.967
    42   1 H    0.995 --    22 C    0.968
    43   1 H    0.996 --    23 C    0.968
    44   1 H    0.995 --    24 C    0.968
    45   1 H    0.997 --    25 C    0.967
 ---------------------------------------------------------------------------

molecular dipole:
                 x           y           z       tot (Debye)
 q only:       -6.745      -0.917       1.004
   full:       -6.781      -0.973       0.759      17.519

           -------------------------------------------------
          | TOTAL ENERGY              -65.720429468082 Eh   |
          | GRADIENT NORM               0.000927093348 Eh/α |
          | HOMO-LUMO GAP               2.914946735908 eV   |
           -------------------------------------------------

 * finished run on 2024/12/20 at 06:59:10.560
