   * xtb version 6.7.1 (edcfbbe) compiled by 'conda@3ef47c1a292c' on 2024-11-25

   ID    Z sym.   atoms
    1    6 C      1, 3, 5-8
    2    8 O      2, 4
    3    7 N      9
    4    1 H      10-21

          program call               : xtb C0825.xyz --opt --namespace C0825 --charge +1
          :  Hamiltonian                  GFN2-xTB          :
 * total energy  :   -29.6129763 Eh     change       -0.3943939E-09 Eh
 * total energy  :   -29.6184747 Eh     change       -0.5498360E-02 Eh
 * total energy  :   -29.6202313 Eh     change       -0.1756613E-02 Eh
 * total energy  :   -29.6207066 Eh     change       -0.4752756E-03 Eh
 * total energy  :   -29.6208472 Eh     change       -0.1406529E-03 Eh
 * total energy  :   -29.6208951 Eh     change       -0.4785247E-04 Eh
 * total energy  :   -29.6209425 Eh     change       -0.4743890E-04 Eh
 * total energy  :   -29.6209722 Eh     change       -0.2965725E-04 Eh
 * total energy  :   -29.6209997 Eh     change       -0.2747230E-04 Eh
 * total energy  :   -29.6210275 Eh     change       -0.2788548E-04 Eh
 * total energy  :   -29.6210465 Eh     change       -0.1891622E-04 Eh
 * total energy  :   -29.6210602 Eh     change       -0.1372999E-04 Eh
 * total energy  :   -29.6210664 Eh     change       -0.6231146E-05 Eh
 * total energy  :   -29.6210700 Eh     change       -0.3559790E-05 Eh
   *** GEOMETRY OPTIMIZATION CONVERGED AFTER 14 ITERATIONS ***

 final structure:
================
21
 xtb: 6.7.1 (edcfbbe)
C            0.73822572093362       -0.02220545517824        0.00569626099796
O            0.35338556532643        0.16588712098856       -1.36379176807798
C            0.84839202824447        1.18000371203546       -1.99977884982453
O            1.61659260939868        2.01999068818309       -1.58772511603497
C            0.37846375176115        1.27356967587820       -3.47175981938627
C            0.92256873979508        0.11563562514024       -4.31721052216846
C            2.27129979790751        0.64532525321092       -4.79998793078593
C            1.95096952839147        2.09973113511029       -5.11274485930649
N            1.04776061412687        2.49697796419070       -3.99745166605532
H            0.28508812588382       -0.95933888162514        0.31583568853593
H            0.36777789110706        0.80263569544923        0.61486189556611
H            1.82436561954832       -0.07069038553339        0.08881707304773
H           -0.70923287469161        1.34385979134838       -3.50332807605852
H            1.00653077218573       -0.80034803898638       -3.73768499472583
H            0.26309288051694       -0.07569323658378       -5.16333994350531
H            3.02093711369958        0.57790036475863       -4.01146848304855
H            2.63867660156540        0.11006912048438       -5.67089426381602
H            2.82773831072769        2.74386441432473       -5.14566314637831
H            1.40994957573312        2.17804753692900       -6.05701421392840
H            0.40521525481704        3.24458716313029       -4.26364689660534
H            1.60681237302152        2.81336073674491       -3.15190036844161

          :  Hamiltonian                  GFN2-xTB          :
         :: total energy             -29.621069983722 Eh    ::
         :: gradient norm              0.000476294926 Eh/a0 ::
         :: HOMO-LUMO gap              5.171499738665 eV    ::
         :: SCC energy               -29.950361489514 Eh    ::
         :: -> dispersion             -0.013262618902 Eh    ::
         :: repulsion energy           0.329291505793 Eh    ::

    * Orbital Energies and Occupations

         #    Occupation            Energy/Eh            Energy/eV
      -------------------------------------------------------------
         1        2.0000           -0.9157165             -24.9179
       ...           ...                  ...                  ...
        14        2.0000           -0.7102598             -19.3272
        15        2.0000           -0.7014461             -19.0873
        16        2.0000           -0.6812990             -18.5391
        17        2.0000           -0.6729411             -18.3117
        18        2.0000           -0.6688978             -18.2016
        19        2.0000           -0.6623957             -18.0247
        20        2.0000           -0.6382110             -17.3666
        21        2.0000           -0.6327368             -17.2176
        22        2.0000           -0.6302926             -17.1511
        23        2.0000           -0.6182174             -16.8226
        24        2.0000           -0.6110020             -16.6262
        25        2.0000           -0.5980734             -16.2744
        26        2.0000           -0.5906442             -16.0722 (HOMO)
        27                         -0.4005951             -10.9007 (LUMO)
        28                         -0.2433985              -6.6232
        29                         -0.1839358              -5.0051
        30                         -0.1699449              -4.6244
        31                         -0.1414885              -3.8501
        32                         -0.0972712              -2.6469
        33                         -0.0815482              -2.2190
        34                         -0.0609654              -1.6590
        35                         -0.0526314              -1.4322
        36                         -0.0285160              -0.7760
        37                         -0.0079073              -0.2152
       ...                                ...                  ...
        48                          0.4742939              12.9062
      -------------------------------------------------------------
                  HL-Gap            0.1900491 Eh            5.1715 eV

     #   Z          covCN         q      C6AA      α(0)
     1   6 C        3.656     0.010    20.702     6.531
     2   8 O        1.703    -0.200    17.337     5.622
     3   6 C        2.726     0.351    21.041     7.510
     4   8 O        0.857    -0.398    21.636     6.236
     5   6 C        3.808    -0.008    20.709     6.478
     6   6 C        3.830    -0.075    21.908     6.660
     7   6 C        3.828    -0.076    21.936     6.664
     8   6 C        3.766    -0.026    21.070     6.542
     9   7 N        3.547    -0.068    22.545     7.052
    10   1 H        0.925     0.106     1.728     2.056
    11   1 H        0.924     0.093     1.850     2.127
    12   1 H        0.924     0.092     1.860     2.133
    13   1 H        0.924     0.108     1.711     2.045
    14   1 H        0.925     0.095     1.830     2.115
    15   1 H        0.925     0.087     1.908     2.160
    16   1 H        0.925     0.078     1.996     2.209
    17   1 H        0.925     0.098     1.799     2.097
    18   1 H        0.925     0.104     1.746     2.066
    19   1 H        0.924     0.100     1.782     2.088
    20   1 H        0.860     0.242     0.917     1.500
    21   1 H        0.855     0.284     0.763     1.368

Wiberg/Mayer (AO) data.
largest (>0.10) Wiberg bond orders for each atom

     #   Z sym  total        # sym  WBO       # sym  WBO       # sym  WBO
 ---------------------------------------------------------------------------
     1   6 C    3.880 --    10 H    0.976    12 H    0.973    11 H    0.972
                             2 O    0.920
     2   8 O    2.402 --     3 C    1.251     1 C    0.920     4 O    0.190
     3   6 C    3.934 --     4 O    1.690     2 O    1.251     5 C    0.925
     4   8 O    2.092 --     3 C    1.690     2 O    0.190
     5   6 C    3.933 --     6 C    0.980    13 H    0.952     9 N    0.945
                             3 C    0.925
     6   6 C    3.976 --     7 C    1.005     5 C    0.980    15 H    0.971
                            14 H    0.967
     7   6 C    3.983 --     8 C    1.010     6 C    1.005    16 H    0.973
                            17 H    0.966
     8   6 C    3.915 --     7 C    1.010    19 H    0.970    18 H    0.968
                             9 N    0.936
     9   7 N    3.705 --     5 C    0.945     8 C    0.936    20 H    0.922
                            21 H    0.825
    10   1 H    0.988 --     1 C    0.976
    11   1 H    0.991 --     1 C    0.972
    12   1 H    0.992 --     1 C    0.973
    13   1 H    0.988 --     5 C    0.952
    14   1 H    0.991 --     6 C    0.967
    15   1 H    0.992 --     6 C    0.971
    16   1 H    0.994 --     7 C    0.973
    17   1 H    0.990 --     7 C    0.966
    18   1 H    0.989 --     8 C    0.968
    19   1 H    0.990 --     8 C    0.970
    20   1 H    0.941 --     9 N    0.922
    21   1 H    0.919 --     9 N    0.825
 ---------------------------------------------------------------------------

molecular dipole:
                 x           y           z       tot (Debye)
 q only:        1.865       2.759      -7.006
   full:        1.659       3.020      -6.969      19.760

           -------------------------------------------------
          | TOTAL ENERGY              -29.621069983722 Eh   |
          | GRADIENT NORM               0.000476294926 Eh/α |
          | HOMO-LUMO GAP               5.171499738665 eV   |
           -------------------------------------------------

 * finished run on 2024/12/20 at 06:59:48.154
