   * xtb version 6.7.1 (edcfbbe) compiled by 'conda@3ef47c1a292c' on 2024-11-25

   ID    Z sym.   atoms
    1   17 Cl     1, 8
    2    6 C      2-7, 9, 11, 12, 14, 16-23
    3    7 N      10, 13
    4    8 O      15
    5    1 H      24-40

          program call               : xtb C0827.xyz --opt --namespace C0827 --charge +1
          :  Hamiltonian                  GFN2-xTB          :
 * total energy  :   -65.7968433 Eh     change       -0.1195957E-08 Eh
 * total energy  :   -65.8039348 Eh     change       -0.7091526E-02 Eh
 * total energy  :   -65.8058568 Eh     change       -0.1922039E-02 Eh
 * total energy  :   -65.8063799 Eh     change       -0.5230689E-03 Eh
 * total energy  :   -65.8068419 Eh     change       -0.4619738E-03 Eh
 * total energy  :   -65.8071625 Eh     change       -0.3206468E-03 Eh
 * total energy  :   -65.8075267 Eh     change       -0.3641587E-03 Eh
 * total energy  :   -65.8079526 Eh     change       -0.4259196E-03 Eh
 * total energy  :   -65.8082498 Eh     change       -0.2971418E-03 Eh
 * total energy  :   -65.8083548 Eh     change       -0.1050851E-03 Eh
 * total energy  :   -65.8090750 Eh     change       -0.4998920E-04 Eh
 * total energy  :   -65.8091249 Eh     change       -0.4994882E-04 Eh
 * total energy  :   -65.8091703 Eh     change       -0.4534526E-04 Eh
 * total energy  :   -65.8092044 Eh     change       -0.3415829E-04 Eh
 * total energy  :   -65.8092259 Eh     change       -0.2145903E-04 Eh
 * total energy  :   -65.8092390 Eh     change       -0.1311036E-04 Eh
 * total energy  :   -65.8092466 Eh     change       -0.7575736E-05 Eh
 * total energy  :   -65.8092552 Eh     change       -0.8624852E-05 Eh
 * total energy  :   -65.8092596 Eh     change       -0.4434316E-05 Eh
   *** GEOMETRY OPTIMIZATION CONVERGED AFTER 40 ITERATIONS ***

 final structure:
================
40
 xtb: 6.7.1 (edcfbbe)
Cl          -2.29688217155674        1.02203649448700       -0.42783660435838
C           -0.86836836924874        0.08140763624022       -0.28986034206369
C           -0.78553686952650       -1.16017337802729       -0.91015353253302
C            0.37121387056646       -1.90506689486878       -0.78725275355916
C            1.46018721517350       -1.44033914907593       -0.05831106137961
C            1.36087878538086       -0.18868377180417        0.54790550459849
C            0.20615172800400        0.56840690594530        0.44376401790006
Cl           2.67718230353161        0.45051203905716        1.46688927088433
C            2.70775421020245       -2.28013259035547        0.07194560363947
N            3.66606975876207       -1.96855518083031       -0.97172451454606
C            4.61797660701571       -1.00151252209017       -0.91711899156424
C            5.30258364252474       -1.02183362936795       -2.09515571247308
N            4.73335761338417       -1.99704601174767       -2.85236498217375
C            3.74287489547431       -2.55727793412959       -2.16273827842697
O            5.11371932869638       -2.45354320904003       -4.07084887656568
C            5.39580470027882       -1.46232739363437       -5.06876082120966
C            4.15592314550102       -0.67921546371511       -5.50426168445313
C            3.64746947354147        0.23205781077344       -4.41722388346131
C            4.38756128164199        1.34596158537666       -4.03478739123670
C            3.95056013635984        2.16238087403736       -3.00708802584204
C            2.76085873435404        1.88136984772824       -2.35579979385621
C            2.00497951273593        0.78940926609759       -2.74571673842272
C            2.45026193251962       -0.03401003824028       -3.76564306010499
H           -1.62275819501200       -1.53614982148505       -1.47424159473139
H            0.42321328214106       -2.87591140955973       -1.25598724505548
H            0.13776164655088        1.52915715056680        0.92841749433878
H            3.18306013281061       -2.08547335403103        1.03549128900056
H            2.45118234089780       -3.33838575285759       -0.00078351444140
H            4.74543106430951       -0.37115744488212       -0.06043165957317
H            6.12796196593741       -0.42303230010772       -2.41872332392995
H            3.14392558666505       -3.37280187910271       -2.51711160080016
H            6.18954279384824       -0.79207469503036       -4.72666505817532
H            5.77690074667865       -2.07242553724796       -5.88907933811234
H            4.43500407701567       -0.09016495814497       -6.37914190465916
H            3.37684563684244       -1.38194263280171       -5.80319474991588
H            5.30239230821672        1.58466942252818       -4.55794356576552
H            4.53169471100150        3.02639738884172       -2.72467619077878
H            2.41316490353046        2.52321403077461       -1.56189800182520
H            1.06029067227197        0.58414853876416       -2.26747727684919
H            1.84980486096991       -0.88008203903057       -4.07035110752643

          :  Hamiltonian                  GFN2-xTB          :
         :: total energy             -65.809259620200 Eh    ::
         :: gradient norm              0.000524125695 Eh/a0 ::
         :: HOMO-LUMO gap              2.820555186293 eV    ::
         :: SCC energy               -66.741150632675 Eh    ::
         :: -> dispersion             -0.052921043483 Eh    ::
         :: repulsion energy           0.931891012475 Eh    ::

    * Orbital Energies and Occupations

         #    Occupation            Energy/Eh            Energy/eV
      -------------------------------------------------------------
         1        2.0000           -1.1745233             -31.9604
       ...           ...                  ...                  ...
        47        2.0000           -0.5774086             -15.7121
        48        2.0000           -0.5758793             -15.6705
        49        2.0000           -0.5705888             -15.5265
        50        2.0000           -0.5671573             -15.4331
        51        2.0000           -0.5613993             -15.2765
        52        2.0000           -0.5406781             -14.7126
        53        2.0000           -0.5375336             -14.6270
        54        2.0000           -0.5340921             -14.5334
        55        2.0000           -0.5248847             -14.2828
        56        2.0000           -0.5195746             -14.1383
        57        2.0000           -0.5188320             -14.1181
        58        2.0000           -0.5126112             -13.9489
        59        2.0000           -0.5092510             -13.8574 (HOMO)
        60                         -0.4055975             -11.0369 (LUMO)
        61                         -0.3717843             -10.1168
        62                         -0.3668942              -9.9837
        63                         -0.3636142              -9.8944
        64                         -0.3384711              -9.2103
        65                         -0.3370993              -9.1729
        66                         -0.2646715              -7.2021
        67                         -0.2521609              -6.8616
        68                         -0.2383362              -6.4855
        69                         -0.2277574              -6.1976
        70                         -0.2095506              -5.7022
       ...                                ...                  ...
       119                          0.5498095              14.9611
      -------------------------------------------------------------
                  HL-Gap            0.1036535 Eh            2.8206 eV

     #   Z          covCN         q      C6AA      α(0)
     1  17 Cl       0.970    -0.106   102.452    15.485
     2   6 C        2.887     0.109    25.588     8.293
     3   6 C        2.952    -0.039    28.967     8.828
     4   6 C        2.926    -0.032    28.793     8.800
     5   6 C        2.996    -0.011    28.276     8.723
     6   6 C        2.890     0.095    25.896     8.343
     7   6 C        3.000    -0.046    29.130     8.854
     8  17 Cl       0.968    -0.144   103.644    15.575
     9   6 C        3.747    -0.036    21.285     6.581
    10   7 N        2.872     0.077    19.896     6.625
    11   6 C        3.085    -0.009    28.140     8.696
    12   6 C        3.048    -0.022    28.504     8.756
    13   7 N        2.905     0.214    17.731     6.254
    14   6 C        3.079     0.030    27.258     8.559
    15   8 O        1.767    -0.209    17.471     5.644
    16   6 C        3.682     0.058    19.798     6.372
    17   6 C        3.806    -0.083    22.070     6.688
    18   6 C        2.969     0.002    27.980     8.676
    19   6 C        2.924    -0.044    29.096     8.846
    20   6 C        2.919    -0.029    28.720     8.788
    21   6 C        2.920    -0.031    28.765     8.795
    22   6 C        2.919    -0.036    28.895     8.815
    23   6 C        2.924    -0.049    29.209     8.863
    24   1 H        0.926     0.089     1.887     2.148
    25   1 H        0.926     0.067     2.118     2.276
    26   1 H        0.926     0.095     1.831     2.116
    27   1 H        0.924     0.114     1.665     2.018
    28   1 H        0.924     0.098     1.805     2.101
    29   1 H        0.926     0.127     1.561     1.954
    30   1 H        0.927     0.116     1.646     2.006
    31   1 H        0.926     0.129     1.543     1.943
    32   1 H        0.924     0.061     2.184     2.311
    33   1 H        0.924     0.104     1.750     2.069
    34   1 H        0.924     0.077     2.013     2.219
    35   1 H        0.924     0.066     2.134     2.284
    36   1 H        0.926     0.040     2.444     2.445
    37   1 H        0.926     0.051     2.309     2.376
    38   1 H        0.926     0.046     2.375     2.410
    39   1 H        0.926     0.032     2.552     2.498
    40   1 H        0.925     0.028     2.611     2.527

Wiberg/Mayer (AO) data.
largest (>0.10) Wiberg bond orders for each atom

     #   Z sym  total        # sym  WBO       # sym  WBO       # sym  WBO
 ---------------------------------------------------------------------------
     1  17 Cl   1.186 --     2 C    1.028
     2   6 C    3.933 --     7 C    1.388     3 C    1.380     1 Cl   1.028
     3   6 C    3.985 --     4 C    1.452     2 C    1.380    24 H    0.963
     4   6 C    3.989 --     3 C    1.452     5 C    1.404    25 H    0.964
                             7 C    0.102
     5   6 C    3.978 --     4 C    1.404     6 C    1.365     9 C    0.987
     6   6 C    3.926 --     7 C    1.415     5 C    1.365     8 Cl   0.989
     7   6 C    3.983 --     6 C    1.415     2 C    1.388    26 H    0.960
                             4 C    0.102
     8  17 Cl   1.143 --     6 C    0.989
     9   6 C    3.934 --     5 C    0.987    28 H    0.961    10 N    0.957
                            27 H    0.953
    10   7 N    3.717 --    14 C    1.350    11 C    1.239     9 C    0.957
    11   6 C    3.945 --    12 C    1.575    10 N    1.239    29 H    0.953
    12   6 C    3.942 --    11 C    1.575    13 N    1.214    30 H    0.957
    13   7 N    3.735 --    14 C    1.340    12 C    1.214    15 O    1.011
    14   6 C    3.936 --    10 N    1.350    13 N    1.340    31 H    0.951
    15   8 O    2.117 --    13 N    1.011    16 C    0.923
    16   6 C    3.899 --    17 C    0.991    32 H    0.967    33 H    0.953
                            15 O    0.923
    17   6 C    3.988 --    18 C    1.008    16 C    0.991    35 H    0.972
                            34 H    0.957
    18   6 C    3.988 --    23 C    1.418    19 C    1.408    17 C    1.008
                            21 C    0.110
    19   6 C    3.991 --    20 C    1.449    18 C    1.408    36 H    0.968
                            22 C    0.111
    20   6 C    3.991 --    19 C    1.449    21 C    1.435    37 H    0.970
                            23 C    0.110
    21   6 C    3.991 --    22 C    1.441    20 C    1.435    38 H    0.970
                            18 C    0.110
    22   6 C    3.992 --    21 C    1.441    23 C    1.440    39 H    0.968
                            19 C    0.111
    23   6 C    3.991 --    22 C    1.440    18 C    1.418    40 H    0.968
                            20 C    0.110
    24   1 H    0.991 --     3 C    0.963
    25   1 H    0.995 --     4 C    0.964
    26   1 H    0.990 --     7 C    0.960
    27   1 H    0.986 --     9 C    0.953
    28   1 H    0.990 --     9 C    0.961
    29   1 H    0.984 --    11 C    0.953
    30   1 H    0.986 --    12 C    0.957
    31   1 H    0.983 --    14 C    0.951
    32   1 H    0.996 --    16 C    0.967
    33   1 H    0.988 --    16 C    0.953
    34   1 H    0.994 --    17 C    0.957
    35   1 H    0.995 --    17 C    0.972
    36   1 H    0.998 --    19 C    0.968
    37   1 H    0.997 --    20 C    0.970
    38   1 H    0.997 --    21 C    0.970
    39   1 H    0.999 --    22 C    0.968
    40   1 H    0.999 --    23 C    0.968
 ---------------------------------------------------------------------------

molecular dipole:
                 x           y           z       tot (Debye)
 q only:        7.104      -3.141      -4.076
   full:        6.812      -2.685      -3.856      21.034

           -------------------------------------------------
          | TOTAL ENERGY              -65.809259620200 Eh   |
          | GRADIENT NORM               0.000524125695 Eh/α |
          | HOMO-LUMO GAP               2.820555186293 eV   |
           -------------------------------------------------

 * finished run on 2024/12/20 at 06:59:53.014
