   * xtb version 6.7.1 (edcfbbe) compiled by 'conda@3ef47c1a292c' on 2024-11-25

   ID    Z sym.   atoms
    1    6 C      1-12, 15-20, 23, 24, 26, 28-37, 39, 40, 42, 43
    2    8 O      13, 21, 22, 27
    3    7 N      14, 25, 38, 41
    4    1 H      44-108

          program call               : xtb C0824.xyz --opt --namespace C0824 --charge +1
          :  Hamiltonian                  GFN2-xTB          :
 * total energy  :  -135.7682768 Eh     change       -0.7866731E-08 Eh
 * total energy  :  -135.7782163 Eh     change       -0.9939455E-02 Eh
 * total energy  :  -135.7808689 Eh     change       -0.2652644E-02 Eh
 * total energy  :  -135.7822964 Eh     change       -0.1427509E-02 Eh
 * total energy  :  -135.7841047 Eh     change       -0.1808208E-02 Eh
 * total energy  :  -135.7857828 Eh     change       -0.1678125E-02 Eh
 * total energy  :  -135.7873584 Eh     change       -0.1575656E-02 Eh
 * total energy  :  -135.7888308 Eh     change       -0.1472365E-02 Eh
 * total energy  :  -135.7901665 Eh     change       -0.1335745E-02 Eh
 * total energy  :  -135.7914848 Eh     change       -0.1318298E-02 Eh
 * total energy  :  -135.8168533 Eh     change       -0.2282550E-04 Eh
 * total energy  :  -135.8168660 Eh     change       -0.1265664E-04 Eh
 * total energy  :  -135.8168781 Eh     change       -0.1212730E-04 Eh
 * total energy  :  -135.8168965 Eh     change       -0.1837239E-04 Eh
 * total energy  :  -135.8169088 Eh     change       -0.1235001E-04 Eh
 * total energy  :  -135.8169201 Eh     change       -0.1126823E-04 Eh
 * total energy  :  -135.8169264 Eh     change       -0.6328144E-05 Eh
 * total energy  :  -135.8169324 Eh     change       -0.6022911E-05 Eh
 * total energy  :  -135.8169369 Eh     change       -0.4460822E-05 Eh
   *** GEOMETRY OPTIMIZATION CONVERGED AFTER 221 ITERATIONS ***

 final structure:
================
108
 xtb: 6.7.1 (edcfbbe)
C            0.69106012655250       -1.42983712920013       -0.90764843577238
C            1.09915686256940       -0.95603817237924       -2.29707688554219
C            1.17029225266423       -2.09078506823618       -3.31966844830269
C           -0.13325835969831       -2.86429431838019       -3.52996178939493
C           -1.34946783919383       -2.00755204458691       -3.88840438853957
C           -1.17556044361225       -1.11956438179802       -5.12303647205291
C           -0.85745696417850       -1.85970667249731       -6.42383763764851
C           -1.87461358498951       -2.93081499686427       -6.81971491391045
C           -3.28909738264333       -2.38079236390588       -6.99239461084928
C           -4.26506583916986       -3.38999362736596       -7.60142836584719
C           -4.30983622662421       -4.72058458383577       -6.84465604726632
C           -4.63788438339954       -4.54937493506214       -5.38196629777129
O           -5.33254426890129       -3.63185126890022       -4.95086638789867
N           -4.15041709881116       -5.46065022767151       -4.52812246299804
C           -3.24750870519120       -6.56237412772286       -4.78825139907312
C           -3.08343405498875       -7.41824645088152       -3.53249616091267
C           -1.82068243076638       -8.28293266942048       -3.58536326567220
C           -0.55253170179925       -7.48525752479660       -3.27138131649995
C           -0.39161174143980       -7.21235875159926       -1.76995867114415
C            0.12195201076629       -8.48931281220118       -1.08813860361227
O            1.18694072840482       -8.98804209286663       -1.32355201534920
O           -0.76596706232656       -8.94500246857595       -0.20765669351659
C           -0.42764237555899      -10.14334341308732        0.50657034652243
C           -0.76388145667508      -11.38426218330857       -0.30517794618828
N            0.54066400829182       -6.12699898700517       -1.57529804446667
C            0.83302595754266       -5.43805440464749       -0.43877592474619
O            1.68493965498697       -4.57493585214887       -0.47065095258730
C            0.06072692974997       -5.76187622882242        0.82500831055424
C           -0.49688304010296       -4.48125794662458        1.45235566691051
C           -1.71958104195399       -3.93927111918076        0.71017635511939
C           -2.99825517653086       -4.72329994059892        1.00886475700772
C           -4.25972747971526       -4.03193156782799        0.48697649042448
C           -4.38060370434887       -4.07004897770775       -1.03577647104423
C           -5.70434049732972       -3.49997983058915       -1.55410690512334
C           -5.95721240529078       -2.03285083679876       -1.19717255434662
C           -4.89726442437547       -1.05865282432721       -1.71308393936855
C           -4.83570191365271       -0.96998647155055       -3.24017056305668
N           -6.06217640786393       -0.44724559960330       -3.79729569953361
C           -6.92771513285134       -1.14818341910692       -4.57596751160983
C           -7.96752445830714       -0.31898767596863       -4.86944437544292
N           -7.71920454215144        0.87544892963739       -4.26080033851330
C           -6.55838520824692        0.77284626098722       -3.61759610148673
C           -8.56717067391878        2.03484309594668       -4.32212940331491
H           -0.35945876608751       -1.71117172295954       -0.88198252556297
H            0.84599276206469       -0.63914131653608       -0.17695394865827
H            1.28491406746763       -2.29255528583737       -0.61761853069187
H            0.41216196761510       -0.17819236994859       -2.64004667551766
H            2.09150024876911       -0.50464870649972       -2.23614394810688
H            1.50903018126660       -1.68231921531993       -4.27417045040570
H            1.92455330542423       -2.80327608340604       -2.97985292336166
H            0.03350908860795       -3.60087022451318       -4.31982860652372
H           -0.36111585216761       -3.41721404686859       -2.61580842542000
H           -2.20767317827517       -2.67007832394247       -4.03561938608668
H           -1.58463333971427       -1.36157669651233       -3.03892464977389
H           -2.09071276884611       -0.53682716818405       -5.26283555514602
H           -0.37067653913775       -0.40767558372415       -4.93614006298663
H           -0.79360991283589       -1.12009153320074       -7.22559208056549
H            0.12367894773834       -2.32913509274355       -6.33877638565278
H           -1.54992962281152       -3.37962073296309       -7.76158907428967
H           -1.87567289168925       -3.71465335315943       -6.06080132558366
H           -3.67691475067721       -2.06314577125819       -6.02385934219471
H           -3.25333162903960       -1.50261506844305       -7.64103661201483
H           -5.26376259479831       -2.94864623080331       -7.61026792165431
H           -3.97959866672948       -3.59693400511001       -8.63408617938482
H           -5.09123827302591       -5.35249671367553       -7.27713114104118
H           -3.36215377384396       -5.24271738821784       -6.95844606765290
H           -4.40497198656988       -5.31770892843537       -3.55919746003153
H           -3.63492380551695       -7.17746489917948       -5.60583838681607
H           -2.27071597227074       -6.16652585998284       -5.09364789877231
H           -3.02694745225117       -6.76292883280941       -2.66080999105412
H           -3.96214598650880       -8.05353549796618       -3.41440564179901
H           -1.91215127803105       -9.09900764456208       -2.86772404639102
H           -1.73399364301682       -8.72769660641862       -4.57765456372222
H            0.32622165180513       -8.03767552096926       -3.60947551024453
H           -0.57207185124176       -6.52801691549237       -3.79585662009948
H           -1.35600479617616       -6.94797552764131       -1.32411015975941
H            0.64050908612825      -10.11985840196212        0.74117500965198
H           -1.01495867173315      -10.09800206881704        1.42523573147916
H           -0.16830586728529      -11.40858800145194       -1.21461160297123
H           -0.54016954688564      -12.26985193066118        0.28155108924611
H           -1.81911153386712      -11.39259320782234       -0.56852396522173
H            1.21134321109007       -5.98029107078625       -2.31857718037306
H           -0.72816519894181       -6.49075177097794        0.65872852227183
H            0.78757349995342       -6.20215582561790        1.51239480333461
H           -0.76151477065716       -4.66873325770913        2.49431155175849
H            0.29569150415878       -3.73151081934682        1.43412629322990
H           -1.87419046310913       -2.90223814213602        1.01775851246826
H           -1.51235014928856       -3.94182337948998       -0.36213605016782
H           -2.93654264033984       -5.72960184917290        0.58863364737312
H           -3.09069477543180       -4.82806481838506        2.09197256891761
H           -5.13559118387707       -4.52498730689563        0.91537874906856
H           -4.25605108948181       -2.99838942974603        0.83671777509421
H           -3.54010537630357       -3.54299638203439       -1.49055866539849
H           -4.32037072838529       -5.11724842705973       -1.34805439164806
H           -5.74737346190693       -3.61879192111577       -2.63876957539354
H           -6.52315658128764       -4.08730266038738       -1.13273596890364
H           -6.93698134183511       -1.74855378170994       -1.59130886341445
H           -6.00953830573667       -1.93268099361605       -0.11281576704892
H           -5.09511749473866       -0.06672922985183       -1.30037863117431
H           -3.91444209996636       -1.36629089055811       -1.35892378259860
H           -4.00826068357204       -0.32010412727504       -3.53617049557143
H           -4.68867695694232       -1.95921722654357       -3.67675499404049
H           -6.71884006311771       -2.16168544464631       -4.86742610570737
H           -8.84726860666962       -0.49134098182727       -5.45422894299653
H           -6.09562181541087        1.55759411568120       -3.05187536250537
H           -8.15469770371713        2.82882672561688       -3.70383292485841
H           -8.64581926643267        2.38886655526885       -5.35085523884425
H           -9.56680431736751        1.78627049923242       -3.96469757490710

          :  Hamiltonian                  GFN2-xTB          :
         :: total energy            -135.816936891856 Eh    ::
         :: gradient norm              0.000345872396 Eh/a0 ::
         :: HOMO-LUMO gap              1.845827305392 eV    ::
         :: SCC energy              -137.637444954771 Eh    ::
         :: -> dispersion             -0.110525787569 Eh    ::
         :: repulsion energy           1.820508062914 Eh    ::

    * Orbital Energies and Occupations

         #    Occupation            Energy/Eh            Energy/eV
      -------------------------------------------------------------
         1        2.0000           -0.8711661             -23.7056
       ...           ...                  ...                  ...
       112        2.0000           -0.4968502             -13.5200
       113        2.0000           -0.4961992             -13.5023
       114        2.0000           -0.4942631             -13.4496
       115        2.0000           -0.4917259             -13.3805
       116        2.0000           -0.4915404             -13.3755
       117        2.0000           -0.4893025             -13.3146
       118        2.0000           -0.4862881             -13.2326
       119        2.0000           -0.4837014             -13.1622
       120        2.0000           -0.4757250             -12.9451
       121        2.0000           -0.4738344             -12.8937
       122        2.0000           -0.4696502             -12.7798
       123        2.0000           -0.4575966             -12.4518
       124        2.0000           -0.4504442             -12.2572 (HOMO)
       125                         -0.3826113             -10.4114 (LUMO)
       126                         -0.3421132              -9.3094
       127                         -0.3039761              -8.2716
       128                         -0.3012151              -8.1965
       129                         -0.2667204              -7.2578
       130                         -0.1601136              -4.3569
       131                         -0.1021199              -2.7788
       132                         -0.0958111              -2.6072
       133                         -0.0828380              -2.2541
       134                         -0.0574498              -1.5633
       135                         -0.0420818              -1.1451
       ...                                ...                  ...
       237                          0.5976645              16.2633
      -------------------------------------------------------------
                  HL-Gap            0.0678329 Eh            1.8458 eV

     #   Z          covCN         q      C6AA      α(0)
     1   6 C        3.752    -0.107    22.610     6.781
     2   6 C        3.799    -0.050    21.480     6.599
     3   6 C        3.801    -0.060    21.661     6.626
     4   6 C        3.800    -0.052    21.517     6.605
     5   6 C        3.799    -0.052    21.512     6.604
     6   6 C        3.800    -0.057    21.600     6.617
     7   6 C        3.801    -0.060    21.646     6.624
     8   6 C        3.801    -0.057    21.599     6.617
     9   6 C        3.801    -0.059    21.637     6.623
    10   6 C        3.802    -0.053    21.527     6.606
    11   6 C        3.805    -0.087    22.160     6.702
    12   6 C        2.747     0.278    22.303     7.733
    13   8 O        0.861    -0.500    23.784     6.539
    14   7 N        2.689    -0.179    24.875     7.407
    15   6 C        3.735     0.001    20.648     6.485
    16   6 C        3.803    -0.069    21.812     6.649
    17   6 C        3.802    -0.066    21.758     6.641
    18   6 C        3.807    -0.071    21.850     6.654
    19   6 C        3.785     0.018    20.291     6.416
    20   6 C        2.718     0.350    21.057     7.512
    21   8 O        0.856    -0.389    21.468     6.212
    22   8 O        1.703    -0.268    18.444     5.798
    23   6 C        3.698     0.075    19.481     6.313
    24   6 C        3.750    -0.117    22.796     6.809
    25   7 N        2.691    -0.191    25.150     7.448
    26   6 C        2.747     0.276    22.336     7.739
    27   8 O        0.861    -0.431    22.307     6.332
    28   6 C        3.804    -0.087    22.160     6.702
    29   6 C        3.803    -0.059    21.625     6.620
    30   6 C        3.801    -0.057    21.600     6.617
    31   6 C        3.801    -0.060    21.655     6.625
    32   6 C        3.801    -0.062    21.694     6.631
    33   6 C        3.800    -0.057    21.596     6.617
    34   6 C        3.800    -0.071    21.868     6.658
    35   6 C        3.800    -0.063    21.704     6.633
    36   6 C        3.801    -0.068    21.802     6.648
    37   6 C        3.742    -0.035    21.273     6.580
    38   7 N        2.873     0.077    19.909     6.627
    39   6 C        3.070    -0.012    28.250     8.715
    40   6 C        3.074    -0.013    28.263     8.717
    41   7 N        2.867     0.068    20.055     6.651
    42   6 C        3.096     0.042    26.947     8.508
    43   6 C        3.692    -0.082    22.264     6.752
    44   1 H        0.925     0.020     2.740     2.588
    45   1 H        0.925     0.027     2.625     2.534
    46   1 H        0.925     0.065     2.142     2.289
    47   1 H        0.924     0.019     2.742     2.589
    48   1 H        0.924     0.032     2.559     2.502
    49   1 H        0.924     0.028     2.622     2.532
    50   1 H        0.924     0.045     2.389     2.417
    51   1 H        0.924     0.021     2.714     2.577
    52   1 H        0.924     0.030     2.591     2.517
    53   1 H        0.924     0.015     2.812     2.623
    54   1 H        0.924     0.022     2.699     2.569
    55   1 H        0.924     0.013     2.840     2.635
    56   1 H        0.924     0.040     2.444     2.445
    57   1 H        0.924     0.031     2.570     2.507
    58   1 H        0.924     0.039     2.456     2.451
    59   1 H        0.924     0.033     2.548     2.496
    60   1 H        0.924     0.026     2.649     2.545
    61   1 H        0.924     0.032     2.565     2.504
    62   1 H        0.924     0.033     2.550     2.497
    63   1 H        0.924     0.040     2.450     2.448
    64   1 H        0.924     0.041     2.439     2.442
    65   1 H        0.924     0.062     2.179     2.308
    66   1 H        0.925     0.054     2.276     2.359
    67   1 H        0.860     0.190     1.158     1.686
    68   1 H        0.924     0.056     2.248     2.345
    69   1 H        0.924     0.052     2.291     2.367
    70   1 H        0.924     0.046     2.367     2.406
    71   1 H        0.924     0.050     2.317     2.380
    72   1 H        0.924     0.051     2.311     2.377
    73   1 H        0.924     0.052     2.298     2.370
    74   1 H        0.924     0.064     2.151     2.294
    75   1 H        0.924     0.055     2.264     2.353
    76   1 H        0.924     0.061     2.186     2.312
    77   1 H        0.924     0.065     2.142     2.289
    78   1 H        0.924     0.063     2.163     2.300
    79   1 H        0.925     0.062     2.178     2.308
    80   1 H        0.925     0.060     2.194     2.316
    81   1 H        0.925     0.052     2.294     2.368
    82   1 H        0.860     0.195     1.133     1.667
    83   1 H        0.925     0.042     2.424     2.435
    84   1 H        0.924     0.063     2.167     2.302
    85   1 H        0.924     0.039     2.458     2.452
    86   1 H        0.924     0.062     2.174     2.306
    87   1 H        0.924     0.034     2.537     2.491
    88   1 H        0.924     0.027     2.630     2.536
    89   1 H        0.924     0.026     2.641     2.542
    90   1 H        0.924     0.038     2.470     2.458
    91   1 H        0.924     0.034     2.525     2.485
    92   1 H        0.924     0.033     2.539     2.492
    93   1 H        0.924     0.032     2.564     2.504
    94   1 H        0.924     0.022     2.705     2.572
    95   1 H        0.924     0.049     2.327     2.385
    96   1 H        0.924     0.039     2.465     2.455
    97   1 H        0.924     0.024     2.678     2.559
    98   1 H        0.924     0.051     2.304     2.374
    99   1 H        0.924     0.040     2.449     2.447
   100   1 H        0.925     0.074     2.043     2.235
   101   1 H        0.924     0.077     2.012     2.218
   102   1 H        0.924     0.121     1.606     1.982
   103   1 H        0.926     0.151     1.384     1.840
   104   1 H        0.926     0.100     1.787     2.090
   105   1 H        0.926     0.104     1.749     2.068
   106   1 H        0.925     0.094     1.841     2.122
   107   1 H        0.924     0.101     1.774     2.083
   108   1 H        0.924     0.101     1.773     2.082

Wiberg/Mayer (AO) data.
largest (>0.10) Wiberg bond orders for each atom

     #   Z sym  total        # sym  WBO       # sym  WBO       # sym  WBO
 ---------------------------------------------------------------------------
     1   6 C    3.995 --     2 C    1.020    45 H    0.988    44 H    0.986
                            46 H    0.978
     2   6 C    3.998 --     1 C    1.020     3 C    1.008    48 H    0.978
                            47 H    0.976
     3   6 C    3.996 --     2 C    1.008     4 C    1.007    49 H    0.976
                            50 H    0.976
     4   6 C    3.998 --     3 C    1.007     5 C    1.007    51 H    0.976
                            52 H    0.975
     5   6 C    3.999 --     4 C    1.007     6 C    1.007    54 H    0.975
                            53 H    0.974
     6   6 C    3.997 --     7 C    1.008     5 C    1.007    55 H    0.975
                            56 H    0.974
     7   6 C    3.996 --     6 C    1.008     8 C    1.007    57 H    0.977
                            58 H    0.975
     8   6 C    3.998 --     9 C    1.009     7 C    1.007    59 H    0.977
                            60 H    0.973
     9   6 C    3.997 --     8 C    1.009    10 C    1.007    62 H    0.976
                            61 H    0.974
    10   6 C    3.995 --     9 C    1.007    11 C    1.001    63 H    0.978
                            64 H    0.977
    11   6 C    3.995 --    10 C    1.001    12 C    0.984    66 H    0.965
                            65 H    0.947
    12   6 C    3.943 --    13 O    1.592    14 N    1.300    11 C    0.984
    13   8 O    1.940 --    12 C    1.592    14 N    0.187
    14   7 N    3.462 --    12 C    1.300    15 C    0.991    67 H    0.920
                            13 O    0.187
    15   6 C    3.968 --    16 C    1.006    14 N    0.991    68 H    0.968
                            69 H    0.957
    16   6 C    3.994 --    15 C    1.006    17 C    1.006    71 H    0.978
                            70 H    0.966
    17   6 C    3.993 --    18 C    1.008    16 C    1.006    73 H    0.975
                            72 H    0.975
    18   6 C    3.990 --    17 C    1.008    19 C    0.980    74 H    0.973
                            75 H    0.967
    19   6 C    3.976 --    25 N    0.992    18 C    0.980    76 H    0.950
                            20 C    0.920
    20   6 C    3.920 --    21 O    1.771    22 O    1.150    19 C    0.920
    21   8 O    2.064 --    20 C    1.771    22 O    0.182
    22   8 O    2.316 --    20 C    1.150    23 C    0.924    21 O    0.182
    23   6 C    3.917 --    24 C    1.014    78 H    0.972    77 H    0.969
                            22 O    0.924
    24   6 C    3.990 --    23 C    1.014    81 H    0.986    79 H    0.984
                            80 H    0.981
    25   7 N    3.413 --    26 C    1.219    19 C    0.992    82 H    0.927
                            27 O    0.186
    26   6 C    3.944 --    27 O    1.694    25 N    1.219    28 C    0.974
    27   8 O    2.010 --    26 C    1.694    25 N    0.186
    28   6 C    3.996 --    29 C    0.996    26 C    0.974    83 H    0.970
                            84 H    0.952
    29   6 C    3.993 --    30 C    1.007    28 C    0.996    85 H    0.976
                            86 H    0.973
    30   6 C    3.998 --    31 C    1.008    29 C    1.007    87 H    0.976
                            88 H    0.974
    31   6 C    3.996 --    30 C    1.008    32 C    1.006    90 H    0.976
                            89 H    0.975
    32   6 C    3.997 --    33 C    1.008    31 C    1.006    91 H    0.977
                            92 H    0.974
    33   6 C    3.997 --    32 C    1.008    34 C    1.007    93 H    0.973
                            94 H    0.970
    34   6 C    3.994 --    35 C    1.007    33 C    1.007    96 H    0.976
                            95 H    0.966
    35   6 C    3.995 --    36 C    1.008    34 C    1.007    97 H    0.977
                            98 H    0.972
    36   6 C    3.987 --    35 C    1.008    37 C    0.988    99 H    0.975
                           100 H    0.965
    37   6 C    3.929 --    36 C    0.988    38 N    0.965   101 H    0.958
                           102 H    0.947
    38   7 N    3.725 --    42 C    1.366    39 C    1.238    37 C    0.965
    39   6 C    3.937 --    40 C    1.588    38 N    1.238   103 H    0.935
    40   6 C    3.946 --    39 C    1.588    41 N    1.221   104 H    0.963
    41   7 N    3.714 --    42 C    1.354    40 C    1.221    43 C    0.993
    42   6 C    3.948 --    38 N    1.366    41 N    1.354   105 H    0.955
    43   6 C    3.940 --    41 N    0.993   106 H    0.977   108 H    0.965
                           107 H    0.964
    44   1 H    1.000 --     1 C    0.986
    45   1 H    0.999 --     1 C    0.988
    46   1 H    0.996 --     1 C    0.978
    47   1 H    0.999 --     2 C    0.976
    48   1 H    0.999 --     2 C    0.978
    49   1 H    0.999 --     3 C    0.976
    50   1 H    0.998 --     3 C    0.976
    51   1 H    0.999 --     4 C    0.976
    52   1 H    0.999 --     4 C    0.975
    53   1 H    1.000 --     5 C    0.974
    54   1 H    0.999 --     5 C    0.975
    55   1 H    1.000 --     6 C    0.975
    56   1 H    0.998 --     6 C    0.974
    57   1 H    0.999 --     7 C    0.977
    58   1 H    0.998 --     7 C    0.975
    59   1 H    0.999 --     8 C    0.977
    60   1 H    0.999 --     8 C    0.973
    61   1 H    0.999 --     9 C    0.974
    62   1 H    0.999 --     9 C    0.976
    63   1 H    0.998 --    10 C    0.978
    64   1 H    0.998 --    10 C    0.977
    65   1 H    0.996 --    11 C    0.947
    66   1 H    0.997 --    11 C    0.965
    67   1 H    0.963 --    14 N    0.920
    68   1 H    0.997 --    15 C    0.968
    69   1 H    0.997 --    15 C    0.957
    70   1 H    0.998 --    16 C    0.966
    71   1 H    0.997 --    16 C    0.978
    72   1 H    0.997 --    17 C    0.975
    73   1 H    0.997 --    17 C    0.975
    74   1 H    0.996 --    18 C    0.973
    75   1 H    0.996 --    18 C    0.967
    76   1 H    0.996 --    19 C    0.950
    77   1 H    0.996 --    23 C    0.969
    78   1 H    0.996 --    23 C    0.972
    79   1 H    0.996 --    24 C    0.984
    80   1 H    0.996 --    24 C    0.981
    81   1 H    0.997 --    24 C    0.986
    82   1 H    0.962 --    25 N    0.927
    83   1 H    0.998 --    28 C    0.970
    84   1 H    0.996 --    28 C    0.952
    85   1 H    0.998 --    29 C    0.976
    86   1 H    0.996 --    29 C    0.973
    87   1 H    0.999 --    30 C    0.976
    88   1 H    0.999 --    30 C    0.974
    89   1 H    0.999 --    31 C    0.975
    90   1 H    0.998 --    31 C    0.976
    91   1 H    0.999 --    32 C    0.977
    92   1 H    0.999 --    32 C    0.974
    93   1 H    0.999 --    33 C    0.973
    94   1 H    0.999 --    33 C    0.970
    95   1 H    0.997 --    34 C    0.966
    96   1 H    0.998 --    34 C    0.976
    97   1 H    0.999 --    35 C    0.977
    98   1 H    0.997 --    35 C    0.972
    99   1 H    0.998 --    36 C    0.975
   100   1 H    0.994 --    36 C    0.965
   101   1 H    0.994 --    37 C    0.958
   102   1 H    0.985 --    37 C    0.947
   103   1 H    0.977 --    39 C    0.935
   104   1 H    0.990 --    40 C    0.963
   105   1 H    0.989 --    42 C    0.955
   106   1 H    0.991 --    43 C    0.977
   107   1 H    0.989 --    43 C    0.964
   108   1 H    0.989 --    43 C    0.965
 ---------------------------------------------------------------------------

molecular dipole:
                 x           y           z       tot (Debye)
 q only:      -12.679      -3.202      -7.363
   full:      -12.728      -3.388      -7.384      38.381

           -------------------------------------------------
          | TOTAL ENERGY             -135.816936891856 Eh   |
          | GRADIENT NORM               0.000345872396 Eh/α |
          | HOMO-LUMO GAP               1.845827305392 eV   |
           -------------------------------------------------

 * finished run on 2024/12/20 at 06:59:47.691
