   * xtb version 6.7.1 (edcfbbe) compiled by 'conda@3ef47c1a292c' on 2024-11-25

   ID    Z sym.   atoms
    1    6 C      1-5, 7, 9-12
    2    7 N      6, 8
    3    1 H      13-29

          program call               : xtb C0828.xyz --opt --namespace C0828 --charge +1
          :  Hamiltonian                  GFN2-xTB          :
 * total energy  :   -35.5750532 Eh     change       -0.6071588E-10 Eh
 * total energy  :   -35.5815422 Eh     change       -0.6488975E-02 Eh
 * total energy  :   -35.5829399 Eh     change       -0.1397665E-02 Eh
 * total energy  :   -35.5831848 Eh     change       -0.2449405E-03 Eh
 * total energy  :   -35.5833661 Eh     change       -0.1813362E-03 Eh
 * total energy  :   -35.5834354 Eh     change       -0.6926762E-04 Eh
 * total energy  :   -35.5834833 Eh     change       -0.4784164E-04 Eh
 * total energy  :   -35.5835171 Eh     change       -0.3385641E-04 Eh
 * total energy  :   -35.5835452 Eh     change       -0.2811683E-04 Eh
 * total energy  :   -35.5835375 Eh     change        0.7775581E-05 Eh
 * total energy  :   -35.5931185 Eh     change       -0.1152357E-03 Eh
 * total energy  :   -35.5932248 Eh     change       -0.1062484E-03 Eh
 * total energy  :   -35.5932555 Eh     change       -0.3066329E-04 Eh
 * total energy  :   -35.5932796 Eh     change       -0.2410993E-04 Eh
 * total energy  :   -35.5932978 Eh     change       -0.1822748E-04 Eh
 * total energy  :   -35.5933300 Eh     change       -0.3223117E-04 Eh
 * total energy  :   -35.5933445 Eh     change       -0.1450443E-04 Eh
 * total energy  :   -35.5933602 Eh     change       -0.1571892E-04 Eh
 * total energy  :   -35.5933636 Eh     change       -0.3368112E-05 Eh
   *** GEOMETRY OPTIMIZATION CONVERGED AFTER 51 ITERATIONS ***

 final structure:
================
29
 xtb: 6.7.1 (edcfbbe)
C            0.94259205101432        0.47101855444547        0.33465427907290
C           -0.45491617898436        1.02612831586726        0.03095936507426
C           -1.34648282877180       -0.21285364704778        0.06194747272554
C           -0.48906204379078       -1.31520357146890       -0.57504897210661
C            0.97614825799952       -0.85588179781669       -0.43104578184716
N            1.09854852229267        0.28660126643695        1.77232696863645
C            1.51107887378683        1.21688292538255        2.64214943759123
N            1.45938664307573        0.69627443944834        3.87586673992022
C            0.99928658026187       -0.58410263882354        3.78787949146672
C            0.76975147295334       -0.83839349384865        2.47410346372218
C            1.82489785044258        1.38077487319905        5.08643906138608
C            1.94593671460111        2.60019668849049        2.36311524159149
H            1.73996481878426        1.14000226338275        0.00570533622486
H           -0.76691956745638        1.79368172410632        0.73802134090239
H           -0.44715406958866        1.45818004785357       -0.96880339129581
H           -2.27555726709296       -0.05559876224661       -0.47945388725128
H           -1.60287060506741       -0.46407880358208        1.09253491583642
H           -0.74037698586577       -1.42399368973265       -1.62788249640637
H           -0.66526749197846       -2.27975033116957       -0.10223748502044
H            1.40788162933175       -0.67148446045924       -1.41352002125090
H            1.60827257993724       -1.59259315974266        0.06175158691740
H            0.86858725916411       -1.21134389435765        4.64517940110806
H            0.40231351036416       -1.72822075757970        2.00963545466389
H            2.87596854834824        1.67123475999181        5.06004986636295
H            1.21850598990742        2.27829520993895        5.21507965154948
H            1.66309993753041        0.72040553491369        5.93481037219305
H            1.96654052904604        2.80900107215032        1.29869862853379
H            1.26674739662430        3.31047933668634        2.83630180292718
H            2.94034787313161        2.77548199558224        2.77384215677023

          :  Hamiltonian                  GFN2-xTB          :
         :: total energy             -35.593363612720 Eh    ::
         :: gradient norm              0.000425452252 Eh/a0 ::
         :: HOMO-LUMO gap              4.077166391452 eV    ::
         :: SCC energy               -36.130299230107 Eh    ::
         :: -> dispersion             -0.023856634892 Eh    ::
         :: repulsion energy           0.536935617387 Eh    ::

    * Orbital Energies and Occupations

         #    Occupation            Energy/Eh            Energy/eV
      -------------------------------------------------------------
         1        2.0000           -0.8832558             -24.0346
       ...           ...                  ...                  ...
        21        2.0000           -0.6459773             -17.5779
        22        2.0000           -0.6353984             -17.2901
        23        2.0000           -0.6333713             -17.2349
        24        2.0000           -0.6296595             -17.1339
        25        2.0000           -0.6205787             -16.8868
        26        2.0000           -0.6054955             -16.4764
        27        2.0000           -0.5881559             -16.0045
        28        2.0000           -0.5796607             -15.7734
        29        2.0000           -0.5767877             -15.6952
        30        2.0000           -0.5696260             -15.5003
        31        2.0000           -0.5693678             -15.4933
        32        2.0000           -0.5627900             -15.3143
        33        2.0000           -0.5407496             -14.7145 (HOMO)
        34                         -0.3909165             -10.6374 (LUMO)
        35                         -0.3569670              -9.7136
        36                         -0.1839470              -5.0055
        37                         -0.1292037              -3.5158
        38                         -0.0854320              -2.3247
        39                         -0.0720962              -1.9618
        40                         -0.0659000              -1.7932
        41                         -0.0586265              -1.5953
        42                         -0.0303686              -0.8264
        43                         -0.0228863              -0.6228
        44                         -0.0151318              -0.4118
       ...                                ...                  ...
        65                          0.4810546              13.0902
      -------------------------------------------------------------
                  HL-Gap            0.1498331 Eh            4.0772 eV

     #   Z          covCN         q      C6AA      α(0)
     1   6 C        3.810     0.026    20.133     6.387
     2   6 C        3.829    -0.069    21.790     6.642
     3   6 C        3.821    -0.065    21.732     6.634
     4   6 C        3.817    -0.068    21.785     6.643
     5   6 C        3.821    -0.073    21.879     6.657
     6   7 N        2.867     0.037    20.595     6.740
     7   6 C        3.109     0.102    25.597     8.289
     8   7 N        2.871     0.045    20.449     6.716
     9   6 C        3.047    -0.013    28.303     8.725
    10   6 C        3.056    -0.007    28.142     8.700
    11   6 C        3.692    -0.079    22.207     6.743
    12   6 C        3.755    -0.135    23.161     6.862
    13   1 H        0.924     0.063     2.160     2.299
    14   1 H        0.925     0.045     2.378     2.412
    15   1 H        0.925     0.071     2.073     2.252
    16   1 H        0.925     0.061     2.182     2.310
    17   1 H        0.924     0.038     2.477     2.461
    18   1 H        0.925     0.060     2.198     2.318
    19   1 H        0.925     0.047     2.358     2.402
    20   1 H        0.925     0.068     2.108     2.271
    21   1 H        0.925     0.054     2.273     2.358
    22   1 H        0.927     0.099     1.793     2.094
    23   1 H        0.927     0.110     1.697     2.037
    24   1 H        0.924     0.095     1.827     2.114
    25   1 H        0.924     0.095     1.827     2.114
    26   1 H        0.925     0.102     1.768     2.079
    27   1 H        0.925     0.092     1.859     2.132
    28   1 H        0.924     0.099     1.791     2.093
    29   1 H        0.925     0.098     1.801     2.099

Wiberg/Mayer (AO) data.
largest (>0.10) Wiberg bond orders for each atom

     #   Z sym  total        # sym  WBO       # sym  WBO       # sym  WBO
 ---------------------------------------------------------------------------
     1   6 C    3.941 --     5 C    0.991     2 C    0.974    13 H    0.957
                             6 N    0.948
     2   6 C    3.988 --     3 C    1.008    14 H    0.976     1 C    0.974
                            15 H    0.971
     3   6 C    3.994 --     2 C    1.008     4 C    1.005    17 H    0.979
                            16 H    0.977
     4   6 C    3.992 --     3 C    1.005     5 C    1.000    18 H    0.981
                            19 H    0.980
     5   6 C    3.987 --     4 C    1.000     1 C    0.991    20 H    0.975
                            21 H    0.974
     6   7 N    3.692 --     7 C    1.332    10 C    1.212     1 C    0.948
     7   6 C    3.953 --     6 N    1.332     8 N    1.320    12 C    1.048
     8   7 N    3.694 --     7 C    1.320     9 C    1.210    11 C    0.993
     9   6 C    3.948 --    10 C    1.603     8 N    1.210    22 H    0.962
    10   6 C    3.949 --     9 C    1.603     6 N    1.212    23 H    0.957
    11   6 C    3.940 --     8 N    0.993    26 H    0.975    25 H    0.965
                            24 H    0.964
    12   6 C    3.979 --     7 C    1.048    27 H    0.970    29 H    0.953
                            28 H    0.948
    13   1 H    0.996 --     1 C    0.957
    14   1 H    0.998 --     2 C    0.976
    15   1 H    0.994 --     2 C    0.971
    16   1 H    0.996 --     3 C    0.977
    17   1 H    0.999 --     3 C    0.979
    18   1 H    0.996 --     4 C    0.981
    19   1 H    0.998 --     4 C    0.980
    20   1 H    0.995 --     5 C    0.975
    21   1 H    0.997 --     5 C    0.974
    22   1 H    0.990 --     9 C    0.962
    23   1 H    0.988 --    10 C    0.957
    24   1 H    0.991 --    11 C    0.964
    25   1 H    0.991 --    11 C    0.965
    26   1 H    0.989 --    11 C    0.975
    27   1 H    0.991 --    12 C    0.970
    28   1 H    0.990 --    12 C    0.948
    29   1 H    0.990 --    12 C    0.953
 ---------------------------------------------------------------------------

molecular dipole:
                 x           y           z       tot (Debye)
 q only:        2.221       1.397       4.751
   full:        2.308       1.448       4.846      14.131

           -------------------------------------------------
          | TOTAL ENERGY              -35.593363612720 Eh   |
          | GRADIENT NORM               0.000425452252 Eh/α |
          | HOMO-LUMO GAP               4.077166391452 eV   |
           -------------------------------------------------

 * finished run on 2024/12/20 at 06:59:54.282
