   * xtb version 6.7.1 (edcfbbe) compiled by 'conda@3ef47c1a292c' on 2024-11-25

   ID    Z sym.   atoms
    1    8 O      1, 10
    2    6 C      2, 3, 5-9
    3    7 N      4
    4    1 H      11-20

          program call               : xtb C0823.xyz --opt --namespace C0823 --charge +1
          :  Hamiltonian                  GFN2-xTB          :
 * total energy  :   -30.7237043 Eh     change       -0.3246363E-09 Eh
 * total energy  :   -30.7275908 Eh     change       -0.3886534E-02 Eh
 * total energy  :   -30.7286586 Eh     change       -0.1067822E-02 Eh
 * total energy  :   -30.7287796 Eh     change       -0.1210195E-03 Eh
 * total energy  :   -30.7288596 Eh     change       -0.7995270E-04 Eh
 * total energy  :   -30.7289001 Eh     change       -0.4053655E-04 Eh
 * total energy  :   -30.7289402 Eh     change       -0.4006216E-04 Eh
 * total energy  :   -30.7289593 Eh     change       -0.1913397E-04 Eh
 * total energy  :   -30.7289670 Eh     change       -0.7709810E-05 Eh
 * total energy  :   -30.7289738 Eh     change       -0.6770768E-05 Eh
 * total energy  :   -30.7289830 Eh     change       -0.9208299E-05 Eh
 * total energy  :   -30.7289890 Eh     change       -0.5956726E-05 Eh
 * total energy  :   -30.7289928 Eh     change       -0.3810613E-05 Eh
   *** GEOMETRY OPTIMIZATION CONVERGED AFTER 13 ITERATIONS ***

 final structure:
================
20
 xtb: 6.7.1 (edcfbbe)
O            1.27676365696027       -0.17497450158992        0.84708097344617
C            0.65305072453186       -1.43242823059698        0.79400308973397
C            1.11695924754173       -2.11955021418501       -0.50075146530597
N            2.56127466482822       -2.26680035990175       -0.48946933049137
C            3.31862662821473       -1.21005006042925       -0.78209147171784
C            4.69954005728394       -1.29233313383300       -0.70141698211856
C            5.29745138967965       -2.47655145654918       -0.32791280501881
C            4.48974419498850       -3.58743537014506       -0.02687678873779
C            3.10751654695430       -3.43019744898785       -0.11434735443510
O            5.07750428861105       -4.72036670271653        0.32461468201978
H            0.90750592615728        0.34897296730670        1.56573706716220
H            0.93036892260678       -2.04450052155697        1.66450625839276
H           -0.43883625616324       -1.34392884232900        0.75834706720905
H            0.63900277646320       -3.09429371214290       -0.59537629884807
H            0.83376317938735       -1.48971208862526       -1.34608265103028
H            2.81352604645623       -0.29773396333558       -1.05642026006746
H            5.29611334821938       -0.42578887093344       -0.93594815502731
H            6.36849810135646       -2.58243940016082       -0.25884447506453
H            2.43549204255544       -4.24648726864361        0.11294379138713
H            4.46503451336684       -5.44594082064453        0.51023510851206

          :  Hamiltonian                  GFN2-xTB          :
         :: total energy             -30.728992776957 Eh    ::
         :: gradient norm              0.000340432507 Eh/a0 ::
         :: HOMO-LUMO gap              2.938343437682 eV    ::
         :: SCC energy               -31.131622680318 Eh    ::
         :: -> dispersion             -0.014389540869 Eh    ::
         :: repulsion energy           0.402629903362 Eh    ::

    * Orbital Energies and Occupations

         #    Occupation            Energy/Eh            Energy/eV
      -------------------------------------------------------------
         1        2.0000           -0.8902570             -24.2251
       ...           ...                  ...                  ...
        15        2.0000           -0.7052883             -19.1919
        16        2.0000           -0.7000532             -19.0494
        17        2.0000           -0.6804182             -18.5151
        18        2.0000           -0.6779576             -18.4482
        19        2.0000           -0.6699661             -18.2307
        20        2.0000           -0.6570044             -17.8780
        21        2.0000           -0.6393184             -17.3967
        22        2.0000           -0.6352708             -17.2866
        23        2.0000           -0.6248434             -17.0029
        24        2.0000           -0.6155880             -16.7510
        25        2.0000           -0.6058459             -16.4859
        26        2.0000           -0.5804433             -15.7947
        27        2.0000           -0.5617092             -15.2849 (HOMO)
        28                         -0.4537270             -12.3465 (LUMO)
        29                         -0.4132311             -11.2446
        30                         -0.2983488              -8.1185
        31                         -0.1775516              -4.8314
        32                         -0.1071585              -2.9159
        33                         -0.0914271              -2.4879
        34                         -0.0664510              -1.8082
        35                         -0.0575264              -1.5654
        36                         -0.0357219              -0.9720
        37                         -0.0163276              -0.4443
        38                         -0.0144412              -0.3930
       ...                                ...                  ...
        50                          0.4577239              12.4553
      -------------------------------------------------------------
                  HL-Gap            0.1079821 Eh            2.9383 eV

     #   Z          covCN         q      C6AA      α(0)
     1   8 O        1.656    -0.436    21.561     6.268
     2   6 C        3.674     0.076    19.538     6.334
     3   6 C        3.762    -0.039    21.316     6.581
     4   7 N        2.750     0.122    19.165     6.502
     5   6 C        2.892     0.025    27.444     8.589
     6   6 C        2.914    -0.012    28.306     8.724
     7   6 C        2.923    -0.015    28.390     8.738
     8   6 C        2.839     0.177    24.189     8.060
     9   6 C        2.887    -0.022    28.545     8.759
    10   8 O        1.661    -0.316    19.297     5.930
    11   1 H        0.805     0.317     0.671     1.287
    12   1 H        0.923     0.047     2.359     2.402
    13   1 H        0.924     0.068     2.108     2.270
    14   1 H        0.925     0.094     1.842     2.122
    15   1 H        0.924     0.113     1.674     2.024
    16   1 H        0.926     0.131     1.527     1.932
    17   1 H        0.926     0.115     1.656     2.013
    18   1 H        0.926     0.122     1.600     1.978
    19   1 H        0.925     0.096     1.820     2.110
    20   1 H        0.805     0.338     0.617     1.234

Wiberg/Mayer (AO) data.
largest (>0.10) Wiberg bond orders for each atom

     #   Z sym  total        # sym  WBO       # sym  WBO       # sym  WBO
 ---------------------------------------------------------------------------
     1   8 O    1.958 --     2 C    1.012    11 H    0.883
     2   6 C    3.958 --     1 O    1.012     3 C    0.978    12 H    0.967
                            13 H    0.962
     3   6 C    3.942 --     2 C    0.978     4 N    0.971    14 H    0.965
                            15 H    0.957
     4   7 N    3.771 --     5 C    1.344     9 C    1.315     3 C    0.971
     5   6 C    3.951 --     6 C    1.411     4 N    1.344    16 H    0.949
     6   6 C    3.980 --     7 C    1.482     5 C    1.411    17 H    0.957
     7   6 C    3.975 --     6 C    1.482     8 C    1.301    18 H    0.956
     8   6 C    3.954 --     9 C    1.364     7 C    1.301    10 O    1.172
     9   6 C    3.960 --     8 C    1.364     4 N    1.315    19 H    0.954
    10   8 O    2.235 --     8 C    1.172    20 H    0.863
    11   1 H    0.899 --     1 O    0.883
    12   1 H    0.998 --     2 C    0.967
    13   1 H    0.994 --     2 C    0.962
    14   1 H    0.991 --     3 C    0.965
    15   1 H    0.987 --     3 C    0.957
    16   1 H    0.983 --     5 C    0.949
    17   1 H    0.987 --     6 C    0.957
    18   1 H    0.985 --     7 C    0.956
    19   1 H    0.991 --     9 C    0.954
    20   1 H    0.886 --    10 O    0.863
 ---------------------------------------------------------------------------

molecular dipole:
                 x           y           z       tot (Debye)
 q only:        5.255      -4.643      -0.256
   full:        4.871      -4.801      -0.062      17.385

           -------------------------------------------------
          | TOTAL ENERGY              -30.728992776957 Eh   |
          | GRADIENT NORM               0.000340432507 Eh/α |
          | HOMO-LUMO GAP               2.938343437682 eV   |
           -------------------------------------------------

 * finished run on 2024/12/20 at 06:59:19.158
