   * xtb version 6.7.1 (edcfbbe) compiled by 'conda@3ef47c1a292c' on 2024-11-25

   ID    Z sym.   atoms
    1    6 C      1-4, 6-15, 17-22
    2    7 N      5
    3    8 O      16
    4    1 H      23-56

          program call               : xtb C0829.xyz --opt --namespace C0829 --charge +1
          :  Hamiltonian                  GFN2-xTB          :
 * total energy  :   -65.6709424 Eh     change       -0.8298741E-08 Eh
 * total energy  :   -65.8525296 Eh     change       -0.1815872E+00 Eh
 * total energy  :   -66.0402378 Eh     change       -0.1877081E+00 Eh
 * total energy  :   -66.1983220 Eh     change       -0.1580843E+00 Eh
 * total energy  :   -66.3071929 Eh     change       -0.1088709E+00 Eh
 * total energy  :   -66.3985187 Eh     change       -0.9132577E-01 Eh
 * total energy  :   -66.4787304 Eh     change       -0.8021168E-01 Eh
 * total energy  :   -66.5460510 Eh     change       -0.6732061E-01 Eh
 * total energy  :   -66.6009090 Eh     change       -0.5485797E-01 Eh
 * total energy  :   -66.6358451 Eh     change       -0.3493610E-01 Eh
 * total energy  :   -66.7280766 Eh     change       -0.3134006E-04 Eh
 * total energy  :   -66.7280953 Eh     change       -0.1866624E-04 Eh
 * total energy  :   -66.7281071 Eh     change       -0.1185039E-04 Eh
 * total energy  :   -66.7281307 Eh     change       -0.2352155E-04 Eh
 * total energy  :   -66.7281543 Eh     change       -0.2363315E-04 Eh
 * total energy  :   -66.7281639 Eh     change       -0.9591882E-05 Eh
 * total energy  :   -66.7281770 Eh     change       -0.1310893E-04 Eh
 * total energy  :   -66.7281822 Eh     change       -0.5244571E-05 Eh
 * total energy  :   -66.7281868 Eh     change       -0.4541276E-05 Eh
   *** GEOMETRY OPTIMIZATION CONVERGED AFTER 73 ITERATIONS ***

 final structure:
================
56
 xtb: 6.7.1 (edcfbbe)
C            2.34162041595141       -0.65268857316172       -0.31878508143936
C           -0.72168694789378        1.72640773809796       -0.98829369913131
C           -1.15951585571305        2.08780640197801       -2.17879220823474
C           -1.05696967894116        2.48572784231747        0.28169294132621
N            0.29422549698801        2.80433715198539        0.87737643492838
C            1.20241855071650        2.03898699966507       -0.01029984042787
C            2.27336025789487        2.52479553969297       -0.64464082215408
C            2.83563646593961        1.89734560139032       -1.81484424551150
C            2.25735548986814        0.74789208889432       -2.26778853158409
C            1.34492888726495       -0.07024695142598       -1.35720295825007
C            0.43256056719112        0.85938889655281       -0.53039436352366
C            0.56628720909050       -1.26060656270254       -2.03372003973734
C           -0.46837249304874       -1.85085679035372       -1.06215052760113
C           -0.21272889609650       -0.85524709357320       -3.29260414591819
C            1.52303052214813       -2.40196132673646       -2.41568126502149
O            2.52051768759275        0.15718462481745       -3.43238240508564
C            4.00347993750301        2.68095170788771       -2.43284131085068
C            3.52768777953499        4.08734283125098       -2.83284364730002
C            5.11569472120810        2.77548461776099       -1.37334015278731
C            4.65519236368265        2.05999821193674       -3.67802919569928
C            0.53455224688307        4.25389665587810        0.84340420953837
C            0.41641413659137        2.32811072055581        2.26626367975362
H            1.84610614157172       -1.34427325796938        0.35604119779610
H            2.78687346589157        0.14281805352821        0.27243492668546
H            3.14473505139835       -1.17904445088848       -0.82306656427828
H           -1.90690493517444        2.85768871070187       -2.28020851988490
H           -0.82936526884159        1.62566022639640       -3.08715442029056
H           -1.61223478207470        3.40155835288763        0.08847553002489
H           -1.63038299091017        1.86843342381923        0.97588187291364
H            2.72360201096832        3.44775160502122       -0.32178722256468
H            0.07273664596590        0.24212434777602        0.29794767116579
H           -1.27315012701128       -1.14943831782869       -0.85357224277327
H           -0.91504599202519       -2.72628168620083       -1.52640837029223
H           -0.02300352399743       -2.17496100367467       -0.12490434312700
H            0.37008327493482       -0.22188851721821       -3.95105106867048
H           -0.47293517167140       -1.75090150048501       -3.85061924180592
H           -1.14341028579355       -0.36296541560870       -3.03035394054748
H            2.32931356479553       -2.05028046072156       -3.04918107883115
H            1.94033472446567       -2.88913298695377       -1.53992298845330
H            0.97051754888486       -3.15622476465614       -2.96977236564556
H            3.16266626514295        0.65677098334241       -3.95409733776377
H            3.22647012433613        4.68196316868749       -1.97514615310650
H            4.33214120791725        4.61958650135634       -3.33363556109428
H            2.68342085453581        4.02230225540193       -3.51659664666629
H            5.46419324201622        1.77987058053949       -1.10754309600704
H            5.95691489720756        3.33723274316560       -1.77060786809522
H            4.78987898684854        3.27288423826531       -0.46485584932411
H            4.99631093013937        1.04166889964340       -3.49816720746292
H            4.01099950966049        2.12032554175024       -4.55590645190644
H            5.54275069778288        2.64269543868083       -3.92013096036089
H           -0.22242778262274        4.76511547685756        1.43645681606474
H            1.51234885030042        4.48501402443376        1.26155270631090
H            0.49010727056233        4.60792505400126       -0.18512589344716
H           -0.31802804558220        2.82161286171344        2.90125901214083
H            0.26237659436983        1.25182319990771        2.30908246763775
H            1.41584818168098        2.54776634163417        2.63893036639275

          :  Hamiltonian                  GFN2-xTB          :
         :: total energy             -66.728186782639 Eh    ::
         :: gradient norm              0.000425906268 Eh/a0 ::
         :: HOMO-LUMO gap              2.747100145291 eV    ::
         :: SCC energy               -67.714509307653 Eh    ::
         :: -> dispersion             -0.061646669995 Eh    ::
         :: repulsion energy           0.986322525013 Eh    ::

    * Orbital Energies and Occupations

         #    Occupation            Energy/Eh            Energy/eV
      -------------------------------------------------------------
         1        2.0000           -0.8451607             -22.9980
       ...           ...                  ...                  ...
        50        2.0000           -0.5522633             -15.0278
        51        2.0000           -0.5477312             -14.9045
        52        2.0000           -0.5436917             -14.7946
        53        2.0000           -0.5379292             -14.6378
        54        2.0000           -0.5357963             -14.5798
        55        2.0000           -0.5341997             -14.5363
        56        2.0000           -0.5337223             -14.5233
        57        2.0000           -0.5294440             -14.4069
        58        2.0000           -0.5273502             -14.3499
        59        2.0000           -0.5168527             -14.0643
        60        2.0000           -0.5113084             -13.9134
        61        2.0000           -0.5063406             -13.7782
        62        2.0000           -0.4726346             -12.8610 (HOMO)
        63                         -0.3716805             -10.1139 (LUMO)
        64                         -0.3332942              -9.0694
        65                         -0.2763000              -7.5185
        66                         -0.2003555              -5.4519
        67                         -0.1586099              -4.3160
        68                         -0.1323712              -3.6020
        69                         -0.1144260              -3.1137
        70                         -0.1050872              -2.8596
        71                         -0.0869052              -2.3648
        72                         -0.0676912              -1.8420
        73                         -0.0582548              -1.5852
       ...                                ...                  ...
       122                          0.5490145              14.9394
      -------------------------------------------------------------
                  HL-Gap            0.1009541 Eh            2.7471 eV

     #   Z          covCN         q      C6AA      α(0)
     1   6 C        3.775    -0.118    22.791     6.802
     2   6 C        3.106     0.009    27.675     8.620
     3   6 C        2.838    -0.101    30.530     9.055
     4   6 C        3.821    -0.038    21.228     6.557
     5   7 N        3.635     0.119    19.204     6.509
     6   6 C        3.103    -0.009    28.103     8.687
     7   6 C        2.911    -0.041    29.019     8.833
     8   6 C        2.957    -0.059    29.456     8.902
     9   6 C        2.845     0.150    24.749     8.153
    10   6 C        3.900     0.013    20.308     6.406
    11   6 C        3.905    -0.034    21.113     6.531
    12   6 C        3.894     0.031    20.002     6.358
    13   6 C        3.764    -0.116    22.756     6.800
    14   6 C        3.763    -0.122    22.874     6.817
    15   6 C        3.762    -0.122    22.880     6.819
    16   8 O        1.660    -0.354    19.984     6.035
    17   6 C        3.901     0.029    20.025     6.361
    18   6 C        3.761    -0.114    22.719     6.795
    19   6 C        3.764    -0.114    22.724     6.795
    20   6 C        3.762    -0.122    22.886     6.819
    21   6 C        3.713    -0.083    22.225     6.736
    22   6 C        3.715    -0.082    22.205     6.733
    23   1 H        0.925     0.053     2.287     2.365
    24   1 H        0.925     0.039     2.456     2.451
    25   1 H        0.925     0.064     2.151     2.294
    26   1 H        0.926     0.059     2.205     2.322
    27   1 H        0.926     0.084     1.943     2.180
    28   1 H        0.925     0.084     1.939     2.178
    29   1 H        0.924     0.084     1.938     2.177
    30   1 H        0.926     0.056     2.251     2.346
    31   1 H        0.924     0.068     2.102     2.268
    32   1 H        0.925     0.030     2.586     2.515
    33   1 H        0.925     0.055     2.253     2.347
    34   1 H        0.925     0.034     2.537     2.491
    35   1 H        0.925     0.049     2.329     2.386
    36   1 H        0.925     0.052     2.300     2.371
    37   1 H        0.925     0.039     2.462     2.454
    38   1 H        0.925     0.057     2.235     2.338
    39   1 H        0.925     0.043     2.405     2.425
    40   1 H        0.925     0.048     2.346     2.395
    41   1 H        0.805     0.329     0.639     1.256
    42   1 H        0.925     0.033     2.541     2.493
    43   1 H        0.925     0.053     2.288     2.365
    44   1 H        0.925     0.036     2.503     2.474
    45   1 H        0.925     0.043     2.409     2.427
    46   1 H        0.925     0.052     2.295     2.369
    47   1 H        0.925     0.035     2.513     2.479
    48   1 H        0.925     0.047     2.363     2.404
    49   1 H        0.924     0.038     2.476     2.461
    50   1 H        0.925     0.061     2.186     2.312
    51   1 H        0.925     0.090     1.882     2.145
    52   1 H        0.925     0.092     1.862     2.134
    53   1 H        0.925     0.095     1.830     2.115
    54   1 H        0.925     0.088     1.896     2.154
    55   1 H        0.925     0.094     1.837     2.119
    56   1 H        0.925     0.092     1.861     2.134

Wiberg/Mayer (AO) data.
largest (>0.10) Wiberg bond orders for each atom

     #   Z sym  total        # sym  WBO       # sym  WBO       # sym  WBO
 ---------------------------------------------------------------------------
     1   6 C    3.989 --    24 H    0.982    25 H    0.980    23 H    0.974
                            10 C    0.967
     2   6 C    3.972 --     3 C    1.925     4 C    0.987    11 C    0.967
     3   6 C    3.985 --     2 C    1.925    26 H    0.968    27 H    0.960
     4   6 C    3.930 --     2 C    0.987    28 H    0.968    29 H    0.964
                             5 N    0.915
     5   7 N    3.800 --    21 C    0.967    22 C    0.960     4 C    0.915
                             6 C    0.893
     6   6 C    3.880 --     7 C    1.713    11 C    0.978     5 N    0.893
     7   6 C    3.986 --     6 C    1.713     8 C    1.162    30 H    0.949
     8   6 C    3.964 --     9 C    1.585     7 C    1.162    17 C    0.974
                            16 O    0.105
     9   6 C    3.937 --     8 C    1.585    16 O    1.156    10 C    0.978
    10   6 C    3.978 --     9 C    0.978     1 C    0.967    11 C    0.963
                            12 C    0.953
    11   6 C    3.985 --     6 C    0.978     2 C    0.967    10 C    0.963
                            31 H    0.935
    12   6 C    3.985 --    14 C    0.998    13 C    0.998    15 C    0.998
                            10 C    0.953
    13   6 C    3.994 --    12 C    0.998    32 H    0.983    33 H    0.982
                            34 H    0.980
    14   6 C    3.993 --    12 C    0.998    36 H    0.981    35 H    0.980
                            37 H    0.978
    15   6 C    3.991 --    12 C    0.998    39 H    0.983    40 H    0.982
                            38 H    0.980
    16   8 O    2.218 --     9 C    1.156    41 H    0.831     8 C    0.105
    17   6 C    3.989 --    20 C    0.998    18 C    0.990    19 C    0.988
                             8 C    0.974
    18   6 C    3.993 --    17 C    0.990    44 H    0.986    43 H    0.983
                            42 H    0.982
    19   6 C    3.993 --    17 C    0.988    45 H    0.986    46 H    0.981
                            47 H    0.980
    20   6 C    3.993 --    17 C    0.998    48 H    0.977    50 H    0.975
                            49 H    0.971
    21   6 C    3.937 --    53 H    0.976    51 H    0.975    52 H    0.974
                             5 N    0.967
    22   6 C    3.936 --    54 H    0.976    56 H    0.976    55 H    0.974
                             5 N    0.960
    23   1 H    0.997 --     1 C    0.974
    24   1 H    0.998 --     1 C    0.982
    25   1 H    0.995 --     1 C    0.980
    26   1 H    0.996 --     3 C    0.968
    27   1 H    0.993 --     3 C    0.960
    28   1 H    0.993 --     4 C    0.968
    29   1 H    0.993 --     4 C    0.964
    30   1 H    0.997 --     7 C    0.949
    31   1 H    0.995 --    11 C    0.935
    32   1 H    0.999 --    13 C    0.983
    33   1 H    0.996 --    13 C    0.982
    34   1 H    0.999 --    13 C    0.980
    35   1 H    0.998 --    14 C    0.980
    36   1 H    0.997 --    14 C    0.981
    37   1 H    0.998 --    14 C    0.978
    38   1 H    0.997 --    15 C    0.980
    39   1 H    0.998 --    15 C    0.983
    40   1 H    0.997 --    15 C    0.982
    41   1 H    0.892 --    16 O    0.831
    42   1 H    0.999 --    18 C    0.982
    43   1 H    0.997 --    18 C    0.983
    44   1 H    0.999 --    18 C    0.986
    45   1 H    0.998 --    19 C    0.986
    46   1 H    0.997 --    19 C    0.981
    47   1 H    0.999 --    19 C    0.980
    48   1 H    0.998 --    20 C    0.977
    49   1 H    0.999 --    20 C    0.971
    50   1 H    0.995 --    20 C    0.975
    51   1 H    0.991 --    21 C    0.975
    52   1 H    0.992 --    21 C    0.974
    53   1 H    0.991 --    21 C    0.976
    54   1 H    0.991 --    22 C    0.976
    55   1 H    0.991 --    22 C    0.974
    56   1 H    0.991 --    22 C    0.976
 ---------------------------------------------------------------------------

molecular dipole:
                 x           y           z       tot (Debye)
 q only:        1.738       4.406      -0.162
   full:        1.779       4.775       0.031      12.952

           -------------------------------------------------
          | TOTAL ENERGY              -66.728186782639 Eh   |
          | GRADIENT NORM               0.000425906268 Eh/α |
          | HOMO-LUMO GAP               2.747100145291 eV   |
           -------------------------------------------------

 * finished run on 2024/12/20 at 06:59:58.151
