   * xtb version 6.7.1 (edcfbbe) compiled by 'conda@3ef47c1a292c' on 2024-11-25

   ID    Z sym.   atoms
    1    6 C      1-6, 8-12
    2    7 N      7
    3    1 H      13-30

          program call               : xtb C0821.xyz --opt --namespace C0821 --charge +1
          :  Hamiltonian                  GFN2-xTB          :
 * total energy  :   -35.2525309 Eh     change       -0.2608616E-09 Eh
 * total energy  :   -35.2547629 Eh     change       -0.2231921E-02 Eh
 * total energy  :   -35.2551376 Eh     change       -0.3747108E-03 Eh
 * total energy  :   -35.2552067 Eh     change       -0.6913488E-04 Eh
 * total energy  :   -35.2552651 Eh     change       -0.5839215E-04 Eh
 * total energy  :   -35.2553017 Eh     change       -0.3658322E-04 Eh
 * total energy  :   -35.2553451 Eh     change       -0.4341144E-04 Eh
 * total energy  :   -35.2554108 Eh     change       -0.6569625E-04 Eh
 * total energy  :   -35.2554818 Eh     change       -0.7099717E-04 Eh
 * total energy  :   -35.2555316 Eh     change       -0.4982217E-04 Eh
 * total energy  :   -35.2556804 Eh     change       -0.8434113E-04 Eh
 * total energy  :   -35.2557179 Eh     change       -0.3746747E-04 Eh
 * total energy  :   -35.2557631 Eh     change       -0.4522497E-04 Eh
 * total energy  :   -35.2557952 Eh     change       -0.3205635E-04 Eh
 * total energy  :   -35.2558154 Eh     change       -0.2017804E-04 Eh
 * total energy  :   -35.2558328 Eh     change       -0.1742834E-04 Eh
 * total energy  :   -35.2558437 Eh     change       -0.1093293E-04 Eh
 * total energy  :   -35.2558513 Eh     change       -0.7548979E-05 Eh
 * total energy  :   -35.2558561 Eh     change       -0.4847720E-05 Eh
   *** GEOMETRY OPTIMIZATION CONVERGED AFTER 20 ITERATIONS ***

 final structure:
================
30
 xtb: 6.7.1 (edcfbbe)
C            1.09889119906657        0.22559172758356        0.00171090405101
C            0.43680962042689        0.93820694581284       -1.17144246759788
C            0.89298482382642        0.41257468954569       -2.53460375618561
C            0.63342199029759       -1.07835932459335       -2.77015559453649
C           -0.83075978565078       -1.50346958057701       -2.66809572341357
C           -1.73504292822180       -0.90451871086105       -3.75639368053970
N           -1.38028189448982       -1.43404203921519       -5.05975846333349
C           -0.50554512698782       -0.78303061971963       -5.83310387929791
C           -0.09185986814419       -1.30594042528698       -7.04219500317949
C           -0.59359971650407       -2.53109657595239       -7.45912195589343
C           -1.49966897853011       -3.19391690156530       -6.63955410813493
C           -1.87061365786574       -2.61903040053324       -5.44270982196025
H            0.76193367522879       -0.80491449787198        0.08811284859497
H            0.85484568201911        0.73497965683661        0.92990608923927
H            2.18014562632070        0.22863577649689       -0.11288688149848
H           -0.64921317646617        0.86569181508472       -1.07963651577746
H            0.69030213863863        1.99885675357719       -1.12554277754794
H            0.41561698977753        1.01378316613750       -3.31368158904414
H            1.96870692375038        0.57534729615491       -2.62348957958773
H            1.03623411123439       -1.36022570924563       -3.74838395639212
H            1.19349991674687       -1.64573533121536       -2.02728386551593
H           -0.89241759642734       -2.59300976701929       -2.71537544822411
H           -1.23085098471318       -1.19310135674084       -1.70401578962802
H           -2.77593489501908       -1.15633018409975       -3.54527944486996
H           -1.63215095502449        0.18073685916830       -3.76790137234042
H           -0.14481693595609        0.17146270534528       -5.48016104325071
H            0.61223004534722       -0.75721272828311       -7.64652752382322
H           -0.28786769170968       -2.95967631752438       -8.40040279708466
H           -1.91541219454918       -4.14663964396526       -6.92580405193523
H           -2.57143635642172       -3.10167727747447       -4.77688275129210

          :  Hamiltonian                  GFN2-xTB          :
         :: total energy             -35.255856116816 Eh    ::
         :: gradient norm              0.000609334520 Eh/a0 ::
         :: HOMO-LUMO gap              1.721263959696 eV    ::
         :: SCC energy               -35.834942681299 Eh    ::
         :: -> dispersion             -0.023218437245 Eh    ::
         :: repulsion energy           0.579086564483 Eh    ::

    * Orbital Energies and Occupations

         #    Occupation            Energy/Eh            Energy/eV
      -------------------------------------------------------------
         1        2.0000           -0.8809221             -23.9711
       ...           ...                  ...                  ...
        21        2.0000           -0.6266463             -17.0519
        22        2.0000           -0.6243309             -16.9889
        23        2.0000           -0.6215640             -16.9136
        24        2.0000           -0.6160914             -16.7647
        25        2.0000           -0.6114510             -16.6384
        26        2.0000           -0.5992530             -16.3065
        27        2.0000           -0.5921416             -16.1130
        28        2.0000           -0.5738147             -15.6143
        29        2.0000           -0.5663101             -15.4101
        30        2.0000           -0.5578807             -15.1807
        31        2.0000           -0.5363146             -14.5939
        32        2.0000           -0.5282343             -14.3740
        33        2.0000           -0.5226832             -14.2229 (HOMO)
        34                         -0.4594279             -12.5017 (LUMO)
        35                         -0.4293485             -11.6832
        36                         -0.3086685              -8.3993
        37                         -0.1694340              -4.6105
        38                         -0.0840721              -2.2877
        39                         -0.0667520              -1.8164
        40                         -0.0480806              -1.3083
        41                         -0.0393287              -1.0702
        42                         -0.0292856              -0.7969
        43                         -0.0158926              -0.4325
        44                         -0.0125775              -0.3423
       ...                                ...                  ...
        66                          0.4476370              12.1808
      -------------------------------------------------------------
                  HL-Gap            0.0632553 Eh            1.7213 eV

     #   Z          covCN         q      C6AA      α(0)
     1   6 C        3.751    -0.110    22.662     6.789
     2   6 C        3.799    -0.058    21.614     6.619
     3   6 C        3.800    -0.063    21.707     6.634
     4   6 C        3.800    -0.067    21.787     6.646
     5   6 C        3.801    -0.069    21.824     6.651
     6   6 C        3.760    -0.037    21.287     6.578
     7   7 N        2.750     0.116    19.257     6.518
     8   6 C        2.892     0.034    27.236     8.556
     9   6 C        2.916    -0.011    28.283     8.721
    10   6 C        2.925     0.013    27.714     8.633
    11   6 C        2.916    -0.010    28.264     8.718
    12   6 C        2.894     0.032    27.277     8.563
    13   1 H        0.925     0.035     2.520     2.483
    14   1 H        0.925     0.048     2.347     2.396
    15   1 H        0.925     0.044     2.395     2.420
    16   1 H        0.924     0.029     2.599     2.521
    17   1 H        0.924     0.045     2.387     2.416
    18   1 H        0.924     0.018     2.759     2.597
    19   1 H        0.924     0.050     2.322     2.383
    20   1 H        0.924     0.024     2.680     2.560
    21   1 H        0.925     0.069     2.099     2.266
    22   1 H        0.924     0.051     2.306     2.375
    23   1 H        0.925     0.086     1.915     2.164
    24   1 H        0.924     0.089     1.887     2.148
    25   1 H        0.925     0.097     1.811     2.105
    26   1 H        0.926     0.112     1.679     2.026
    27   1 H        0.926     0.108     1.715     2.048
    28   1 H        0.926     0.107     1.721     2.051
    29   1 H        0.926     0.108     1.712     2.046
    30   1 H        0.926     0.109     1.706     2.043

Wiberg/Mayer (AO) data.
largest (>0.10) Wiberg bond orders for each atom

     #   Z sym  total        # sym  WBO       # sym  WBO       # sym  WBO
 ---------------------------------------------------------------------------
     1   6 C    3.995 --     2 C    1.021    15 H    0.987    13 H    0.986
                            14 H    0.986
     2   6 C    3.996 --     1 C    1.021     3 C    1.007    17 H    0.976
                            16 H    0.975
     3   6 C    3.995 --     2 C    1.007     4 C    1.006    19 H    0.975
                            18 H    0.973
     4   6 C    3.992 --     5 C    1.010     3 C    1.006    20 H    0.972
                            21 H    0.966
     5   6 C    3.980 --     4 C    1.010    22 H    0.974     6 C    0.971
                            23 H    0.959
     6   6 C    3.932 --     5 C    0.971     7 N    0.965    24 H    0.962
                            25 H    0.959
     7   7 N    3.770 --     8 C    1.329    12 C    1.324     6 C    0.965
     8   6 C    3.957 --     9 C    1.455     7 N    1.329    26 H    0.951
     9   6 C    3.981 --     8 C    1.455    10 C    1.428    27 H    0.959
    10   6 C    3.969 --     9 C    1.428    11 C    1.416    28 H    0.961
    11   6 C    3.981 --    12 C    1.468    10 C    1.416    29 H    0.959
    12   6 C    3.959 --    11 C    1.468     7 N    1.324    30 H    0.954
    13   1 H    0.999 --     1 C    0.986
    14   1 H    0.998 --     1 C    0.986
    15   1 H    0.998 --     1 C    0.987
    16   1 H    0.999 --     2 C    0.975
    17   1 H    0.998 --     2 C    0.976
    18   1 H    1.000 --     3 C    0.973
    19   1 H    0.998 --     3 C    0.975
    20   1 H    0.999 --     4 C    0.972
    21   1 H    0.994 --     4 C    0.966
    22   1 H    0.997 --     5 C    0.974
    23   1 H    0.991 --     5 C    0.959
    24   1 H    0.992 --     6 C    0.962
    25   1 H    0.990 --     6 C    0.959
    26   1 H    0.987 --     8 C    0.951
    27   1 H    0.988 --     9 C    0.959
    28   1 H    0.988 --    10 C    0.961
    29   1 H    0.988 --    11 C    0.959
    30   1 H    0.988 --    12 C    0.954
 ---------------------------------------------------------------------------

molecular dipole:
                 x           y           z       tot (Debye)
 q only:       -1.872      -3.050      -9.860
   full:       -1.944      -3.063      -9.941      26.897

           -------------------------------------------------
          | TOTAL ENERGY              -35.255856116816 Eh   |
          | GRADIENT NORM               0.000609334520 Eh/α |
          | HOMO-LUMO GAP               1.721263959696 eV   |
           -------------------------------------------------

 * finished run on 2024/12/20 at 06:59:11.315
