   * xtb version 6.7.1 (edcfbbe) compiled by 'conda@3ef47c1a292c' on 2024-11-25

   ID    Z sym.   atoms
    1    6 C      1-12, 14-16
    2    7 N      13
    3    1 H      17-50

          program call               : xtb C0826.xyz --opt --namespace C0826 --charge +1
          :  Hamiltonian                  GFN2-xTB          :
 * total energy  :   -51.9910842 Eh     change       -0.7098322E-10 Eh
 * total energy  :   -51.9971104 Eh     change       -0.6026146E-02 Eh
 * total energy  :   -51.9984753 Eh     change       -0.1364953E-02 Eh
 * total energy  :   -51.9985570 Eh     change       -0.8170463E-04 Eh
 * total energy  :   -51.9986747 Eh     change       -0.1176756E-03 Eh
 * total energy  :   -51.9987210 Eh     change       -0.4632388E-04 Eh
 * total energy  :   -51.9987960 Eh     change       -0.7491698E-04 Eh
 * total energy  :   -51.9988304 Eh     change       -0.3445246E-04 Eh
 * total energy  :   -51.9988602 Eh     change       -0.2978617E-04 Eh
 * total energy  :   -51.9989312 Eh     change       -0.7098936E-04 Eh
 * total energy  :   -52.0000583 Eh     change       -0.2017794E-04 Eh
 * total energy  :   -52.0000764 Eh     change       -0.1807781E-04 Eh
 * total energy  :   -52.0000899 Eh     change       -0.1349159E-04 Eh
 * total energy  :   -52.0001006 Eh     change       -0.1068774E-04 Eh
 * total energy  :   -52.0001091 Eh     change       -0.8476111E-05 Eh
 * total energy  :   -52.0001167 Eh     change       -0.7675752E-05 Eh
 * total energy  :   -52.0001229 Eh     change       -0.6199253E-05 Eh
 * total energy  :   -52.0001284 Eh     change       -0.5476953E-05 Eh
 * total energy  :   -52.0001315 Eh     change       -0.3072739E-05 Eh
   *** GEOMETRY OPTIMIZATION CONVERGED AFTER 44 ITERATIONS ***

 final structure:
================
50
 xtb: 6.7.1 (edcfbbe)
C            1.53477482685470        0.28631391969614        0.63981796859024
C            1.22795488445028        1.76858235152786        0.46251640313963
C            1.43489201078171        2.25971211379647       -0.97106333144857
C            0.53758568351909        1.59436457420020       -2.01661281042780
C           -0.96443894204414        1.76751505905479       -1.78335176845104
C           -1.44779041894583        3.21843420274684       -1.73832052576638
C           -1.14493896096785        4.03953223282282       -2.99358038874627
C           -1.71214988277139        3.46207416267997       -4.29196388058459
C           -3.23058704144914        3.27505704564800       -4.30471210448625
C           -4.04533011384363        4.54525377236625       -4.04608535083578
C           -3.76326590188156        5.69931765570858       -5.01618506744489
C           -4.07781438782753        5.40111364741640       -6.48660346326196
N           -5.39793117531465        5.88416695077700       -7.00286932465219
C           -5.42099675396770        7.35664155629007       -7.06839183948097
C           -5.57875643855687        5.35063059222745       -8.36716372184580
C           -6.50960299609239        5.41182238304298       -6.16029311430698
H            0.82300582955697       -0.33130505368103        0.09785984229599
H            1.48320704943451        0.01489643146103        1.69152681591788
H            2.53489405501021        0.05925672714639        0.27715463127371
H            0.20370612272197        1.96956674379751        0.78197387014191
H            1.88873801128970        2.34476609589436        1.11452672335124
H            1.28309792350515        3.34109549364106       -0.99625776569240
H            2.47400746670112        2.07383188240443       -1.25383342092915
H            0.80194762736954        1.99409820647986       -2.99845462776345
H            0.75450037064598        0.52518741349143       -2.04180320556682
H           -1.49765549214226        1.22966651030193       -2.57105295862967
H           -1.23596921380537        1.29313321335423       -0.83894350294589
H           -2.52491833180859        3.21578001272680       -1.55351582832652
H           -0.98319120377009        3.72143051023005       -0.88892365518877
H           -1.52594114969407        5.05280173546064       -2.84219470574547
H           -0.06359922782401        4.12353361796026       -3.10979180699027
H           -1.41123787621914        4.10710462978883       -5.12197919582223
H           -1.25693810933290        2.48781032499483       -4.47233485624047
H           -3.51352955388626        2.83058416446884       -5.26360273951010
H           -3.50241777218512        2.55060142252330       -3.53697769223333
H           -5.10407824329418        4.28060858620603       -4.05393345761203
H           -3.81597962714187        4.90346787929541       -3.04260927983252
H           -4.29322726188516        6.58795635616262       -4.67229368289369
H           -2.70113535439870        5.93423232543409       -4.94976843413680
H           -3.31447474601953        5.85191930423440       -7.12334822149244
H           -4.04175445893298        4.32104423161576       -6.63757088276095
H           -4.63163520218707        7.71584598110533       -7.72613188055383
H           -6.37976864847939        7.69837836367291       -7.45411771001591
H           -5.27323069246064        7.78872016642346       -6.08150580372113
H           -5.61629172902245        4.26281993835301       -8.34682212609246
H           -6.50842815244346        5.72143017161544       -8.79551150749859
H           -4.75406116051914        5.65863272534640       -9.00753785175690
H           -6.48644297335511        4.32613264422002       -6.08705287991191
H           -6.43826082259878        5.83642459725066       -5.16204498488039
H           -7.46097184472235        5.71200442669934       -6.59684489823007

          :  Hamiltonian                  GFN2-xTB          :
         :: total energy             -52.000131489347 Eh    ::
         :: gradient norm              0.000263705122 Eh/a0 ::
         :: HOMO-LUMO gap              6.552888235542 eV    ::
         :: SCC energy               -52.756085345740 Eh    ::
         :: -> dispersion             -0.038819426216 Eh    ::
         :: repulsion energy           0.755953856393 Eh    ::

    * Orbital Energies and Occupations

         #    Occupation            Energy/Eh            Energy/eV
      -------------------------------------------------------------
         1        2.0000           -0.8696530             -23.6645
       ...           ...                  ...                  ...
        37        2.0000           -0.5469084             -14.8821
        38        2.0000           -0.5415555             -14.7365
        39        2.0000           -0.5337931             -14.5252
        40        2.0000           -0.5313951             -14.4600
        41        2.0000           -0.5204934             -14.1633
        42        2.0000           -0.5168039             -14.0630
        43        2.0000           -0.5091729             -13.8553
        44        2.0000           -0.4993022             -13.5867
        45        2.0000           -0.4949980             -13.4696
        46        2.0000           -0.4908762             -13.3574
        47        2.0000           -0.4762062             -12.9582
        48        2.0000           -0.4723111             -12.8522
        49        2.0000           -0.4698246             -12.7846 (HOMO)
        50                         -0.2290104              -6.2317 (LUMO)
        51                         -0.1618115              -4.4031
        52                         -0.1505181              -4.0958
        53                         -0.1451008              -3.9484
        54                         -0.0716296              -1.9491
        55                         -0.0657084              -1.7880
        56                         -0.0364667              -0.9923
        57                         -0.0309575              -0.8424
        58                         -0.0113758              -0.3096
        59                         -0.0050061              -0.1362
        60                          0.0020634               0.0561
       ...                                ...                  ...
        98                          0.2527698               6.8782
      -------------------------------------------------------------
                  HL-Gap            0.2408142 Eh            6.5529 eV

     #   Z          covCN         q      C6AA      α(0)
     1   6 C        3.751    -0.103    22.524     6.768
     2   6 C        3.799    -0.053    21.521     6.605
     3   6 C        3.801    -0.058    21.615     6.619
     4   6 C        3.800    -0.058    21.617     6.620
     5   6 C        3.800    -0.058    21.615     6.620
     6   6 C        3.800    -0.059    21.631     6.622
     7   6 C        3.800    -0.060    21.648     6.624
     8   6 C        3.800    -0.062    21.687     6.630
     9   6 C        3.800    -0.063    21.706     6.633
    10   6 C        3.800    -0.070    21.847     6.655
    11   6 C        3.799    -0.073    21.900     6.663
    12   6 C        3.760    -0.044    21.404     6.595
    13   7 N        3.622     0.144    18.791     6.438
    14   6 C        3.722    -0.096    22.454     6.767
    15   6 C        3.730    -0.098    22.471     6.767
    16   6 C        3.721    -0.096    22.443     6.766
    17   1 H        0.925     0.034     2.536     2.491
    18   1 H        0.925     0.034     2.524     2.484
    19   1 H        0.925     0.036     2.507     2.476
    20   1 H        0.924     0.029     2.596     2.520
    21   1 H        0.924     0.030     2.591     2.517
    22   1 H        0.924     0.027     2.636     2.539
    23   1 H        0.924     0.032     2.562     2.503
    24   1 H        0.924     0.025     2.654     2.547
    25   1 H        0.924     0.036     2.502     2.474
    26   1 H        0.924     0.024     2.672     2.556
    27   1 H        0.924     0.038     2.482     2.464
    28   1 H        0.924     0.024     2.675     2.558
    29   1 H        0.924     0.039     2.459     2.452
    30   1 H        0.924     0.022     2.697     2.568
    31   1 H        0.924     0.042     2.425     2.435
    32   1 H        0.924     0.020     2.727     2.583
    33   1 H        0.924     0.047     2.357     2.401
    34   1 H        0.924     0.018     2.762     2.599
    35   1 H        0.925     0.054     2.271     2.356
    36   1 H        0.924     0.032     2.558     2.501
    37   1 H        0.925     0.062     2.180     2.309
    38   1 H        0.924     0.047     2.352     2.398
    39   1 H        0.925     0.079     1.990     2.206
    40   1 H        0.924     0.080     1.980     2.200
    41   1 H        0.924     0.094     1.837     2.120
    42   1 H        0.925     0.099     1.798     2.097
    43   1 H        0.925     0.098     1.800     2.098
    44   1 H        0.925     0.101     1.773     2.082
    45   1 H        0.925     0.099     1.791     2.093
    46   1 H        0.925     0.100     1.784     2.088
    47   1 H        0.925     0.099     1.796     2.096
    48   1 H        0.925     0.101     1.780     2.087
    49   1 H        0.925     0.106     1.734     2.059
    50   1 H        0.925     0.096     1.819     2.109

Wiberg/Mayer (AO) data.
largest (>0.10) Wiberg bond orders for each atom

     #   Z sym  total        # sym  WBO       # sym  WBO       # sym  WBO
 ---------------------------------------------------------------------------
     1   6 C    3.997 --     2 C    1.020    19 H    0.987    18 H    0.987
                            17 H    0.986
     2   6 C    3.998 --     1 C    1.020     3 C    1.008    21 H    0.978
                            20 H    0.976
     3   6 C    3.997 --     2 C    1.008     4 C    1.008    23 H    0.977
                            22 H    0.976
     4   6 C    3.997 --     5 C    1.008     3 C    1.008    24 H    0.975
                            25 H    0.975
     5   6 C    3.997 --     4 C    1.008     6 C    1.008    26 H    0.975
                            27 H    0.974
     6   6 C    3.997 --     5 C    1.008     7 C    1.007    28 H    0.975
                            29 H    0.974
     7   6 C    3.997 --     6 C    1.007     8 C    1.007    30 H    0.975
                            31 H    0.974
     8   6 C    3.996 --     7 C    1.007     9 C    1.007    32 H    0.975
                            33 H    0.973
     9   6 C    3.994 --     8 C    1.007    10 C    1.007    34 H    0.972
                            35 H    0.971
    10   6 C    3.992 --     9 C    1.007    11 C    1.005    36 H    0.975
                            37 H    0.970
    11   6 C    3.983 --    10 C    1.005    12 C    1.003    38 H    0.965
                            39 H    0.964
    12   6 C    3.922 --    11 C    1.003    40 H    0.970    41 H    0.959
                            13 N    0.919
    13   7 N    3.816 --    14 C    0.959    15 C    0.958    16 C    0.958
                            12 C    0.919
    14   6 C    3.928 --    42 H    0.975    43 H    0.975    44 H    0.970
                            13 N    0.959
    15   6 C    3.928 --    47 H    0.975    45 H    0.975    46 H    0.974
                            13 N    0.958
    16   6 C    3.926 --    50 H    0.975    48 H    0.974    49 H    0.971
                            13 N    0.958
    17   1 H    0.999 --     1 C    0.986
    18   1 H    0.999 --     1 C    0.987
    19   1 H    0.999 --     1 C    0.987
    20   1 H    0.999 --     2 C    0.976
    21   1 H    0.999 --     2 C    0.978
    22   1 H    0.999 --     3 C    0.976
    23   1 H    0.999 --     3 C    0.977
    24   1 H    0.999 --     4 C    0.975
    25   1 H    0.999 --     4 C    0.975
    26   1 H    0.999 --     5 C    0.975
    27   1 H    0.999 --     5 C    0.974
    28   1 H    0.999 --     6 C    0.975
    29   1 H    0.998 --     6 C    0.974
    30   1 H    0.999 --     7 C    0.975
    31   1 H    0.998 --     7 C    0.974
    32   1 H    1.000 --     8 C    0.975
    33   1 H    0.998 --     8 C    0.973
    34   1 H    1.000 --     9 C    0.972
    35   1 H    0.997 --     9 C    0.971
    36   1 H    0.999 --    10 C    0.975
    37   1 H    0.996 --    10 C    0.970
    38   1 H    0.998 --    11 C    0.965
    39   1 H    0.994 --    11 C    0.964
    40   1 H    0.994 --    12 C    0.970
    41   1 H    0.991 --    12 C    0.959
    42   1 H    0.990 --    14 C    0.975
    43   1 H    0.990 --    14 C    0.975
    44   1 H    0.990 --    14 C    0.970
    45   1 H    0.990 --    15 C    0.975
    46   1 H    0.990 --    15 C    0.974
    47   1 H    0.990 --    15 C    0.975
    48   1 H    0.990 --    16 C    0.974
    49   1 H    0.989 --    16 C    0.971
    50   1 H    0.991 --    16 C    0.975
 ---------------------------------------------------------------------------

molecular dipole:
                 x           y           z       tot (Debye)
 q only:       -9.729      10.791     -12.592
   full:       -9.782      10.842     -12.709      49.205

           -------------------------------------------------
          | TOTAL ENERGY              -52.000131489347 Eh   |
          | GRADIENT NORM               0.000263705122 Eh/α |
          | HOMO-LUMO GAP               6.552888235542 eV   |
           -------------------------------------------------

 * finished run on 2024/12/20 at 06:59:50.426
