   * xtb version 6.7.1 (edcfbbe) compiled by 'conda@3ef47c1a292c' on 2024-11-25

   ID    Z sym.   atoms
    1    6 C      1-12, 14-25
    2   15 P      13
    3    1 H      26-77

          program call               : xtb C0822.xyz --opt --namespace C0822 --charge +1
          :  Hamiltonian                  GFN2-xTB          :
 * total energy  :   -80.0744999 Eh     change       -0.2927862E-09 Eh
 * total energy  :   -80.0799579 Eh     change       -0.5458002E-02 Eh
 * total energy  :   -80.0813716 Eh     change       -0.1413726E-02 Eh
 * total energy  :   -80.0815577 Eh     change       -0.1860810E-03 Eh
 * total energy  :   -80.0816641 Eh     change       -0.1063724E-03 Eh
 * total energy  :   -80.0817481 Eh     change       -0.8401582E-04 Eh
 * total energy  :   -80.0818493 Eh     change       -0.1012176E-03 Eh
 * total energy  :   -80.0819601 Eh     change       -0.1107824E-03 Eh
 * total energy  :   -80.0820664 Eh     change       -0.1063556E-03 Eh
 * total energy  :   -80.0821814 Eh     change       -0.1149527E-03 Eh
 * total energy  :   -80.0890460 Eh     change       -0.9759868E-05 Eh
 * total energy  :   -80.0890587 Eh     change       -0.1273642E-04 Eh
 * total energy  :   -80.0890645 Eh     change       -0.5827853E-05 Eh
 * total energy  :   -80.0890727 Eh     change       -0.8178435E-05 Eh
 * total energy  :   -80.0890815 Eh     change       -0.8851145E-05 Eh
 * total energy  :   -80.0890898 Eh     change       -0.8245462E-05 Eh
 * total energy  :   -80.0890969 Eh     change       -0.7119545E-05 Eh
 * total energy  :   -80.0891022 Eh     change       -0.5268477E-05 Eh
 * total energy  :   -80.0891062 Eh     change       -0.3971972E-05 Eh
   *** GEOMETRY OPTIMIZATION CONVERGED AFTER 106 ITERATIONS ***

 final structure:
================
77
 xtb: 6.7.1 (edcfbbe)
C            0.31366028752722       -1.00098356337471        0.57353611466063
C           -0.79921405672005       -0.47535848764448       -0.33351810179212
C           -0.85828129977854       -1.24910279743618       -1.65635651176202
C           -1.09975941267410       -2.75475906735983       -1.52405903730327
C           -2.38719435735374       -3.10242221242491       -0.77932114231391
C           -2.69863858822024       -4.60054038979511       -0.78428429091239
C           -1.64005164214109       -5.48537850527598       -0.12032512298566
C           -1.28109348030644       -5.10588133137403        1.31767293302173
C           -2.45394351315136       -5.09576598154418        2.29998292710218
C           -3.16709697190803       -6.43956629493665        2.46014228315016
C           -2.28229665624482       -7.58391738570226        2.95662832559851
C           -1.67626679241363       -7.32599048864451        4.33159609410735
P            0.50472216003459       -0.23605633678282        2.22224172772095
C            1.35924375804830        1.38515699888127        2.15849228468097
C            0.93216921932986        2.37594211086004        1.07555337493810
C           -0.50929483998102        2.86774825187364        1.19615562319034
C           -0.76317814327303        3.69174000707972        2.45298884466146
C           -1.03570905611827       -0.12041481611661        3.20607662676815
C           -2.01105460463077       -1.28757053347921        3.01445237039301
C           -2.94878898799087       -1.44367335510064        4.21375890397690
C           -3.86194936618856       -0.24037425615095        4.41622328744923
C            1.70217830811756       -1.27941341864979        3.13006685669684
C            1.17926843571626       -2.62965617426674        3.62196160328658
C            2.27236867811446       -3.43642853304302        4.32960640676110
C            3.37529888535897       -3.91304754876679        3.39191975322616
H            1.28603527520517       -0.89485585098334        0.07930824317969
H            0.15432879919056       -2.06635969047081        0.76369728755537
H           -1.76177440814911       -0.55195251222696        0.17109291097687
H           -0.63067062661917        0.57528124264157       -0.56874436484831
H           -1.66155730325695       -0.81610048929914       -2.25489718352690
H            0.07588781726213       -1.09210684119244       -2.20044310634725
H           -1.15878289869960       -3.17026993638527       -2.53152014807832
H           -0.24555365166126       -3.22762009607727       -1.03729257391074
H           -2.33159621439290       -2.75744754305510        0.25425620994759
H           -3.21925359876565       -2.57885415690233       -1.25599870128089
H           -3.65751887003780       -4.75277472376032       -0.28602821523490
H           -2.81556523885799       -4.93293652569037       -1.81771156024019
H           -2.00241474014347       -6.51366868409166       -0.13531001057974
H           -0.72578205969772       -5.46478613835247       -0.71795977032815
H           -0.52111517548259       -5.80335005938834        1.67508658196367
H           -0.82374309106730       -4.11065788811289        1.31956443161535
H           -2.08244556036670       -4.77485260884382        3.27689020258410
H           -3.18977700045519       -4.35622911495876        1.97586499443209
H           -3.98694410225899       -6.30142614474336        3.16954120306762
H           -3.61100128453336       -6.72840625105697        1.50612322820323
H           -2.89781309112036       -8.48418776934496        3.00866965626942
H           -1.48532060843748       -7.78005264156523        2.23721293510978
H           -2.45379351464123       -7.07020557908768        5.04822687220127
H           -1.16379214922852       -8.21589834035558        4.68834418558879
H           -0.95406703022746       -6.51298118525769        4.29997336295657
H            1.25011029433895        1.83270702916018        3.15054638010796
H            2.41918812968755        1.14465983565313        2.02076013202104
H            1.60076055255149        3.23729253793154        1.13841148029166
H            1.08321173204159        1.92408543057139        0.09328267117018
H           -0.72552779687114        3.49007584860822        0.32620063380758
H           -1.19236983527990        2.01439669576238        1.16246396202680
H           -0.08692099546816        4.54188840324013        2.49032329358883
H           -1.78097086941904        4.07234852628739        2.44907017903125
H           -0.62751099146187        3.10664365228598        3.36036083705365
H           -0.70065928296247       -0.07920264675820        4.24927701708151
H           -1.52767053833993        0.82626207650153        2.98130665769690
H           -2.61539346549037       -1.11887580532394        2.12206847609565
H           -1.46510290500029       -2.22196949957374        2.87663851034221
H           -3.56173423197492       -2.33132902141814        4.04981518385196
H           -2.36102921179223       -1.61407881649825        5.11871997574811
H           -4.42960798591659       -0.03327595288680        3.51180997718736
H           -4.56699644281350       -0.44281599497798        5.21730038528781
H           -3.29839876929858        0.64976503481960        4.68557867502529
H            2.55077186381859       -1.43086742912884        2.45601075951654
H            2.05470957308529       -0.69009144886040        3.98346988902470
H            0.35913395633569       -2.47055076131468        4.32423626809807
H            0.80351881894595       -3.22032995920989        2.78389910360576
H            2.70578603603541       -2.83733966821118        5.13265226423462
H            1.80212172274222       -4.30803458124669        4.78733290871587
H            3.96235259051509       -3.08434525062881        3.00336609330859
H            4.05224479850023       -4.57286011390467        3.92669205782554
H            2.95539561706423       -4.46685448319932        2.55505742265246

          :  Hamiltonian                  GFN2-xTB          :
         :: total energy             -80.089106151058 Eh    ::
         :: gradient norm              0.000370882297 Eh/a0 ::
         :: HOMO-LUMO gap              5.250396022405 eV    ::
         :: SCC energy               -81.273313369597 Eh    ::
         :: -> dispersion             -0.070786341006 Eh    ::
         :: repulsion energy           1.184207218539 Eh    ::

    * Orbital Energies and Occupations

         #    Occupation            Energy/Eh            Energy/eV
      -------------------------------------------------------------
         1        2.0000           -0.8415077             -22.8986
       ...           ...                  ...                  ...
        64        2.0000           -0.5377954             -14.6342
        65        2.0000           -0.5372652             -14.6197
        66        2.0000           -0.5362058             -14.5909
        67        2.0000           -0.5355627             -14.5734
        68        2.0000           -0.5306803             -14.4405
        69        2.0000           -0.5233376             -14.2407
        70        2.0000           -0.5188606             -14.1189
        71        2.0000           -0.5090526             -13.8520
        72        2.0000           -0.5063195             -13.7777
        73        2.0000           -0.5023622             -13.6700
        74        2.0000           -0.4939210             -13.4403
        75        2.0000           -0.4898078             -13.3283
        76        2.0000           -0.4873904             -13.2626 (HOMO)
        77                         -0.2944418              -8.0122 (LUMO)
        78                         -0.2770525              -7.5390
        79                         -0.2597569              -7.0683
        80                         -0.1899567              -5.1690
        81                         -0.1088172              -2.9611
        82                         -0.0804856              -2.1901
        83                         -0.0619086              -1.6846
        84                         -0.0460203              -1.2523
        85                         -0.0433844              -1.1806
        86                         -0.0352532              -0.9593
        87                         -0.0282064              -0.7675
       ...                                ...                  ...
       157                          0.7843592              21.3435
      -------------------------------------------------------------
                  HL-Gap            0.1929485 Eh            5.2504 eV

     #   Z          covCN         q      C6AA      α(0)
     1   6 C        3.751    -0.066    21.827     6.663
     2   6 C        3.834    -0.061    21.638     6.618
     3   6 C        3.801    -0.066    21.760     6.641
     4   6 C        3.801    -0.064    21.729     6.637
     5   6 C        3.801    -0.059    21.639     6.623
     6   6 C        3.800    -0.061    21.677     6.629
     7   6 C        3.800    -0.060    21.662     6.627
     8   6 C        3.799    -0.049    21.453     6.595
     9   6 C        3.800    -0.056    21.579     6.614
    10   6 C        3.801    -0.059    21.644     6.624
    11   6 C        3.800    -0.054    21.552     6.610
    12   6 C        3.751    -0.102    22.502     6.765
    13  15 P        3.893     0.165   153.117    22.228
    14   6 C        3.750    -0.074    21.988     6.688
    15   6 C        3.834    -0.063    21.690     6.626
    16   6 C        3.800    -0.060    21.657     6.626
    17   6 C        3.751    -0.112    22.702     6.795
    18   6 C        3.751    -0.070    21.904     6.675
    19   6 C        3.850    -0.059    21.607     6.612
    20   6 C        3.801    -0.059    21.632     6.622
    21   6 C        3.752    -0.112    22.709     6.796
    22   6 C        3.751    -0.080    22.084     6.702
    23   6 C        3.844    -0.059    21.602     6.611
    24   6 C        3.801    -0.060    21.646     6.624
    25   6 C        3.751    -0.111    22.678     6.791
    26   1 H        0.927     0.088     1.896     2.153
    27   1 H        0.928     0.097     1.810     2.104
    28   1 H        0.925     0.053     2.283     2.363
    29   1 H        0.925     0.051     2.301     2.372
    30   1 H        0.924     0.052     2.289     2.366
    31   1 H        0.924     0.040     2.445     2.445
    32   1 H        0.924     0.048     2.347     2.396
    33   1 H        0.924     0.031     2.573     2.508
    34   1 H        0.924     0.025     2.661     2.551
    35   1 H        0.924     0.034     2.535     2.490
    36   1 H        0.924     0.039     2.464     2.455
    37   1 H        0.924     0.037     2.493     2.469
    38   1 H        0.924     0.043     2.415     2.430
    39   1 H        0.924     0.029     2.607     2.525
    40   1 H        0.924     0.033     2.544     2.494
    41   1 H        0.924     0.001     3.036     2.725
    42   1 H        0.924     0.023     2.687     2.563
    43   1 H        0.924     0.026     2.638     2.540
    44   1 H        0.924     0.032     2.554     2.499
    45   1 H        0.924     0.035     2.516     2.480
    46   1 H        0.924     0.035     2.515     2.480
    47   1 H        0.924     0.032     2.561     2.503
    48   1 H        0.925     0.035     2.510     2.478
    49   1 H        0.925     0.037     2.492     2.469
    50   1 H        0.925     0.026     2.651     2.546
    51   1 H        0.927     0.091     1.869     2.138
    52   1 H        0.928     0.084     1.937     2.176
    53   1 H        0.924     0.067     2.123     2.278
    54   1 H        0.924     0.050     2.316     2.380
    55   1 H        0.924     0.055     2.261     2.352
    56   1 H        0.924     0.035     2.510     2.478
    57   1 H        0.925     0.051     2.305     2.374
    58   1 H        0.925     0.052     2.295     2.369
    59   1 H        0.925     0.031     2.575     2.510
    60   1 H        0.928     0.090     1.879     2.143
    61   1 H        0.926     0.097     1.808     2.103
    62   1 H        0.924     0.054     2.276     2.359
    63   1 H        0.924     0.052     2.295     2.369
    64   1 H        0.924     0.055     2.261     2.351
    65   1 H        0.924     0.038     2.477     2.461
    66   1 H        0.925     0.043     2.403     2.424
    67   1 H        0.925     0.054     2.275     2.359
    68   1 H        0.925     0.036     2.508     2.477
    69   1 H        0.927     0.088     1.902     2.157
    70   1 H        0.927     0.082     1.959     2.189
    71   1 H        0.924     0.049     2.328     2.386
    72   1 H        0.924     0.049     2.328     2.386
    73   1 H        0.924     0.043     2.415     2.430
    74   1 H        0.924     0.053     2.280     2.361
    75   1 H        0.925     0.034     2.533     2.489
    76   1 H        0.925     0.054     2.266     2.354
    77   1 H        0.925     0.042     2.418     2.432

Wiberg/Mayer (AO) data.
largest (>0.10) Wiberg bond orders for each atom

     #   Z sym  total        # sym  WBO       # sym  WBO       # sym  WBO
 ---------------------------------------------------------------------------
     1   6 C    3.984 --    13 P    1.010     2 C    0.987    26 H    0.929
                            27 H    0.919
     2   6 C    3.988 --     3 C    0.999     1 C    0.987    29 H    0.969
                            28 H    0.965
     3   6 C    3.991 --     4 C    1.007     2 C    0.999    31 H    0.977
                            30 H    0.973
     4   6 C    3.995 --     5 C    1.009     3 C    1.007    32 H    0.974
                            33 H    0.972
     5   6 C    3.998 --     4 C    1.009     6 C    1.006    35 H    0.977
                            34 H    0.971
     6   6 C    3.996 --     7 C    1.007     5 C    1.006    37 H    0.977
                            36 H    0.975
     7   6 C    3.996 --     8 C    1.007     6 C    1.007    39 H    0.976
                            38 H    0.974
     8   6 C    3.998 --     7 C    1.007     9 C    1.007    40 H    0.975
                            41 H    0.967
     9   6 C    3.998 --    10 C    1.007     8 C    1.007    43 H    0.975
                            42 H    0.975
    10   6 C    3.996 --    11 C    1.008     9 C    1.007    44 H    0.977
                            45 H    0.975
    11   6 C    3.997 --    12 C    1.020    10 C    1.008    46 H    0.978
                            47 H    0.976
    12   6 C    3.997 --    11 C    1.020    48 H    0.987    49 H    0.987
                            50 H    0.987
    13  15 P    4.576 --    22 C    1.016     1 C    1.010    14 C    1.004
                            18 C    1.002
    14   6 C    3.984 --    13 P    1.004    15 C    0.991    52 H    0.934
                            51 H    0.931
    15   6 C    3.986 --    16 C    1.008    14 C    0.991    54 H    0.969
                            53 H    0.968
    16   6 C    3.995 --    17 C    1.020    15 C    1.008    55 H    0.975
                            56 H    0.960
    17   6 C    3.994 --    16 C    1.020    57 H    0.985    58 H    0.985
                            59 H    0.983
    18   6 C    3.984 --    13 P    1.002    19 C    0.984    61 H    0.934
                            60 H    0.927
    19   6 C    3.988 --    20 C    1.002    18 C    0.984    62 H    0.969
                            63 H    0.962
    20   6 C    3.991 --    21 C    1.020    19 C    1.002    65 H    0.976
                            64 H    0.973
    21   6 C    3.994 --    20 C    1.020    68 H    0.987    66 H    0.987
                            67 H    0.985
    22   6 C    3.987 --    13 P    1.016    23 C    0.990    70 H    0.936
                            69 H    0.931
    23   6 C    3.988 --    24 C    1.000    22 C    0.990    71 H    0.971
                            72 H    0.966
    24   6 C    3.992 --    25 C    1.021    23 C    1.000    73 H    0.977
                            74 H    0.974
    25   6 C    3.994 --    24 C    1.021    77 H    0.987    75 H    0.985
                            76 H    0.985
    26   1 H    0.992 --     1 C    0.929
    27   1 H    0.990 --     1 C    0.919
    28   1 H    0.997 --     2 C    0.965
    29   1 H    0.997 --     2 C    0.969
    30   1 H    0.997 --     3 C    0.973
    31   1 H    0.998 --     3 C    0.977
    32   1 H    0.997 --     4 C    0.974
    33   1 H    0.999 --     4 C    0.972
    34   1 H    0.999 --     5 C    0.971
    35   1 H    0.999 --     5 C    0.977
    36   1 H    0.998 --     6 C    0.975
    37   1 H    0.999 --     6 C    0.977
    38   1 H    0.998 --     7 C    0.974
    39   1 H    0.999 --     7 C    0.976
    40   1 H    0.999 --     8 C    0.975
    41   1 H    1.000 --     8 C    0.967
    42   1 H    0.999 --     9 C    0.975
    43   1 H    0.999 --     9 C    0.975
    44   1 H    0.999 --    10 C    0.977
    45   1 H    0.999 --    10 C    0.975
    46   1 H    0.999 --    11 C    0.978
    47   1 H    0.999 --    11 C    0.976
    48   1 H    0.999 --    12 C    0.987
    49   1 H    0.999 --    12 C    0.987
    50   1 H    0.999 --    12 C    0.987
    51   1 H    0.991 --    14 C    0.931
    52   1 H    0.993 --    14 C    0.934
    53   1 H    0.995 --    15 C    0.968
    54   1 H    0.997 --    15 C    0.969
    55   1 H    0.997 --    16 C    0.975
    56   1 H    0.999 --    16 C    0.960
    57   1 H    0.997 --    17 C    0.985
    58   1 H    0.997 --    17 C    0.985
    59   1 H    0.999 --    17 C    0.983
    60   1 H    0.992 --    18 C    0.927
    61   1 H    0.990 --    18 C    0.934
    62   1 H    0.997 --    19 C    0.969
    63   1 H    0.997 --    19 C    0.962
    64   1 H    0.996 --    20 C    0.973
    65   1 H    0.998 --    20 C    0.976
    66   1 H    0.998 --    21 C    0.987
    67   1 H    0.997 --    21 C    0.985
    68   1 H    0.999 --    21 C    0.987
    69   1 H    0.992 --    22 C    0.931
    70   1 H    0.993 --    22 C    0.936
    71   1 H    0.998 --    23 C    0.971
    72   1 H    0.998 --    23 C    0.966
    73   1 H    0.998 --    24 C    0.977
    74   1 H    0.997 --    24 C    0.974
    75   1 H    0.999 --    25 C    0.985
    76   1 H    0.997 --    25 C    0.985
    77   1 H    0.998 --    25 C    0.987
 ---------------------------------------------------------------------------

molecular dipole:
                 x           y           z       tot (Debye)
 q only:        0.276      -1.005       4.028
   full:        0.471      -0.923       4.078      10.696

           -------------------------------------------------
          | TOTAL ENERGY              -80.089106151058 Eh   |
          | GRADIENT NORM               0.000370882297 Eh/α |
          | HOMO-LUMO GAP               5.250396022405 eV   |
           -------------------------------------------------

 * finished run on 2024/12/20 at 06:59:18.748
