   * xtb version 6.7.1 (edcfbbe) compiled by 'conda@3ef47c1a292c' on 2024-11-25

   ID    Z sym.   atoms
    1    6 C      1-4, 7, 8, 10-12
    2    8 O      5, 6
    3    7 N      9
    4    1 H      13-32

          program call               : xtb C0839.xyz --opt --namespace C0839 --charge +1
          :  Hamiltonian                  GFN2-xTB          :
 * total energy  :   -40.1267804 Eh     change       -0.3052492E-09 Eh
 * total energy  :   -40.1348094 Eh     change       -0.8029049E-02 Eh
 * total energy  :   -40.1367345 Eh     change       -0.1925058E-02 Eh
 * total energy  :   -40.1371122 Eh     change       -0.3777017E-03 Eh
 * total energy  :   -40.1375536 Eh     change       -0.4414606E-03 Eh
 * total energy  :   -40.1378078 Eh     change       -0.2541703E-03 Eh
 * total energy  :   -40.1381220 Eh     change       -0.3142306E-03 Eh
 * total energy  :   -40.1382105 Eh     change       -0.8846840E-04 Eh
 * total energy  :   -40.1382754 Eh     change       -0.6493064E-04 Eh
 * total energy  :   -40.1383015 Eh     change       -0.2604526E-04 Eh
 * total energy  :   -40.1383232 Eh     change       -0.2168252E-04 Eh
 * total energy  :   -40.1383310 Eh     change       -0.7865433E-05 Eh
 * total energy  :   -40.1383476 Eh     change       -0.1661167E-04 Eh
 * total energy  :   -40.1383569 Eh     change       -0.9240694E-05 Eh
 * total energy  :   -40.1383671 Eh     change       -0.1019847E-04 Eh
 * total energy  :   -40.1383770 Eh     change       -0.9918157E-05 Eh
 * total energy  :   -40.1383812 Eh     change       -0.4164955E-05 Eh
   *** GEOMETRY OPTIMIZATION CONVERGED AFTER 17 ITERATIONS ***

 final structure:
================
32
 xtb: 6.7.1 (edcfbbe)
C            1.41534056308240        0.28462899924644        0.29281679228603
C            1.16362986628640        0.93499077376922       -1.06145824462092
C            1.91540441531175        0.25193750740555       -2.21422451893470
C            1.25554027787957       -0.97565873090457       -2.75721910487626
O            1.09403962159671       -1.21838092268731       -3.92955648348367
O            0.80769630400261       -1.81894533393407       -1.80253148963347
C            0.33829227071842       -3.09208971256078       -2.21530519100033
C           -1.18631221364512       -3.24890048819528       -2.18235207147508
N           -1.99261297640315       -2.61625736575861       -3.27246053173239
C           -1.43436926520267       -2.91564600119075       -4.60613362975584
C           -3.35849675230806       -3.17235464291499       -3.18872288685996
C           -2.07416574440264       -1.15390683037721       -3.09887035944423
H            1.09285542471149       -0.75239925530731        0.29918752925902
H            0.87419295083416        0.82068553575066        1.06791800398043
H            2.47421934828026        0.31758790315836        0.53571258149527
H            0.09231604953335        0.94961623009881       -1.27645724987998
H            1.49988521616865        1.97158873584346       -1.01875109341461
H            2.04342162314518        0.93842245402018       -3.05285463312521
H            2.90964463886740       -0.03902436270498       -1.86511328167154
H            0.75406084113759       -3.33051064605408       -3.19890552940188
H            0.73908218761232       -3.79816691447142       -1.48158144638009
H           -1.38396229348540       -4.32255503849512       -2.21353162288782
H           -1.54930111772098       -2.85793657341152       -1.22866211793905
H           -1.27970392016132       -3.98717414064805       -4.71763083349134
H           -2.12645544022626       -2.57988568064438       -5.37575984755777
H           -0.48770447821138       -2.39164015213908       -4.74899312775091
H           -3.78049080440132       -3.00015622416511       -2.19989893791812
H           -4.00091971340373       -2.69543412613016       -3.92700449270447
H           -3.34636205452337       -4.24327433878231       -3.38420587619407
H           -2.44670654897832       -0.90907900614552       -2.10562875590775
H           -1.09811527971512       -0.69849694635246       -3.23851477912272
H           -2.74967299637895       -0.73149470531815       -3.84084676985745

          :  Hamiltonian                  GFN2-xTB          :
         :: total energy             -40.138381169713 Eh    ::
         :: gradient norm              0.000622822562 Eh/a0 ::
         :: HOMO-LUMO gap              4.520866122220 eV    ::
         :: SCC energy               -40.624838123212 Eh    ::
         :: -> dispersion             -0.023446072778 Eh    ::
         :: repulsion energy           0.486456953499 Eh    ::

    * Orbital Energies and Occupations

         #    Occupation            Energy/Eh            Energy/eV
      -------------------------------------------------------------
         1        2.0000           -0.8810567             -23.9748
       ...           ...                  ...                  ...
        24        2.0000           -0.6433114             -17.5054
        25        2.0000           -0.6404099             -17.4264
        26        2.0000           -0.6341471             -17.2560
        27        2.0000           -0.6313511             -17.1799
        28        2.0000           -0.6134988             -16.6942
        29        2.0000           -0.6080585             -16.5461
        30        2.0000           -0.6006812             -16.3454
        31        2.0000           -0.5912479             -16.0887
        32        2.0000           -0.5841262             -15.8949
        33        2.0000           -0.5551296             -15.1058
        34        2.0000           -0.5489091             -14.9366
        35        2.0000           -0.5424552             -14.7610
        36        2.0000           -0.5306187             -14.4389 (HOMO)
        37                         -0.3644799              -9.9180 (LUMO)
        38                         -0.2361309              -6.4254
        39                         -0.1673499              -4.5538
        40                         -0.1567119              -4.2643
        41                         -0.1507131              -4.1011
        42                         -0.1337127              -3.6385
        43                         -0.0659329              -1.7941
        44                         -0.0555772              -1.5123
        45                         -0.0236181              -0.6427
        46                         -0.0146243              -0.3979
        47                         -0.0023750              -0.0646
       ...                                ...                  ...
        68                          0.4984261              13.5629
      -------------------------------------------------------------
                  HL-Gap            0.1661388 Eh            4.5209 eV

     #   Z          covCN         q      C6AA      α(0)
     1   6 C        3.752    -0.116    22.778     6.806
     2   6 C        3.799    -0.052    21.503     6.602
     3   6 C        3.802    -0.098    22.361     6.732
     4   6 C        2.712     0.357    20.936     7.490
     5   8 O        0.856    -0.426    22.213     6.319
     6   8 O        1.704    -0.258    18.267     5.771
     7   6 C        3.696     0.060    19.730     6.354
     8   6 C        3.760    -0.048    21.489     6.608
     9   7 N        3.622     0.149    18.717     6.426
    10   6 C        3.718    -0.110    22.729     6.810
    11   6 C        3.731    -0.101    22.528     6.775
    12   6 C        3.722    -0.093    22.401     6.759
    13   1 H        0.925     0.046     2.368     2.406
    14   1 H        0.925     0.051     2.310     2.377
    15   1 H        0.925     0.050     2.317     2.380
    16   1 H        0.924     0.031     2.568     2.506
    17   1 H        0.924     0.061     2.189     2.314
    18   1 H        0.924     0.081     1.964     2.192
    19   1 H        0.924     0.098     1.807     2.102
    20   1 H        0.924     0.087     1.906     2.159
    21   1 H        0.924     0.096     1.823     2.112
    22   1 H        0.924     0.095     1.828     2.115
    23   1 H        0.924     0.103     1.760     2.075
    24   1 H        0.925     0.094     1.839     2.120
    25   1 H        0.925     0.101     1.780     2.087
    26   1 H        0.924     0.135     1.500     1.915
    27   1 H        0.925     0.100     1.789     2.092
    28   1 H        0.925     0.105     1.742     2.064
    29   1 H        0.925     0.100     1.784     2.089
    30   1 H        0.925     0.094     1.843     2.123
    31   1 H        0.925     0.109     1.707     2.043
    32   1 H        0.925     0.099     1.794     2.094

Wiberg/Mayer (AO) data.
largest (>0.10) Wiberg bond orders for each atom

     #   Z sym  total        # sym  WBO       # sym  WBO       # sym  WBO
 ---------------------------------------------------------------------------
     1   6 C    3.993 --     2 C    1.022    15 H    0.986    14 H    0.985
                            13 H    0.984
     2   6 C    3.991 --     1 C    1.022     3 C    0.985    16 H    0.979
                            17 H    0.975
     3   6 C    3.986 --     4 C    0.999     2 C    0.985    18 H    0.968
                            19 H    0.932
     4   6 C    3.902 --     5 O    1.728     6 O    1.100     3 C    0.999
     5   8 O    2.032 --     4 C    1.728     6 O    0.159
     6   8 O    2.299 --     4 C    1.100     7 C    0.964     5 O    0.159
     7   6 C    3.936 --     8 C    1.001     6 O    0.964    20 H    0.956
                            21 H    0.956
     8   6 C    3.940 --     7 C    1.001    22 H    0.965    23 H    0.964
                             9 N    0.934
     9   7 N    3.819 --    11 C    0.956    12 C    0.956    10 C    0.951
                             8 C    0.934
    10   6 C    3.911 --    24 H    0.976    25 H    0.974    26 H    0.953
                             9 N    0.951
    11   6 C    3.926 --    27 H    0.975    29 H    0.975    28 H    0.973
                             9 N    0.956
    12   6 C    3.923 --    30 H    0.976    32 H    0.975    31 H    0.967
                             9 N    0.956
    13   1 H    0.998 --     1 C    0.984
    14   1 H    0.997 --     1 C    0.985
    15   1 H    0.997 --     1 C    0.986
    16   1 H    0.999 --     2 C    0.979
    17   1 H    0.996 --     2 C    0.975
    18   1 H    0.993 --     3 C    0.968
    19   1 H    0.990 --     3 C    0.932
    20   1 H    0.992 --     7 C    0.956
    21   1 H    0.991 --     7 C    0.956
    22   1 H    0.990 --     8 C    0.965
    23   1 H    0.989 --     8 C    0.964
    24   1 H    0.991 --    10 C    0.976
    25   1 H    0.990 --    10 C    0.974
    26   1 H    0.982 --    10 C    0.953
    27   1 H    0.990 --    11 C    0.975
    28   1 H    0.989 --    11 C    0.973
    29   1 H    0.990 --    11 C    0.975
    30   1 H    0.991 --    12 C    0.976
    31   1 H    0.988 --    12 C    0.967
    32   1 H    0.990 --    12 C    0.975
 ---------------------------------------------------------------------------

molecular dipole:
                 x           y           z       tot (Debye)
 q only:       -3.227      -4.628      -5.152
   full:       -3.223      -4.706      -5.103      19.453

           -------------------------------------------------
          | TOTAL ENERGY              -40.138381169713 Eh   |
          | GRADIENT NORM               0.000622822562 Eh/α |
          | HOMO-LUMO GAP               4.520866122220 eV   |
           -------------------------------------------------

 * finished run on 2024/12/20 at 07:00:38.869
