   * xtb version 6.7.1 (edcfbbe) compiled by 'conda@3ef47c1a292c' on 2024-11-25

   ID    Z sym.   atoms
    1    6 C      1, 3, 4, 6-10, 12, 13, 15-17
    2    7 N      2, 5
    3    8 O      11
    4   16 S      14
    5    1 H      18-36

          program call               : xtb C0831.xyz --opt --namespace C0831 --charge +1
          :  Hamiltonian                  GFN2-xTB          :
 * total energy  :   -50.3044784 Eh     change       -0.1211596E-08 Eh
 * total energy  :   -50.3108083 Eh     change       -0.6329914E-02 Eh
 * total energy  :   -50.3121153 Eh     change       -0.1307012E-02 Eh
 * total energy  :   -50.3123915 Eh     change       -0.2761758E-03 Eh
 * total energy  :   -50.3126167 Eh     change       -0.2251928E-03 Eh
 * total energy  :   -50.3127047 Eh     change       -0.8803303E-04 Eh
 * total energy  :   -50.3128014 Eh     change       -0.9668954E-04 Eh
 * total energy  :   -50.3128922 Eh     change       -0.9076086E-04 Eh
 * total energy  :   -50.3129710 Eh     change       -0.7876429E-04 Eh
 * total energy  :   -50.3130446 Eh     change       -0.7361411E-04 Eh
 * total energy  :   -50.3193431 Eh     change       -0.7551916E-05 Eh
 * total energy  :   -50.3193512 Eh     change       -0.8032054E-05 Eh
 * total energy  :   -50.3193505 Eh     change        0.6194968E-06 Eh
 * total energy  :   -50.3193578 Eh     change       -0.7236417E-05 Eh
 * total energy  :   -50.3193664 Eh     change       -0.8644985E-05 Eh
 * total energy  :   -50.3193758 Eh     change       -0.9429019E-05 Eh
 * total energy  :   -50.3193835 Eh     change       -0.7697513E-05 Eh
 * total energy  :   -50.3193901 Eh     change       -0.6551049E-05 Eh
 * total energy  :   -50.3193938 Eh     change       -0.3717916E-05 Eh
   *** GEOMETRY OPTIMIZATION CONVERGED AFTER 126 ITERATIONS ***

 final structure:
================
36
 xtb: 6.7.1 (edcfbbe)
C            1.19338037258209        0.07104367584270       -0.43067034425041
N            0.25291225270647        0.92883096091976        0.24100666462949
C           -0.91523983334407        1.39632718519569       -0.28887916243528
C           -1.49637643620024        2.18143194996009        0.65283254084699
N           -0.67498025487776        2.18716270369662        1.74515071822353
C            0.38432133200087        1.41288962562998        1.48411331158779
C            1.52583265209187        1.13801220351413        2.37629840789485
C           -0.96729418984162        2.90427024513565        2.96681741503585
C           -2.02633690947116        2.18921850624801        3.81136677300033
C           -1.55063623217212        0.83853467652772        4.34723496982164
O           -0.36405380153506        1.06665786229384        5.07807953749142
C            0.30669168721343        0.00639125432750        5.65398682571243
C            1.65160505222400        0.14823959841730        5.85499873251475
S            2.34980523697616       -1.21637157506947        6.61720535592129
C            0.82644220958624       -1.99517813737343        6.64751605701857
C           -0.18650943778252       -1.25179545933125        6.11983521994707
C           -1.59637730166898       -1.75607502010178        6.11272253843179
H            0.86101263780739       -0.09254087998191       -1.45293230966547
H            1.26290192217128       -0.89377377212102        0.07428160422085
H            2.18199307822928        0.53031361703936       -0.44842093654700
H           -1.24082728797271        1.14445388358265       -1.27686477801918
H           -2.41194630338896        2.73476202445430        0.62241417073517
H            1.24376424913758        1.26112531282198        3.41882904106624
H            1.88565083100246        0.12107322489896        2.23414438951743
H            2.35258554611413        1.81697507608940        2.16106219188424
H           -0.05470068650378        3.00977889166395        3.55273201998232
H           -1.32971243481392        3.89793559172863        2.69527108107957
H           -2.25369544946367        2.83394172828976        4.65995446833617
H           -2.93968199078841        2.03845756237266        3.23541871693620
H           -2.33814203340854        0.42558699701445        4.98218691217120
H           -1.36056474828498        0.13270419906443        3.52316601981808
H            2.25057868320774        1.00987633994220        5.63936141393593
H            0.74678404198979       -2.97457073603561        7.07521774236906
H           -1.97714663013745       -1.88564418218316        5.10015584591993
H           -1.62862769720491       -2.72253240576342        6.60906515291159
H           -2.25481212621346       -1.07956272871827        6.65563169196173

          :  Hamiltonian                  GFN2-xTB          :
         :: total energy             -50.319393810404 Eh    ::
         :: gradient norm              0.000336349699 Eh/a0 ::
         :: HOMO-LUMO gap              2.025632972730 eV    ::
         :: SCC energy               -51.023502585632 Eh    ::
         :: -> dispersion             -0.034165496195 Eh    ::
         :: repulsion energy           0.704108775229 Eh    ::

    * Orbital Energies and Occupations

         #    Occupation            Energy/Eh            Energy/eV
      -------------------------------------------------------------
         1        2.0000           -0.8858984             -24.1065
       ...           ...                  ...                  ...
        34        2.0000           -0.5937139             -16.1558
        35        2.0000           -0.5880889             -16.0027
        36        2.0000           -0.5867946             -15.9675
        37        2.0000           -0.5795164             -15.7694
        38        2.0000           -0.5700868             -15.5129
        39        2.0000           -0.5666076             -15.4182
        40        2.0000           -0.5644540             -15.3596
        41        2.0000           -0.5539330             -15.0733
        42        2.0000           -0.5433523             -14.7854
        43        2.0000           -0.5397259             -14.6867
        44        2.0000           -0.5263520             -14.3228
        45        2.0000           -0.4754356             -12.9373
        46        2.0000           -0.4665614             -12.6958 (HOMO)
        47                         -0.3921208             -10.6701 (LUMO)
        48                         -0.3606225              -9.8130
        49                         -0.3274888              -8.9114
        50                         -0.2835822              -7.7167
        51                         -0.2558638              -6.9624
        52                         -0.1951704              -5.3109
        53                         -0.1814527              -4.9376
        54                         -0.1260691              -3.4305
        55                         -0.0974591              -2.6520
        56                         -0.0728722              -1.9830
        57                         -0.0654325              -1.7805
       ...                                ...                  ...
        92                          0.5868187              15.9682
      -------------------------------------------------------------
                  HL-Gap            0.0744406 Eh            2.0256 eV

     #   Z          covCN         q      C6AA      α(0)
     1   6 C        3.692    -0.079    22.209     6.743
     2   7 N        2.873     0.044    20.462     6.718
     3   6 C        3.044    -0.011    28.251     8.718
     4   6 C        3.053    -0.012    28.254     8.717
     5   7 N        2.870     0.042    20.501     6.725
     6   6 C        3.099     0.108    25.497     8.275
     7   6 C        3.754    -0.143    23.318     6.885
     8   6 C        3.742    -0.025    21.100     6.553
     9   6 C        3.801    -0.076    21.950     6.670
    10   6 C        3.686     0.081    19.422     6.309
    11   8 O        1.704    -0.304    19.064     5.895
    12   6 C        3.054     0.110    25.517     8.284
    13   6 C        2.935    -0.066    29.651     8.930
    14  16 S        2.272     0.012   140.585    19.956
    15   6 C        2.955    -0.036    28.905     8.818
    16   6 C        3.131    -0.025    28.404     8.725
    17   6 C        3.756    -0.104    22.547     6.770
    18   1 H        0.925     0.102     1.767     2.079
    19   1 H        0.924     0.095     1.831     2.116
    20   1 H        0.924     0.098     1.805     2.101
    21   1 H        0.927     0.102     1.771     2.081
    22   1 H        0.927     0.101     1.772     2.081
    23   1 H        0.925     0.115     1.650     2.009
    24   1 H        0.925     0.095     1.835     2.118
    25   1 H        0.924     0.100     1.784     2.089
    26   1 H        0.925     0.101     1.774     2.083
    27   1 H        0.924     0.088     1.895     2.153
    28   1 H        0.925     0.089     1.892     2.151
    29   1 H        0.924     0.061     2.183     2.311
    30   1 H        0.924     0.059     2.210     2.325
    31   1 H        0.923     0.017     2.774     2.605
    32   1 H        0.926     0.051     2.310     2.376
    33   1 H        0.926     0.060     2.195     2.317
    34   1 H        0.925     0.042     2.428     2.437
    35   1 H        0.925     0.056     2.246     2.344
    36   1 H        0.925     0.052     2.296     2.370

Wiberg/Mayer (AO) data.
largest (>0.10) Wiberg bond orders for each atom

     #   Z sym  total        # sym  WBO       # sym  WBO       # sym  WBO
 ---------------------------------------------------------------------------
     1   6 C    3.939 --     2 N    0.992    18 H    0.975    20 H    0.966
                            19 H    0.963
     2   7 N    3.692 --     6 C    1.320     3 C    1.208     1 C    0.992
     3   6 C    3.949 --     4 C    1.612     2 N    1.208    21 H    0.962
     4   6 C    3.950 --     3 C    1.612     5 N    1.207    22 H    0.962
     5   7 N    3.695 --     6 C    1.330     4 C    1.207     8 C    0.970
     6   6 C    3.951 --     5 N    1.330     2 N    1.320     7 C    1.049
     7   6 C    3.973 --     6 C    1.049    24 H    0.961    23 H    0.953
                            25 H    0.942
     8   6 C    3.941 --     9 C    0.990     5 N    0.970    27 H    0.961
                            26 H    0.960
     9   6 C    3.987 --    10 C    1.003     8 C    0.990    29 H    0.973
                            28 H    0.966
    10   6 C    3.954 --     9 C    1.003    11 O    0.975    31 H    0.969
                            30 H    0.961
    11   8 O    2.168 --    12 C    1.006    10 C    0.975
    12   6 C    3.921 --    13 C    1.547    16 C    1.211    11 O    1.006
    13   6 C    3.933 --    12 C    1.547    14 S    1.197    32 H    0.969
                            15 C    0.114
    14  16 S    2.657 --    15 C    1.206    13 C    1.197
    15   6 C    3.947 --    16 C    1.593    14 S    1.206    33 H    0.969
                            13 C    0.114
    16   6 C    3.982 --    15 C    1.593    12 C    1.211    17 C    1.021
    17   6 C    3.995 --    16 C    1.021    35 H    0.982    34 H    0.972
                            36 H    0.970
    18   1 H    0.989 --     1 C    0.975
    19   1 H    0.991 --     1 C    0.963
    20   1 H    0.990 --     1 C    0.966
    21   1 H    0.989 --     3 C    0.962
    22   1 H    0.990 --     4 C    0.962
    23   1 H    0.986 --     7 C    0.953
    24   1 H    0.991 --     7 C    0.961
    25   1 H    0.990 --     7 C    0.942
    26   1 H    0.989 --     8 C    0.960
    27   1 H    0.992 --     8 C    0.961
    28   1 H    0.991 --     9 C    0.966
    29   1 H    0.996 --     9 C    0.973
    30   1 H    0.996 --    10 C    0.961
    31   1 H    1.000 --    10 C    0.969
    32   1 H    0.997 --    13 C    0.969
    33   1 H    0.996 --    15 C    0.969
    34   1 H    0.998 --    17 C    0.972
    35   1 H    0.996 --    17 C    0.982
    36   1 H    0.997 --    17 C    0.970
 ---------------------------------------------------------------------------

molecular dipole:
                 x           y           z       tot (Debye)
 q only:       -0.364       2.215       2.714
   full:       -0.716       2.182       2.628       8.870

           -------------------------------------------------
          | TOTAL ENERGY              -50.319393810404 Eh   |
          | GRADIENT NORM               0.000336349699 Eh/α |
          | HOMO-LUMO GAP               2.025632972730 eV   |
           -------------------------------------------------

 * finished run on 2024/12/20 at 07:00:01.766
