   * xtb version 6.7.1 (edcfbbe) compiled by 'conda@3ef47c1a292c' on 2024-11-25

   ID    Z sym.   atoms
    1    6 C      1-8, 10-33
    2    7 N      9
    3    1 H      34-101

          program call               : xtb C0837.xyz --opt --namespace C0837 --charge +1
          :  Hamiltonian                  GFN2-xTB          :
 * total energy  :  -105.7374542 Eh     change       -0.3248317E-09 Eh
 * total energy  :  -105.7487113 Eh     change       -0.1125705E-01 Eh
 * total energy  :  -105.7518515 Eh     change       -0.3140214E-02 Eh
 * total energy  :  -105.7524482 Eh     change       -0.5967010E-03 Eh
 * total energy  :  -105.7529645 Eh     change       -0.5162926E-03 Eh
 * total energy  :  -105.7533252 Eh     change       -0.3607047E-03 Eh
 * total energy  :  -105.7536582 Eh     change       -0.3329976E-03 Eh
 * total energy  :  -105.7540004 Eh     change       -0.3421606E-03 Eh
 * total energy  :  -105.7543971 Eh     change       -0.3967746E-03 Eh
 * total energy  :  -105.7548885 Eh     change       -0.4914071E-03 Eh
 * total energy  :  -105.7820526 Eh     change        0.1153063E-04 Eh
 * total energy  :  -105.7820876 Eh     change       -0.3502415E-04 Eh
 * total energy  :  -105.7821064 Eh     change       -0.1881349E-04 Eh
 * total energy  :  -105.7821212 Eh     change       -0.1479340E-04 Eh
 * total energy  :  -105.7821373 Eh     change       -0.1606247E-04 Eh
 * total energy  :  -105.7821459 Eh     change       -0.8665700E-05 Eh
 * total energy  :  -105.7821560 Eh     change       -0.1009108E-04 Eh
 * total energy  :  -105.7821646 Eh     change       -0.8555952E-05 Eh
 * total energy  :  -105.7821692 Eh     change       -0.4602340E-05 Eh
   *** GEOMETRY OPTIMIZATION CONVERGED AFTER 171 ITERATIONS ***

 final structure:
================
101
 xtb: 6.7.1 (edcfbbe)
C            2.46053819052576       -0.33894783191985       -2.31798515053434
C            1.87584281675326        0.88601587385517       -3.01153322130676
C            1.79090730905433        0.74127937414169       -4.53199794511766
C            0.83961556579868       -0.35116504558547       -5.02528817656312
C           -0.61567318396732       -0.08800989660888       -4.63783686159990
C           -1.61787828223248       -0.92946924550936       -5.43067728921822
C           -1.45693475932210       -2.44883466533561       -5.30193370101802
C           -1.75594142380219       -3.16201029085626       -3.97487594495764
N           -3.16975503150509       -3.17992607247056       -3.46738042536230
C           -4.16585440582742       -3.22356345947094       -4.58789420118051
C           -4.19762315270374       -4.47057655790640       -5.46892391518137
C           -5.13267442535752       -4.24026117672728       -6.66524823730317
C           -4.54545229921076       -3.38569011380469       -7.79023794032932
C           -3.39843716721399       -4.03926324142261       -8.56579354691358
C           -3.74799826346630       -5.36114106770232       -9.25391311285773
C           -4.92404593104126       -5.29420252499664      -10.22904484358857
C           -4.69250000045411       -4.32956523033312      -11.38583467709373
C           -3.40237428749553       -4.36017464232311       -2.56367159906496
C           -2.72217184328541       -5.69792882306985       -2.87364185967539
C           -3.38219095358304       -6.80907271836922       -2.04398593988680
C           -4.73229225513886       -7.26095263554990       -2.59851283034657
C           -5.31802182213574       -8.44769996651702       -1.83063606751144
C           -5.64278531144952       -8.17256117940841       -0.36053215310496
C           -6.61980017262831       -7.02128674322915       -0.11410299824467
C           -7.98336218240060       -7.23969732665190       -0.75899296870816
C           -3.43019031367745       -1.88081283081951       -2.72018215193465
C           -3.40921639277085       -1.84836783345779       -1.18701517841546
C           -2.07328900820118       -2.05695212178644       -0.46188734556514
C           -1.01348351612020       -0.98175032943365       -0.71023837915226
C           -1.44346893272708        0.45318962090693       -0.40286390211702
C           -1.89807572751978        0.69292728343505        1.03813613599460
C           -0.84861643743998        0.36955128530035        2.10324970282189
C            0.42352137332539        1.19761704003955        1.96593379275001
H            1.82692736832242       -1.21371861740271       -2.44714567560308
H            2.56555460974564       -0.15363755053460       -1.25167189272784
H            3.44402435491133       -0.56785508831608       -2.72086231542555
H            0.88723545042949        1.10630841717151       -2.60394979607354
H            2.51279921732801        1.74469228741000       -2.79168570011251
H            1.47455900643681        1.69705297867309       -4.95566885984173
H            2.78953769040253        0.52623779147212       -4.91735568509578
H            0.91116675684196       -0.39411850285982       -6.11451360145387
H            1.16870787730073       -1.31527299664968       -4.63427357343644
H           -0.74178352261880       -0.24888531644223       -3.56702124276248
H           -0.84163063802541        0.96270047885584       -4.83125389822261
H           -2.63323692485655       -0.61307316933645       -5.17864236338737
H           -1.47685497668334       -0.69790327825587       -6.48911926427453
H           -2.03227810893745       -2.91414513933015       -6.10056870642842
H           -0.41021678197406       -2.68048595737500       -5.50951552643701
H           -1.45416294634087       -4.19586966304063       -4.13081332170046
H           -1.13566961297685       -2.75252643732359       -3.17727065980259
H           -5.15666084304817       -3.12200406947195       -4.13742575302745
H           -3.99398325362128       -2.34720398789053       -5.21162901350270
H           -3.20781019022653       -4.73263903765479       -5.83785670087549
H           -4.58862567423070       -5.31344315373941       -4.90034639766990
H           -5.40683954393075       -5.21115080323449       -7.07558474251075
H           -6.05268707893086       -3.77180916717109       -6.30847631461434
H           -5.35025766942657       -3.15901962414150       -8.48928985329776
H           -4.19731579077916       -2.42760338766898       -7.39426673812550
H           -3.05842380133401       -3.32849841150805       -9.31978786998842
H           -2.54911029462778       -4.22253232945503       -7.90152811882163
H           -2.86300049451708       -5.69233645921466       -9.80186427670207
H           -3.95969536335857       -6.12245157824831       -8.49936032517572
H           -5.07910897034302       -6.29674544255273      -10.63347832673665
H           -5.83689955939995       -5.01662960436788       -9.69837663711279
H           -3.76490694644500       -4.56943917790141      -11.90113771630442
H           -5.50789611731987       -4.40166609897567      -12.10106488263331
H           -4.63916805887658       -3.29992778722438      -11.03986893658801
H           -3.06831233691506       -4.09233821586648       -1.56665013820096
H           -4.48206313937872       -4.50861279003913       -2.52621377720260
H           -2.78141947148957       -5.97533762256236       -3.92367027948701
H           -1.66880683950752       -5.64904700346853       -2.59022395795838
H           -2.71218865576226       -7.66962006552305       -2.03507622136721
H           -3.49500610401013       -6.47057717548023       -1.01356449088348
H           -5.45155360694099       -6.44020595224532       -2.58290532561328
H           -4.60018568448794       -7.56613070095130       -3.64011366648827
H           -6.22555252673943       -8.77205120691349       -2.34121499015033
H           -4.60877745047767       -9.27692455002616       -1.87358170931693
H           -6.07306273401840       -9.08380379025029        0.05881801198528
H           -4.71895991734876       -7.97404023131088        0.18685398704738
H           -6.75470300323431       -6.92141935150268        0.96500368686012
H           -6.19132473115950       -6.08087498156153       -0.47076035812217
H           -8.40509048436918       -8.18795051799359       -0.43613909801872
H           -8.66919616522243       -6.44665941296156       -0.46992446998637
H           -7.91300566656611       -7.24782890391606       -1.84399650145122
H           -2.70874004476715       -1.15459551313655       -3.08598979160828
H           -4.42285618831759       -1.53293662221812       -3.00953725348104
H           -3.75997261240503       -0.84547191008824       -0.93449472231839
H           -4.15533005863379       -2.53288862679168       -0.77980942464102
H           -2.29605176825880       -2.07878425160240        0.60574790893628
H           -1.62867711392577       -3.02495261778119       -0.70783631440565
H           -0.14577883657353       -1.22767227591754       -0.09730578148982
H           -0.67843414048418       -1.02515576182810       -1.74875928658223
H           -0.59666455170543        1.10699912657574       -0.61555601861870
H           -2.24981857157749        0.75420241995693       -1.07740559227625
H           -2.17017124332449        1.74663064933797        1.12981287487078
H           -2.79863490619749        0.10939343304597        1.24366465901199
H           -1.29297439772954        0.56826351073279        3.08068560138124
H           -0.59731364253338       -0.69269519329750        2.07437134169019
H            0.18592353450374        2.25851827842771        1.94162433233475
H            1.08115068115276        1.01534175172751        2.81196541702951
H            0.96665543673175        0.94493905241889        1.05847896650235

          :  Hamiltonian                  GFN2-xTB          :
         :: total energy            -105.782169186942 Eh    ::
         :: gradient norm              0.000530967283 Eh/a0 ::
         :: HOMO-LUMO gap              7.091222863101 eV    ::
         :: SCC energy              -107.329673457279 Eh    ::
         :: -> dispersion             -0.092590806597 Eh    ::
         :: repulsion energy           1.547504270337 Eh    ::

    * Orbital Energies and Occupations

         #    Occupation            Energy/Eh            Energy/eV
      -------------------------------------------------------------
         1        2.0000           -0.8309853             -22.6123
       ...           ...                  ...                  ...
        88        2.0000           -0.5217761             -14.1982
        89        2.0000           -0.5053944             -13.7525
        90        2.0000           -0.5051564             -13.7460
        91        2.0000           -0.5036174             -13.7041
        92        2.0000           -0.5017986             -13.6546
        93        2.0000           -0.5016135             -13.6496
        94        2.0000           -0.5007548             -13.6262
        95        2.0000           -0.5003173             -13.6143
        96        2.0000           -0.4989741             -13.5778
        97        2.0000           -0.4980807             -13.5535
        98        2.0000           -0.4977713             -13.5450
        99        2.0000           -0.4951813             -13.4746
       100        2.0000           -0.4934943             -13.4287 (HOMO)
       101                         -0.2328967              -6.3374 (LUMO)
       102                         -0.1707683              -4.6468
       103                         -0.1550902              -4.2202
       104                         -0.1501888              -4.0868
       105                         -0.0713100              -1.9404
       106                         -0.0631925              -1.7196
       107                         -0.0543870              -1.4799
       108                         -0.0472818              -1.2866
       109                         -0.0402937              -1.0964
       110                         -0.0366541              -0.9974
       111                         -0.0294919              -0.8025
       ...                                ...                  ...
       200                          0.2643723               7.1939
      -------------------------------------------------------------
                  HL-Gap            0.2605976 Eh            7.0912 eV

     #   Z          covCN         q      C6AA      α(0)
     1   6 C        3.751    -0.101    22.496     6.764
     2   6 C        3.799    -0.055    21.562     6.611
     3   6 C        3.801    -0.062    21.694     6.631
     4   6 C        3.801    -0.061    21.669     6.628
     5   6 C        3.801    -0.063    21.708     6.634
     6   6 C        3.799    -0.065    21.751     6.640
     7   6 C        3.798    -0.078    21.985     6.676
     8   6 C        3.745    -0.034    21.257     6.577
     9   7 N        3.612     0.096    19.581     6.572
    10   6 C        3.758    -0.030    21.168     6.559
    11   6 C        3.799    -0.069    21.824     6.651
    12   6 C        3.802    -0.066    21.773     6.643
    13   6 C        3.800    -0.062    21.702     6.633
    14   6 C        3.800    -0.058    21.624     6.621
    15   6 C        3.800    -0.060    21.659     6.626
    16   6 C        3.799    -0.055    21.562     6.612
    17   6 C        3.751    -0.105    22.568     6.775
    18   6 C        3.751    -0.040    21.357     6.591
    19   6 C        3.799    -0.071    21.856     6.656
    20   6 C        3.803    -0.067    21.780     6.644
    21   6 C        3.800    -0.058    21.627     6.621
    22   6 C        3.801    -0.062    21.698     6.632
    23   6 C        3.801    -0.062    21.698     6.632
    24   6 C        3.799    -0.051    21.488     6.600
    25   6 C        3.751    -0.105    22.567     6.775
    26   6 C        3.752    -0.041    21.373     6.593
    27   6 C        3.798    -0.074    21.909     6.665
    28   6 C        3.799    -0.065    21.742     6.639
    29   6 C        3.800    -0.060    21.658     6.626
    30   6 C        3.800    -0.060    21.653     6.625
    31   6 C        3.801    -0.061    21.670     6.628
    32   6 C        3.799    -0.054    21.547     6.609
    33   6 C        3.751    -0.105    22.559     6.773
    34   1 H        0.925     0.024     2.676     2.558
    35   1 H        0.925     0.035     2.522     2.484
    36   1 H        0.925     0.040     2.444     2.445
    37   1 H        0.924     0.027     2.632     2.537
    38   1 H        0.924     0.038     2.479     2.462
    39   1 H        0.924     0.035     2.518     2.482
    40   1 H        0.924     0.041     2.442     2.444
    41   1 H        0.924     0.035     2.519     2.482
    42   1 H        0.924     0.031     2.579     2.511
    43   1 H        0.925     0.028     2.613     2.528
    44   1 H        0.924     0.044     2.393     2.419
    45   1 H        0.924     0.024     2.666     2.554
    46   1 H        0.924     0.052     2.298     2.370
    47   1 H        0.925     0.059     2.208     2.324
    48   1 H        0.924     0.070     2.083     2.257
    49   1 H        0.925     0.080     1.979     2.200
    50   1 H        0.924     0.082     1.962     2.190
    51   1 H        0.924     0.068     2.112     2.273
    52   1 H        0.925     0.084     1.937     2.176
    53   1 H        0.925     0.054     2.268     2.355
    54   1 H        0.925     0.055     2.263     2.352
    55   1 H        0.925     0.060     2.196     2.317
    56   1 H        0.924     0.036     2.499     2.472
    57   1 H        0.925     0.052     2.290     2.367
    58   1 H        0.924     0.021     2.723     2.581
    59   1 H        0.924     0.043     2.410     2.428
    60   1 H        0.924     0.018     2.771     2.603
    61   1 H        0.924     0.038     2.478     2.462
    62   1 H        0.924     0.026     2.647     2.544
    63   1 H        0.924     0.035     2.512     2.478
    64   1 H        0.924     0.030     2.586     2.515
    65   1 H        0.925     0.038     2.471     2.458
    66   1 H        0.925     0.039     2.458     2.452
    67   1 H        0.925     0.033     2.541     2.493
    68   1 H        0.925     0.091     1.868     2.137
    69   1 H        0.924     0.078     1.996     2.209
    70   1 H        0.925     0.055     2.259     2.351
    71   1 H        0.924     0.046     2.372     2.409
    72   1 H        0.924     0.055     2.257     2.349
    73   1 H        0.924     0.045     2.381     2.413
    74   1 H        0.924     0.029     2.606     2.524
    75   1 H        0.924     0.030     2.583     2.513
    76   1 H        0.924     0.045     2.388     2.417
    77   1 H        0.924     0.037     2.495     2.470
    78   1 H        0.924     0.042     2.418     2.432
    79   1 H        0.924     0.029     2.602     2.522
    80   1 H        0.924     0.034     2.531     2.488
    81   1 H        0.924     0.016     2.796     2.615
    82   1 H        0.925     0.042     2.416     2.431
    83   1 H        0.925     0.035     2.520     2.482
    84   1 H        0.925     0.033     2.551     2.497
    85   1 H        0.925     0.097     1.815     2.107
    86   1 H        0.924     0.070     2.082     2.257
    87   1 H        0.924     0.077     2.013     2.219
    88   1 H        0.924     0.048     2.346     2.395
    89   1 H        0.924     0.056     2.244     2.343
    90   1 H        0.924     0.026     2.644     2.543
    91   1 H        0.924     0.050     2.320     2.382
    92   1 H        0.924     0.022     2.702     2.570
    93   1 H        0.924     0.045     2.377     2.411
    94   1 H        0.924     0.021     2.723     2.581
    95   1 H        0.924     0.038     2.471     2.458
    96   1 H        0.924     0.025     2.653     2.547
    97   1 H        0.924     0.035     2.512     2.479
    98   1 H        0.924     0.028     2.613     2.528
    99   1 H        0.925     0.039     2.461     2.453
   100   1 H        0.925     0.039     2.464     2.455
   101   1 H        0.925     0.033     2.550     2.497

Wiberg/Mayer (AO) data.
largest (>0.10) Wiberg bond orders for each atom

     #   Z sym  total        # sym  WBO       # sym  WBO       # sym  WBO
 ---------------------------------------------------------------------------
     1   6 C    3.997 --     2 C    1.020    36 H    0.987    35 H    0.987
                            34 H    0.985
     2   6 C    3.997 --     1 C    1.020     3 C    1.008    38 H    0.978
                            37 H    0.975
     3   6 C    3.996 --     2 C    1.008     4 C    1.006    39 H    0.977
                            40 H    0.976
     4   6 C    3.997 --     5 C    1.008     3 C    1.006    41 H    0.976
                            42 H    0.974
     5   6 C    3.995 --     4 C    1.008     6 C    1.006    44 H    0.974
                            43 H    0.961
     6   6 C    3.993 --     5 C    1.006     7 C    1.005    46 H    0.972
                            45 H    0.970
     7   6 C    3.984 --     6 C    1.005     8 C    1.005    47 H    0.964
                            48 H    0.961
     8   6 C    3.934 --     7 C    1.005    50 H    0.964    49 H    0.961
                             9 N    0.931
     9   7 N    3.794 --    10 C    0.934     8 C    0.931    18 C    0.929
                            26 C    0.919
    10   6 C    3.935 --    11 C    1.005    51 H    0.967    52 H    0.958
                             9 N    0.934
    11   6 C    3.987 --    10 C    1.005    12 C    0.996    54 H    0.971
                            53 H    0.966
    12   6 C    3.991 --    13 C    1.008    11 C    0.996    56 H    0.976
                            55 H    0.970
    13   6 C    3.995 --    12 C    1.008    14 C    1.007    58 H    0.973
                            57 H    0.972
    14   6 C    3.997 --    13 C    1.007    15 C    1.007    59 H    0.975
                            60 H    0.971
    15   6 C    3.997 --    16 C    1.008    14 C    1.007    61 H    0.976
                            62 H    0.975
    16   6 C    3.997 --    17 C    1.020    15 C    1.008    63 H    0.978
                            64 H    0.976
    17   6 C    3.996 --    16 C    1.020    65 H    0.987    66 H    0.987
                            67 H    0.986
    18   6 C    3.931 --    19 C    1.005    69 H    0.963    68 H    0.955
                             9 N    0.929
    19   6 C    3.989 --    18 C    1.005    20 C    0.994    71 H    0.975
                            70 H    0.967
    20   6 C    3.990 --    21 C    1.009    19 C    0.994    72 H    0.974
                            73 H    0.973
    21   6 C    3.997 --    20 C    1.009    22 C    1.005    75 H    0.976
                            74 H    0.971
    22   6 C    3.995 --    23 C    1.008    21 C    1.005    77 H    0.977
                            76 H    0.974
    23   6 C    3.996 --    22 C    1.008    24 C    1.008    78 H    0.976
                            79 H    0.976
    24   6 C    3.998 --    25 C    1.020    23 C    1.008    80 H    0.978
                            81 H    0.976
    25   6 C    3.996 --    24 C    1.020    83 H    0.987    82 H    0.987
                            84 H    0.986
    26   6 C    3.930 --    27 C    1.007    86 H    0.969    85 H    0.958
                             9 N    0.919
    27   6 C    3.985 --    26 C    1.007    28 C    1.004    88 H    0.971
                            87 H    0.956
    28   6 C    3.993 --    29 C    1.006    27 C    1.004    89 H    0.971
                            90 H    0.969
    29   6 C    3.995 --    30 C    1.008    28 C    1.006    91 H    0.972
                            92 H    0.960
    30   6 C    3.996 --    29 C    1.008    31 C    1.007    94 H    0.974
                            93 H    0.971
    31   6 C    3.996 --    32 C    1.008    30 C    1.007    95 H    0.976
                            96 H    0.976
    32   6 C    3.997 --    33 C    1.020    31 C    1.008    97 H    0.978
                            98 H    0.976
    33   6 C    3.996 --    32 C    1.020    99 H    0.987   100 H    0.987
                           101 H    0.986
    34   1 H    0.999 --     1 C    0.985
    35   1 H    0.999 --     1 C    0.987
    36   1 H    0.998 --     1 C    0.987
    37   1 H    0.999 --     2 C    0.975
    38   1 H    0.998 --     2 C    0.978
    39   1 H    0.999 --     3 C    0.977
    40   1 H    0.998 --     3 C    0.976
    41   1 H    0.998 --     4 C    0.976
    42   1 H    0.999 --     4 C    0.974
    43   1 H    0.999 --     5 C    0.961
    44   1 H    0.998 --     5 C    0.974
    45   1 H    0.999 --     6 C    0.970
    46   1 H    0.997 --     6 C    0.972
    47   1 H    0.996 --     7 C    0.964
    48   1 H    0.995 --     7 C    0.961
    49   1 H    0.994 --     8 C    0.961
    50   1 H    0.993 --     8 C    0.964
    51   1 H    0.995 --    10 C    0.967
    52   1 H    0.993 --    10 C    0.958
    53   1 H    0.997 --    11 C    0.966
    54   1 H    0.997 --    11 C    0.971
    55   1 H    0.996 --    12 C    0.970
    56   1 H    0.999 --    12 C    0.976
    57   1 H    0.997 --    13 C    0.972
    58   1 H    1.000 --    13 C    0.973
    59   1 H    0.998 --    14 C    0.975
    60   1 H    1.000 --    14 C    0.971
    61   1 H    0.999 --    15 C    0.976
    62   1 H    0.999 --    15 C    0.975
    63   1 H    0.999 --    16 C    0.978
    64   1 H    0.999 --    16 C    0.976
    65   1 H    0.999 --    17 C    0.987
    66   1 H    0.998 --    17 C    0.987
    67   1 H    0.999 --    17 C    0.986
    68   1 H    0.992 --    18 C    0.955
    69   1 H    0.994 --    18 C    0.963
    70   1 H    0.997 --    19 C    0.967
    71   1 H    0.998 --    19 C    0.975
    72   1 H    0.997 --    20 C    0.974
    73   1 H    0.998 --    20 C    0.973
    74   1 H    0.999 --    21 C    0.971
    75   1 H    0.999 --    21 C    0.976
    76   1 H    0.998 --    22 C    0.974
    77   1 H    0.999 --    22 C    0.977
    78   1 H    0.998 --    23 C    0.976
    79   1 H    0.999 --    23 C    0.976
    80   1 H    0.999 --    24 C    0.978
    81   1 H    1.000 --    24 C    0.976
    82   1 H    0.998 --    25 C    0.987
    83   1 H    0.999 --    25 C    0.987
    84   1 H    0.999 --    25 C    0.986
    85   1 H    0.990 --    26 C    0.958
    86   1 H    0.995 --    26 C    0.969
    87   1 H    0.994 --    27 C    0.956
    88   1 H    0.997 --    27 C    0.971
    89   1 H    0.996 --    28 C    0.971
    90   1 H    0.999 --    28 C    0.969
    91   1 H    0.997 --    29 C    0.972
    92   1 H    1.000 --    29 C    0.960
    93   1 H    0.998 --    30 C    0.971
    94   1 H    1.000 --    30 C    0.974
    95   1 H    0.998 --    31 C    0.976
    96   1 H    0.999 --    31 C    0.976
    97   1 H    0.999 --    32 C    0.978
    98   1 H    0.999 --    32 C    0.976
    99   1 H    0.998 --    33 C    0.987
   100   1 H    0.998 --    33 C    0.987
   101   1 H    0.999 --    33 C    0.986
 ---------------------------------------------------------------------------

molecular dipole:
                 x           y           z       tot (Debye)
 q only:       -5.697      -6.056      -6.663
   full:       -5.751      -6.014      -6.627      27.037

           -------------------------------------------------
          | TOTAL ENERGY             -105.782169186942 Eh   |
          | GRADIENT NORM               0.000530967283 Eh/α |
          | HOMO-LUMO GAP               7.091222863101 eV   |
           -------------------------------------------------

 * finished run on 2024/12/20 at 07:00:33.297
