   * xtb version 6.7.1 (edcfbbe) compiled by 'conda@3ef47c1a292c' on 2024-11-25

   ID    Z sym.   atoms
    1    7 N      1, 5, 8
    2    6 C      2-4, 6, 7, 9, 10
    3    1 H      11-20

          program call               : xtb C0833.xyz --opt --namespace C0833 --charge +1
          :  Hamiltonian                  GFN2-xTB          :
 * total energy  :   -28.3957842 Eh     change       -0.4200622E-09 Eh
 * total energy  :   -28.4285991 Eh     change       -0.3281489E-01 Eh
 * total energy  :   -28.4304126 Eh     change       -0.1813464E-02 Eh
 * total energy  :   -28.4309888 Eh     change       -0.5762696E-03 Eh
 * total energy  :   -28.4312660 Eh     change       -0.2771594E-03 Eh
 * total energy  :   -28.4314258 Eh     change       -0.1598014E-03 Eh
 * total energy  :   -28.4315212 Eh     change       -0.9537108E-04 Eh
 * total energy  :   -28.4316269 Eh     change       -0.1057700E-03 Eh
 * total energy  :   -28.4317316 Eh     change       -0.1047026E-03 Eh
 * total energy  :   -28.4318284 Eh     change       -0.9676677E-04 Eh
 * total energy  :   -28.4367807 Eh     change       -0.3999370E-04 Eh
 * total energy  :   -28.4368031 Eh     change       -0.2235019E-04 Eh
 * total energy  :   -28.4368291 Eh     change       -0.2601282E-04 Eh
 * total energy  :   -28.4368401 Eh     change       -0.1103271E-04 Eh
 * total energy  :   -28.4368566 Eh     change       -0.1648807E-04 Eh
 * total energy  :   -28.4368655 Eh     change       -0.8857387E-05 Eh
 * total energy  :   -28.4368670 Eh     change       -0.1560032E-05 Eh
 * total energy  :   -28.4368735 Eh     change       -0.6527731E-05 Eh
 * total energy  :   -28.4368777 Eh     change       -0.4109143E-05 Eh
   *** GEOMETRY OPTIMIZATION CONVERGED AFTER 46 ITERATIONS ***

 final structure:
================
20
 xtb: 6.7.1 (edcfbbe)
N            1.38134817210849       -1.72588653902824        1.20028609279440
C            2.18139280276750       -1.04701381761201        0.74956445283831
C            3.27164935326043       -0.31164460199506        0.15409291751944
C            4.57037986728003       -1.13193442092804        0.28934139471191
N            4.35593000164895       -2.48922463650788       -0.15993825529990
C            4.45682559366486       -2.93921337456072       -1.44228695540287
C            4.05078953491177       -4.23845533012406       -1.44696025196211
N            3.70262808951894       -4.55964262610183       -0.16966680255860
C            3.89231062222875       -3.48910713580879        0.59071721548856
C            3.19049521868909       -5.83251915617718        0.25980065475210
H            3.03330109285650       -0.12272857697251       -0.89607117543051
H            3.38641614736767        0.64872967063435        0.66043082601479
H            5.36141021483782       -0.67765171556461       -0.31040752969702
H            4.88603060232559       -1.15826634318731        1.33497635672689
H            4.80980154888803       -2.32509205955775       -2.24561785532460
H            3.98886419899492       -4.93800198544113       -2.25573438537121
H            3.69734465002588       -3.43406382455034        1.64463771511492
H            3.82805232110603       -6.63572172054607       -0.10910010261135
H            3.15399976395268       -5.87087540067360        1.34599760686092
H            2.18274020356534       -5.98058640529793       -0.13184191916209

          :  Hamiltonian                  GFN2-xTB          :
         :: total energy             -28.436877657008 Eh    ::
         :: gradient norm              0.000769126376 Eh/a0 ::
         :: HOMO-LUMO gap              3.910085338141 eV    ::
         :: SCC energy               -28.914693870015 Eh    ::
         :: -> dispersion             -0.014880846080 Eh    ::
         :: repulsion energy           0.477816213007 Eh    ::

    * Orbital Energies and Occupations

         #    Occupation            Energy/Eh            Energy/eV
      -------------------------------------------------------------
         1        2.0000           -0.9073078             -24.6891
       ...           ...                  ...                  ...
        14        2.0000           -0.7032741             -19.1371
        15        2.0000           -0.6914068             -18.8141
        16        2.0000           -0.6824399             -18.5701
        17        2.0000           -0.6694165             -18.2158
        18        2.0000           -0.6618717             -18.0104
        19        2.0000           -0.6596726             -17.9506
        20        2.0000           -0.6442389             -17.5306
        21        2.0000           -0.6399778             -17.4147
        22        2.0000           -0.6215711             -16.9138
        23        2.0000           -0.6066749             -16.5085
        24        2.0000           -0.6023014             -16.3895
        25        2.0000           -0.5970188             -16.2457
        26        2.0000           -0.5619340             -15.2910 (HOMO)
        27                         -0.4182410             -11.3809 (LUMO)
        28                         -0.3822524             -10.4016
        29                         -0.3488083              -9.4916
        30                         -0.3412286              -9.2853
        31                         -0.1979790              -5.3873
        32                         -0.1410364              -3.8378
        33                         -0.0711448              -1.9359
        34                         -0.0618808              -1.6839
        35                         -0.0589172              -1.6032
        36                         -0.0364919              -0.9930
        37                         -0.0247208              -0.6727
       ...                                ...                  ...
        50                          1.0044888              27.3335
      -------------------------------------------------------------
                  HL-Gap            0.1436930 Eh            3.9101 eV

     #   Z          covCN         q      C6AA      α(0)
     1   7 N        0.911    -0.206    25.475     7.300
     2   6 C        1.900     0.112    28.340     8.598
     3   6 C        3.804    -0.066    21.769     6.642
     4   6 C        3.750    -0.018    20.955     6.529
     5   7 N        2.871     0.061    20.184     6.673
     6   6 C        3.067    -0.005    28.075     8.688
     7   6 C        3.074    -0.007    28.127     8.696
     8   7 N        2.868     0.087    19.724     6.596
     9   6 C        3.096     0.049    26.784     8.482
    10   6 C        3.693    -0.090    22.407     6.773
    11   1 H        0.924     0.097     1.810     2.104
    12   1 H        0.924     0.113     1.672     2.022
    13   1 H        0.924     0.100     1.784     2.089
    14   1 H        0.924     0.094     1.839     2.121
    15   1 H        0.926     0.111     1.692     2.034
    16   1 H        0.926     0.116     1.648     2.007
    17   1 H        0.926     0.122     1.600     1.978
    18   1 H        0.925     0.111     1.689     2.032
    19   1 H        0.925     0.105     1.738     2.062
    20   1 H        0.924     0.114     1.660     2.015

Wiberg/Mayer (AO) data.
largest (>0.10) Wiberg bond orders for each atom

     #   Z sym  total        # sym  WBO       # sym  WBO       # sym  WBO
 ---------------------------------------------------------------------------
     1   7 N    3.018 --     2 C    2.863
     2   6 C    3.950 --     1 N    2.863     3 C    1.051
     3   6 C    3.987 --     2 C    1.051     4 C    0.964    11 H    0.943
                            12 H    0.937
     4   6 C    3.944 --     5 N    0.976    14 H    0.966     3 C    0.964
                            13 H    0.963
     5   7 N    3.707 --     9 C    1.348     6 C    1.223     4 C    0.976
     6   6 C    3.948 --     7 C    1.596     5 N    1.223    15 H    0.961
     7   6 C    3.947 --     6 C    1.596     8 N    1.225    16 H    0.960
     8   7 N    3.730 --     9 C    1.377     7 C    1.225    10 C    0.989
     9   6 C    3.946 --     8 N    1.377     5 N    1.348    17 H    0.951
    10   6 C    3.928 --     8 N    0.989    19 H    0.974    18 H    0.964
                            20 H    0.957
    11   1 H    0.991 --     3 C    0.943
    12   1 H    0.987 --     3 C    0.937
    13   1 H    0.990 --     4 C    0.963
    14   1 H    0.991 --     4 C    0.966
    15   1 H    0.987 --     6 C    0.961
    16   1 H    0.987 --     7 C    0.960
    17   1 H    0.985 --     9 C    0.951
    18   1 H    0.987 --    10 C    0.964
    19   1 H    0.989 --    10 C    0.974
    20   1 H    0.986 --    10 C    0.957
 ---------------------------------------------------------------------------

molecular dipole:
                 x           y           z       tot (Debye)
 q only:        7.984      -6.181      -0.552
   full:        8.314      -5.866      -0.683      25.921

           -------------------------------------------------
          | TOTAL ENERGY              -28.436877657008 Eh   |
          | GRADIENT NORM               0.000769126376 Eh/α |
          | HOMO-LUMO GAP               3.910085338141 eV   |
           -------------------------------------------------

 * finished run on 2024/12/20 at 07:00:02.983
