   * xtb version 6.7.1 (edcfbbe) compiled by 'conda@3ef47c1a292c' on 2024-11-25

   ID    Z sym.   atoms
    1    6 C      1-16, 18-23, 26-28
    2    7 N      17
    3    8 O      24, 25
    4    1 H      29-80

          program call               : xtb C0836.xyz --opt --namespace C0836 --charge +1
          :  Hamiltonian                  GFN2-xTB          :
 * total energy  :   -90.7414925 Eh     change       -0.6535430E-09 Eh
 * total energy  :   -90.7507179 Eh     change       -0.9225381E-02 Eh
 * total energy  :   -90.7526679 Eh     change       -0.1950059E-02 Eh
 * total energy  :   -90.7528462 Eh     change       -0.1783223E-03 Eh
 * total energy  :   -90.7529902 Eh     change       -0.1439855E-03 Eh
 * total energy  :   -90.7530982 Eh     change       -0.1079329E-03 Eh
 * total energy  :   -90.7532605 Eh     change       -0.1623471E-03 Eh
 * total energy  :   -90.7534601 Eh     change       -0.1996359E-03 Eh
 * total energy  :   -90.7536977 Eh     change       -0.2375652E-03 Eh
 * total energy  :   -90.7539774 Eh     change       -0.2797398E-03 Eh
 * total energy  :   -90.7587913 Eh     change       -0.9273620E-05 Eh
 * total energy  :   -90.7588026 Eh     change       -0.1125816E-04 Eh
 * total energy  :   -90.7588151 Eh     change       -0.1251774E-04 Eh
 * total energy  :   -90.7588285 Eh     change       -0.1340416E-04 Eh
 * total energy  :   -90.7588420 Eh     change       -0.1349384E-04 Eh
 * total energy  :   -90.7588539 Eh     change       -0.1189670E-04 Eh
 * total energy  :   -90.7588620 Eh     change       -0.8146830E-05 Eh
 * total energy  :   -90.7588676 Eh     change       -0.5521718E-05 Eh
 * total energy  :   -90.7588720 Eh     change       -0.4409420E-05 Eh
   *** GEOMETRY OPTIMIZATION CONVERGED AFTER 113 ITERATIONS ***

 final structure:
================
80
 xtb: 6.7.1 (edcfbbe)
C            1.35026508756666       -0.57525621165238       -0.44985744385707
C            1.44929762184232       -0.40956039113283        1.06197229472015
C            1.55991735481478        1.05042407136997        1.50395251161904
C            0.35919395513031        1.92710496892244        1.14220204853722
C           -0.97852044509099        1.46382830094540        1.72184735337397
C           -1.03001420955231        1.38599623041646        3.24900427148060
C           -0.73533042360347        2.70051416813380        3.97478922382029
C           -1.64071673266825        3.87086809163846        3.58600319510717
C           -3.13665927985354        3.62531763915523        3.78981495797484
C           -3.55375257283721        3.33699118926312        5.23311793263126
C           -3.24671320094269        4.45446560035001        6.23276530380511
C           -3.84282532657723        5.81931466420039        5.88009346644987
C           -5.35918504157976        5.82401397970796        5.67705022549210
C           -6.17944521307477        5.37731642154040        6.88930719284118
C           -5.95492238522008        6.18920371127641        8.17255379445917
C           -6.11210593031789        7.70977145600776        8.06555067699145
N           -7.47491092704931        8.28744882039891        8.29413686930031
C           -7.92760138608253        8.12106193231323        9.71165941351519
C           -7.14756144315009        8.90161317018780       10.77718874232641
C           -7.85066692079118       10.17292021969162       11.26480683027273
C           -9.06973994773919        9.90635893195805       12.15216572234358
C           -8.71283762742109        9.39936004878392       13.55627947645978
C           -7.89689230678321       10.42606247039697       14.31807193145736
O           -6.77686709998499       10.75878961766708       14.01961736794563
O           -8.59023826436473       10.91985870106535       15.33536223231413
C           -7.97471486399458       11.90855278782693       16.15672093067830
C           -7.42972318414769        9.71777898346855        7.93567149324073
C           -8.46761190215680        7.63353498890395        7.42223044545037
H            0.42363515192463       -0.15417019983882       -0.83137493579216
H            1.37583618634842       -1.62952540827255       -0.71589281069213
H            2.18331675070868       -0.07818991792230       -0.94211587597248
H            0.58523389542482       -0.87765882527250        1.53678763668149
H            2.33825488420880       -0.93745011924413        1.41589138180325
H            1.71544841274381        1.07780018104531        2.58459532369739
H            2.44769031034744        1.48698001036433        1.03889170437960
H            0.56640485765728        2.94461983875323        1.48101945978378
H            0.26252551596982        1.96837627613474        0.05551531168562
H           -1.75748381875209        2.14317170466628        1.36781286014910
H           -1.21719458058934        0.47550097177708        1.32441693657022
H           -2.02011766981027        1.02660395469750        3.53969163774365
H           -0.30993052238251        0.64134420931449        3.59335501344178
H           -0.81394550817625        2.52242719354658        5.04995628538645
H            0.29746671115479        2.99377249195184        3.77743404647193
H           -1.33365289521052        4.74773873825746        4.16109328039390
H           -1.47954893880019        4.11010197582346        2.53332570766341
H           -3.68084015224167        4.49765399755732        3.41973574927276
H           -3.44429260558953        2.77770537108912        3.17548350705714
H           -4.62524532268518        3.12174297026855        5.24418252881882
H           -3.04768847334556        2.43323088072567        5.57561605546651
H           -3.60240398123395        4.14066812942362        7.21751701610898
H           -2.16519643840081        4.57385418961294        6.31123634257867
H           -3.57011150641463        6.52983150890360        6.66506341636838
H           -3.38264446795716        6.17599229577620        4.95774580424083
H           -5.66465783667893        6.82548703215040        5.35824050888964
H           -5.60417325076987        5.15357863183855        4.85325917363445
H           -7.23232427257670        5.36918162938190        6.60470808878679
H           -5.91368862580167        4.34584739156834        7.12188959452185
H           -6.59015841541870        5.78397385831191        8.96104788033283
H           -4.92651295586640        6.01329220794088        8.49053895350155
H           -5.44802464916068        8.17973660590590        8.79151215568299
H           -5.78982273132848        8.02369017927707        7.07198505301665
H           -8.97498527011438        8.42749256946804        9.74861436836086
H           -7.88843954529805        7.05396762691444        9.93152992488459
H           -6.99578868637349        8.24940672867312       11.63658090007998
H           -6.15151536141987        9.16486891149229       10.42404683500401
H           -7.13069971705544       10.74844228212166       11.84642208581509
H           -8.15898766411315       10.78916430353943       10.41940268833248
H           -9.62934079566018       10.83733492756449       12.25696680546541
H           -9.73627953569210        9.17631780228988       11.68617328968654
H           -9.62543197444794        9.19976776192669       14.11585031905133
H           -8.12810879240554        8.48090484930512       13.49341961638863
H           -7.10020759563386       12.32320859727173       15.65307935086478
H           -8.71623718628764       12.68341311835738       16.34201131683094
H           -7.67422183119195       11.44940829011109       17.09899639565500
H           -7.20174723241606        9.82943915969052        6.87688406573165
H           -8.39560978677219       10.17929512748597        8.13191401139022
H           -6.66782204676838       10.23699930943777        8.51152596897680
H           -8.11992072040646        7.64200196329205        6.39120192203443
H           -8.62935888027727        6.60542332962879        7.73536263324092
H           -9.41739781949644        8.16370882298775        7.47380425033670

          :  Hamiltonian                  GFN2-xTB          :
         :: total energy             -90.758871972152 Eh    ::
         :: gradient norm              0.000647152279 Eh/a0 ::
         :: HOMO-LUMO gap              3.862949630386 eV    ::
         :: SCC energy               -91.992382189719 Eh    ::
         :: -> dispersion             -0.067779647712 Eh    ::
         :: repulsion energy           1.233510217568 Eh    ::

    * Orbital Energies and Occupations

         #    Occupation            Energy/Eh            Energy/eV
      -------------------------------------------------------------
         1        2.0000           -0.8565040             -23.3067
       ...           ...                  ...                  ...
        72        2.0000           -0.5069866             -13.7958
        73        2.0000           -0.5035789             -13.7031
        74        2.0000           -0.4965259             -13.5112
        75        2.0000           -0.4954221             -13.4811
        76        2.0000           -0.4912004             -13.3662
        77        2.0000           -0.4874860             -13.2652
        78        2.0000           -0.4831288             -13.1466
        79        2.0000           -0.4731672             -12.8755
        80        2.0000           -0.4719554             -12.8426
        81        2.0000           -0.4687629             -12.7557
        82        2.0000           -0.4588221             -12.4852
        83        2.0000           -0.4535091             -12.3406
        84        2.0000           -0.4521809             -12.3045 (HOMO)
        85                         -0.3102201              -8.4415 (LUMO)
        86                         -0.2249606              -6.1215
        87                         -0.1660411              -4.5182
        88                         -0.1432147              -3.8971
        89                         -0.1370291              -3.7288
        90                         -0.0772959              -2.1033
        91                         -0.0697625              -1.8983
        92                         -0.0671412              -1.8270
        93                         -0.0545105              -1.4833
        94                         -0.0339179              -0.9230
        95                         -0.0296672              -0.8073
       ...                                ...                  ...
       164                          0.5690616              15.4850
      -------------------------------------------------------------
                  HL-Gap            0.1419608 Eh            3.8629 eV

     #   Z          covCN         q      C6AA      α(0)
     1   6 C        3.751    -0.102    22.503     6.765
     2   6 C        3.799    -0.052    21.510     6.603
     3   6 C        3.800    -0.057    21.600     6.617
     4   6 C        3.800    -0.057    21.595     6.616
     5   6 C        3.800    -0.056    21.588     6.615
     6   6 C        3.800    -0.057    21.594     6.616
     7   6 C        3.800    -0.057    21.594     6.616
     8   6 C        3.800    -0.057    21.599     6.617
     9   6 C        3.800    -0.058    21.613     6.619
    10   6 C        3.800    -0.059    21.629     6.622
    11   6 C        3.800    -0.059    21.641     6.623
    12   6 C        3.800    -0.061    21.678     6.629
    13   6 C        3.800    -0.062    21.689     6.631
    14   6 C        3.799    -0.071    21.855     6.656
    15   6 C        3.798    -0.072    21.872     6.659
    16   6 C        3.758    -0.041    21.364     6.590
    17   7 N        3.620     0.129    19.038     6.480
    18   6 C        3.759    -0.041    21.351     6.588
    19   6 C        3.799    -0.073    21.905     6.664
    20   6 C        3.800    -0.078    21.997     6.678
    21   6 C        3.801    -0.058    21.609     6.618
    22   6 C        3.802    -0.097    22.350     6.731
    23   6 C        2.715     0.359    20.912     7.486
    24   8 O        0.856    -0.420    22.084     6.301
    25   8 O        1.705    -0.247    18.093     5.743
    26   6 C        3.649     0.021    20.544     6.512
    27   6 C        3.726    -0.093    22.380     6.755
    28   6 C        3.726    -0.092    22.360     6.752
    29   1 H        0.925     0.034     2.535     2.490
    30   1 H        0.925     0.032     2.558     2.501
    31   1 H        0.925     0.034     2.531     2.488
    32   1 H        0.924     0.030     2.586     2.515
    33   1 H        0.924     0.027     2.624     2.533
    34   1 H        0.924     0.028     2.618     2.530
    35   1 H        0.924     0.029     2.601     2.522
    36   1 H        0.924     0.027     2.631     2.537
    37   1 H        0.924     0.032     2.560     2.502
    38   1 H        0.924     0.025     2.652     2.547
    39   1 H        0.924     0.033     2.551     2.498
    40   1 H        0.924     0.025     2.656     2.549
    41   1 H        0.924     0.033     2.541     2.493
    42   1 H        0.924     0.025     2.657     2.549
    43   1 H        0.924     0.033     2.537     2.491
    44   1 H        0.924     0.024     2.668     2.554
    45   1 H        0.924     0.034     2.524     2.484
    46   1 H        0.924     0.023     2.687     2.564
    47   1 H        0.924     0.037     2.487     2.466
    48   1 H        0.924     0.023     2.682     2.561
    49   1 H        0.924     0.040     2.453     2.449
    50   1 H        0.924     0.023     2.685     2.562
    51   1 H        0.924     0.041     2.432     2.439
    52   1 H        0.924     0.021     2.724     2.581
    53   1 H        0.924     0.045     2.385     2.415
    54   1 H        0.924     0.014     2.820     2.626
    55   1 H        0.925     0.054     2.272     2.357
    56   1 H        0.924     0.032     2.560     2.502
    57   1 H        0.924     0.062     2.181     2.309
    58   1 H        0.924     0.047     2.359     2.402
    59   1 H        0.924     0.076     2.016     2.220
    60   1 H        0.924     0.080     1.976     2.198
    61   1 H        0.924     0.091     1.870     2.138
    62   1 H        0.924     0.086     1.918     2.166
    63   1 H        0.924     0.080     1.977     2.199
    64   1 H        0.925     0.076     2.026     2.226
    65   1 H        0.925     0.055     2.261     2.352
    66   1 H        0.925     0.086     1.921     2.168
    67   1 H        0.924     0.037     2.496     2.470
    68   1 H        0.924     0.052     2.290     2.367
    69   1 H        0.924     0.038     2.481     2.463
    70   1 H        0.925     0.071     2.079     2.255
    71   1 H        0.924     0.065     2.147     2.291
    72   1 H        0.924     0.078     1.997     2.210
    73   1 H        0.925     0.075     2.031     2.229
    74   1 H        0.924     0.072     2.069     2.249
    75   1 H        0.925     0.093     1.849     2.127
    76   1 H        0.925     0.095     1.828     2.114
    77   1 H        0.925     0.102     1.764     2.077
    78   1 H        0.925     0.100     1.789     2.091
    79   1 H        0.925     0.100     1.787     2.091
    80   1 H        0.925     0.091     1.867     2.137

Wiberg/Mayer (AO) data.
largest (>0.10) Wiberg bond orders for each atom

     #   Z sym  total        # sym  WBO       # sym  WBO       # sym  WBO
 ---------------------------------------------------------------------------
     1   6 C    3.997 --     2 C    1.020    31 H    0.988    30 H    0.987
                            29 H    0.986
     2   6 C    3.998 --     1 C    1.020     3 C    1.008    33 H    0.978
                            32 H    0.976
     3   6 C    3.998 --     2 C    1.008     4 C    1.008    35 H    0.977
                            34 H    0.976
     4   6 C    3.998 --     5 C    1.008     3 C    1.008    37 H    0.975
                            36 H    0.975
     5   6 C    3.998 --     4 C    1.008     6 C    1.008    38 H    0.975
                            39 H    0.975
     6   6 C    3.997 --     5 C    1.008     7 C    1.008    40 H    0.975
                            41 H    0.975
     7   6 C    3.997 --     8 C    1.008     6 C    1.008    42 H    0.976
                            43 H    0.975
     8   6 C    3.997 --     9 C    1.008     7 C    1.008    44 H    0.975
                            45 H    0.974
     9   6 C    3.997 --     8 C    1.008    10 C    1.008    46 H    0.975
                            47 H    0.974
    10   6 C    3.997 --     9 C    1.008    11 C    1.007    48 H    0.975
                            49 H    0.974
    11   6 C    3.996 --    10 C    1.007    12 C    1.007    50 H    0.976
                            51 H    0.974
    12   6 C    3.996 --    13 C    1.007    11 C    1.007    52 H    0.976
                            53 H    0.973
    13   6 C    3.995 --    14 C    1.008    12 C    1.007    54 H    0.971
                            55 H    0.971
    14   6 C    3.992 --    13 C    1.008    15 C    1.004    56 H    0.974
                            57 H    0.970
    15   6 C    3.984 --    16 C    1.005    14 C    1.004    58 H    0.966
                            59 H    0.965
    16   6 C    3.926 --    15 C    1.005    60 H    0.963    61 H    0.959
                            17 N    0.923
    17   7 N    3.808 --    27 C    0.961    28 C    0.961    18 C    0.925
                            16 C    0.923
    18   6 C    3.929 --    19 C    1.003    63 H    0.964    62 H    0.963
                            17 N    0.925
    19   6 C    3.984 --    20 C    1.006    18 C    1.003    64 H    0.965
                            65 H    0.963
    20   6 C    3.989 --    21 C    1.010    19 C    1.006    67 H    0.974
                            66 H    0.962
    21   6 C    3.995 --    20 C    1.010    22 C    0.991    68 H    0.976
                            69 H    0.971
    22   6 C    3.994 --    21 C    0.991    70 H    0.974    23 C    0.965
                            71 H    0.958
    23   6 C    3.918 --    24 O    1.730    25 O    1.165    22 C    0.965
    24   8 O    2.033 --    23 C    1.730    25 O    0.181
    25   8 O    2.337 --    23 C    1.165    26 C    0.947    24 O    0.181
    26   6 C    3.914 --    73 H    0.978    72 H    0.975    74 H    0.975
                            25 O    0.947
    27   6 C    3.931 --    75 H    0.975    76 H    0.973    77 H    0.972
                            17 N    0.961
    28   6 C    3.931 --    80 H    0.975    78 H    0.973    79 H    0.971
                            17 N    0.961
    29   1 H    0.999 --     1 C    0.986
    30   1 H    0.999 --     1 C    0.987
    31   1 H    0.999 --     1 C    0.988
    32   1 H    0.999 --     2 C    0.976
    33   1 H    0.999 --     2 C    0.978
    34   1 H    0.999 --     3 C    0.976
    35   1 H    0.999 --     3 C    0.977
    36   1 H    0.999 --     4 C    0.975
    37   1 H    0.999 --     4 C    0.975
    38   1 H    0.999 --     5 C    0.975
    39   1 H    0.999 --     5 C    0.975
    40   1 H    0.999 --     6 C    0.975
    41   1 H    0.999 --     6 C    0.975
    42   1 H    0.999 --     7 C    0.976
    43   1 H    0.999 --     7 C    0.975
    44   1 H    0.999 --     8 C    0.975
    45   1 H    0.999 --     8 C    0.974
    46   1 H    0.999 --     9 C    0.975
    47   1 H    0.999 --     9 C    0.974
    48   1 H    0.999 --    10 C    0.975
    49   1 H    0.998 --    10 C    0.974
    50   1 H    0.999 --    11 C    0.976
    51   1 H    0.998 --    11 C    0.974
    52   1 H    1.000 --    12 C    0.976
    53   1 H    0.998 --    12 C    0.973
    54   1 H    1.000 --    13 C    0.971
    55   1 H    0.997 --    13 C    0.971
    56   1 H    0.999 --    14 C    0.974
    57   1 H    0.996 --    14 C    0.970
    58   1 H    0.998 --    15 C    0.966
    59   1 H    0.994 --    15 C    0.965
    60   1 H    0.994 --    16 C    0.963
    61   1 H    0.992 --    16 C    0.959
    62   1 H    0.993 --    18 C    0.963
    63   1 H    0.994 --    18 C    0.964
    64   1 H    0.994 --    19 C    0.965
    65   1 H    0.997 --    19 C    0.963
    66   1 H    0.992 --    20 C    0.962
    67   1 H    0.999 --    20 C    0.974
    68   1 H    0.997 --    21 C    0.976
    69   1 H    0.998 --    21 C    0.971
    70   1 H    0.995 --    22 C    0.974
    71   1 H    0.996 --    22 C    0.958
    72   1 H    0.994 --    26 C    0.975
    73   1 H    0.994 --    26 C    0.978
    74   1 H    0.995 --    26 C    0.975
    75   1 H    0.991 --    27 C    0.975
    76   1 H    0.991 --    27 C    0.973
    77   1 H    0.990 --    27 C    0.972
    78   1 H    0.990 --    28 C    0.973
    79   1 H    0.990 --    28 C    0.971
    80   1 H    0.992 --    28 C    0.975
 ---------------------------------------------------------------------------

molecular dipole:
                 x           y           z       tot (Debye)
 q only:      -14.278      15.396      16.207
   full:      -14.430      15.407      16.281      67.759

           -------------------------------------------------
          | TOTAL ENERGY              -90.758871972152 Eh   |
          | GRADIENT NORM               0.000647152279 Eh/α |
          | HOMO-LUMO GAP               3.862949630386 eV   |
           -------------------------------------------------

 * finished run on 2024/12/20 at 07:00:14.357
