   * xtb version 6.7.1 (edcfbbe) compiled by 'conda@3ef47c1a292c' on 2024-11-25

   ID    Z sym.   atoms
    1    6 C      1-4, 6-20
    2    7 N      5
    3    1 H      21-62

          program call               : xtb C0834.xyz --opt --namespace C0834 --charge +1
          :  Hamiltonian                  GFN2-xTB          :
 * total energy  :   -64.6314895 Eh     change       -0.3365130E-10 Eh
 * total energy  :   -64.6406924 Eh     change       -0.9202927E-02 Eh
 * total energy  :   -64.6434039 Eh     change       -0.2711455E-02 Eh
 * total energy  :   -64.6438583 Eh     change       -0.4544390E-03 Eh
 * total energy  :   -64.6443351 Eh     change       -0.4767892E-03 Eh
 * total energy  :   -64.6447153 Eh     change       -0.3802201E-03 Eh
 * total energy  :   -64.6451087 Eh     change       -0.3933438E-03 Eh
 * total energy  :   -64.6454452 Eh     change       -0.3365488E-03 Eh
 * total energy  :   -64.6456220 Eh     change       -0.1767505E-03 Eh
 * total energy  :   -64.6456972 Eh     change       -0.7520990E-04 Eh
 * total energy  :   -64.6458584 Eh     change       -0.1354923E-04 Eh
 * total energy  :   -64.6458712 Eh     change       -0.1278547E-04 Eh
 * total energy  :   -64.6458795 Eh     change       -0.8357608E-05 Eh
 * total energy  :   -64.6458885 Eh     change       -0.8995336E-05 Eh
 * total energy  :   -64.6459007 Eh     change       -0.1222271E-04 Eh
 * total energy  :   -64.6459145 Eh     change       -0.1375039E-04 Eh
 * total energy  :   -64.6459211 Eh     change       -0.6664854E-05 Eh
 * total energy  :   -64.6459273 Eh     change       -0.6173067E-05 Eh
 * total energy  :   -64.6459311 Eh     change       -0.3815996E-05 Eh
   *** GEOMETRY OPTIMIZATION CONVERGED AFTER 24 ITERATIONS ***

 final structure:
================
62
 xtb: 6.7.1 (edcfbbe)
C            1.13616087950042        0.31810633046076       -2.81580637467958
C            0.25832137389586       -0.88996559556380       -3.12170604069036
C            0.77217942304354       -2.22047423152998       -2.55633133857917
C            0.82399406616595       -2.49909116078985       -1.04445041648220
N           -0.45130192254331       -2.51200680662247       -0.23799060648050
C           -1.60652770986183       -3.02825797918360       -1.05148827172971
C           -1.39321576335709       -4.36606554577935       -1.78358332582802
C           -2.41181815940046       -5.46504139915914       -1.43760565927915
C           -3.83056369802188       -5.05811981320368       -1.82341408451838
C           -2.02029287859846       -6.74930290789804       -2.16606418661030
C           -0.25534414374663       -3.46346965508584        0.91888080570011
C           -0.95013215949420       -3.26147892345715        2.27457517180219
C           -2.46855021368269       -3.03709036159509        2.36977840249118
C           -3.24561916773671       -4.34318369312789        2.23053149662433
C           -2.78888259929357       -2.41266293899102        3.72923513541275
C           -0.76779670853442       -1.07859181420411        0.11132328127077
C           -0.20018927091296       -0.38512583181014        1.36334142181560
C            1.27756421509251       -0.52066669596937        1.77270501049512
C            2.19935744368605        0.38347692587143        0.95700856453241
C            1.40505564630030       -0.14050662230617        3.25001280519367
H            1.08646954442005        0.61734407138849       -1.77239357582591
H            0.81231158709576        1.16608882986788       -3.41298029473298
H            2.17283009142453        0.10776357061898       -3.06684557012036
H           -0.77262574873825       -0.68892376806225       -2.82329520119028
H            0.24125003497442       -1.01803081979190       -4.20612485714609
H            0.23157287007030       -3.02079841240195       -3.05557291211301
H            1.81494408723310       -2.31399628199671       -2.87299434255629
H            1.28621557438645       -3.48361851593718       -0.94896432511566
H            1.48562874163803       -1.77845589183664       -0.56714243154653
H           -2.44382828250943       -3.13252133031438       -0.36186227115621
H           -1.86398584268092       -2.25913136316798       -1.77857732177401
H           -1.47270158091425       -4.20017920531215       -2.85914770171126
H           -0.39721622036183       -4.76522365327776       -1.59357938401771
H           -2.37753261165202       -5.66808548630121       -0.36192938910248
H           -3.88833159475318       -4.85799166649338       -2.89052397159746
H           -4.52283532522402       -5.86268135410375       -1.59288305258035
H           -4.16242814095005       -4.17087281271828       -1.28928974367932
H           -1.02170179677691       -7.07379774572864       -1.88128730866342
H           -2.71678765545133       -7.54624746104108       -1.92258214443732
H           -2.03997128501391       -6.59903778379646       -3.24255971740328
H           -0.52464867165972       -4.44811291760073        0.53713621710145
H            0.81179977578228       -3.48354139861014        1.14721243745441
H           -0.72705419397349       -4.18147116503699        2.82317848826567
H           -0.44484159845099       -2.46809548013388        2.81780145803087
H           -2.80528188859893       -2.33656831844203        1.59943550959612
H           -3.00387426953080       -5.01165693908138        3.05317013062336
H           -4.31486559619034       -4.15047767681660        2.25735821357988
H           -3.02039642714540       -4.85484527902840        1.30003245775993
H           -2.32783645685267       -1.43340025650793        3.83959846712958
H           -3.86254737251030       -2.29184387368330        3.84282119411631
H           -2.43289720938158       -3.05227258635424        4.53283778254365
H           -0.47175841306837       -0.50162753155166       -0.76100883938623
H           -1.85245391310964       -0.99631624884702        0.20241078331348
H           -0.39025639409592        0.67769330154354        1.18693902600546
H           -0.81650278612755       -0.65134462798953        2.21868485239996
H            1.61385046289989       -1.55665567894408        1.66910345787077
H            1.89683260380397        1.42262821819580        1.06239864977129
H            3.22043164371369        0.29432584641850        1.31860152629419
H            2.20362373676580        0.13475499062181       -0.10051324076106
H            0.82857062580500       -0.80746411552568        3.88752427729101
H            2.44386920675620       -0.19415436571717        3.56335113960119
H            1.05450203643423        0.87576190344133        3.41123973740714

          :  Hamiltonian                  GFN2-xTB          :
         :: total energy             -64.645931130621 Eh    ::
         :: gradient norm              0.000354966768 Eh/a0 ::
         :: HOMO-LUMO gap              8.010461125950 eV    ::
         :: SCC energy               -65.588280588305 Eh    ::
         :: -> dispersion             -0.057119778382 Eh    ::
         :: repulsion energy           0.942349457684 Eh    ::

    * Orbital Energies and Occupations

         #    Occupation            Energy/Eh            Energy/eV
      -------------------------------------------------------------
         1        2.0000           -0.8346276             -22.7114
       ...           ...                  ...                  ...
        49        2.0000           -0.5586989             -15.2030
        50        2.0000           -0.5576449             -15.1743
        51        2.0000           -0.5550030             -15.1024
        52        2.0000           -0.5520429             -15.0219
        53        2.0000           -0.5516071             -15.0100
        54        2.0000           -0.5498351             -14.9618
        55        2.0000           -0.5455808             -14.8460
        56        2.0000           -0.5443040             -14.8113
        57        2.0000           -0.5435566             -14.7909
        58        2.0000           -0.5419064             -14.7460
        59        2.0000           -0.5391169             -14.6701
        60        2.0000           -0.5380581             -14.6413
        61        2.0000           -0.5325042             -14.4902 (HOMO)
        62                         -0.2381252              -6.4797 (LUMO)
        63                         -0.1853410              -5.0434
        64                         -0.1532231              -4.1694
        65                         -0.1505028              -4.0954
        66                         -0.0889596              -2.4207
        67                         -0.0877064              -2.3866
        68                         -0.0736391              -2.0038
        69                         -0.0639577              -1.7404
        70                         -0.0583851              -1.5887
        71                         -0.0492541              -1.3403
        72                         -0.0360010              -0.9796
       ...                                ...                  ...
       122                          0.2470982               6.7239
      -------------------------------------------------------------
                  HL-Gap            0.2943790 Eh            8.0105 eV

     #   Z          covCN         q      C6AA      α(0)
     1   6 C        3.751    -0.114    22.740     6.801
     2   6 C        3.798    -0.060    21.665     6.628
     3   6 C        3.798    -0.079    22.009     6.680
     4   6 C        3.752    -0.036    21.285     6.579
     5   7 N        3.612     0.098    19.545     6.566
     6   6 C        3.756    -0.035    21.257     6.574
     7   6 C        3.803    -0.076    21.955     6.671
     8   6 C        3.848    -0.011    20.732     6.476
     9   6 C        3.756    -0.117    22.803     6.809
    10   6 C        3.758    -0.117    22.783     6.805
    11   6 C        3.748    -0.033    21.235     6.573
    12   6 C        3.803    -0.081    22.046     6.685
    13   6 C        3.848    -0.009    20.710     6.473
    14   6 C        3.757    -0.117    22.795     6.807
    15   6 C        3.758    -0.115    22.760     6.802
    16   6 C        3.751    -0.036    21.286     6.580
    17   6 C        3.803    -0.080    22.034     6.683
    18   6 C        3.847    -0.011    20.742     6.478
    19   6 C        3.756    -0.117    22.785     6.806
    20   6 C        3.759    -0.116    22.769     6.803
    21   1 H        0.925     0.036     2.505     2.475
    22   1 H        0.925     0.053     2.279     2.361
    23   1 H        0.925     0.047     2.354     2.399
    24   1 H        0.924     0.030     2.585     2.514
    25   1 H        0.924     0.055     2.253     2.348
    26   1 H        0.925     0.059     2.205     2.322
    27   1 H        0.924     0.071     2.080     2.255
    28   1 H        0.924     0.069     2.092     2.262
    29   1 H        0.925     0.091     1.871     2.139
    30   1 H        0.925     0.088     1.900     2.156
    31   1 H        0.925     0.076     2.018     2.222
    32   1 H        0.924     0.061     2.184     2.311
    33   1 H        0.925     0.051     2.307     2.375
    34   1 H        0.924     0.029     2.600     2.522
    35   1 H        0.925     0.048     2.350     2.397
    36   1 H        0.925     0.056     2.250     2.346
    37   1 H        0.925     0.033     2.546     2.495
    38   1 H        0.925     0.038     2.473     2.459
    39   1 H        0.925     0.056     2.248     2.344
    40   1 H        0.925     0.047     2.355     2.400
    41   1 H        0.925     0.083     1.948     2.182
    42   1 H        0.924     0.071     2.071     2.250
    43   1 H        0.924     0.069     2.099     2.266
    44   1 H        0.925     0.066     2.134     2.284
    45   1 H        0.924     0.022     2.702     2.571
    46   1 H        0.925     0.049     2.337     2.391
    47   1 H        0.925     0.049     2.330     2.387
    48   1 H        0.925     0.035     2.517     2.481
    49   1 H        0.925     0.035     2.520     2.482
    50   1 H        0.925     0.054     2.273     2.358
    51   1 H        0.925     0.049     2.337     2.391
    52   1 H        0.925     0.090     1.881     2.145
    53   1 H        0.924     0.071     2.076     2.253
    54   1 H        0.924     0.068     2.113     2.273
    55   1 H        0.925     0.064     2.154     2.295
    56   1 H        0.924     0.025     2.661     2.551
    57   1 H        0.925     0.048     2.340     2.392
    58   1 H        0.925     0.051     2.301     2.372
    59   1 H        0.925     0.033     2.544     2.494
    60   1 H        0.925     0.036     2.503     2.474
    61   1 H        0.925     0.054     2.275     2.359
    62   1 H        0.925     0.049     2.329     2.386

Wiberg/Mayer (AO) data.
largest (>0.10) Wiberg bond orders for each atom

     #   Z sym  total        # sym  WBO       # sym  WBO       # sym  WBO
 ---------------------------------------------------------------------------
     1   6 C    3.993 --     2 C    1.020    23 H    0.986    22 H    0.984
                            21 H    0.975
     2   6 C    3.994 --     1 C    1.020     3 C    1.005    25 H    0.973
                            24 H    0.968
     3   6 C    3.983 --     2 C    1.005     4 C    1.003    26 H    0.967
                            27 H    0.963
     4   6 C    3.934 --     3 C    1.003    28 H    0.967    29 H    0.958
                             5 N    0.929
     5   7 N    3.795 --     6 C    0.933     4 C    0.929    16 C    0.926
                            11 C    0.926
     6   6 C    3.933 --     7 C    1.000    31 H    0.968    30 H    0.958
                             5 N    0.933
     7   6 C    3.986 --     6 C    1.000     8 C    0.990    32 H    0.968
                            33 H    0.965
     8   6 C    3.993 --     9 C    1.011    10 C    1.007     7 C    0.990
                            34 H    0.955
     9   6 C    3.993 --     8 C    1.011    35 H    0.985    36 H    0.984
                            37 H    0.983
    10   6 C    3.992 --     8 C    1.007    38 H    0.986    40 H    0.985
                            39 H    0.984
    11   6 C    3.933 --    12 C    1.002    42 H    0.965    41 H    0.963
                             5 N    0.926
    12   6 C    3.981 --    11 C    1.002    13 C    0.993    44 H    0.962
                            43 H    0.962
    13   6 C    3.995 --    14 C    1.010    15 C    1.006    12 C    0.993
                            45 H    0.960
    14   6 C    3.993 --    13 C    1.010    47 H    0.985    46 H    0.985
                            48 H    0.972
    15   6 C    3.992 --    13 C    1.006    51 H    0.986    50 H    0.984
                            49 H    0.983
    16   6 C    3.931 --    17 C    1.001    53 H    0.965    52 H    0.958
                             5 N    0.926
    17   6 C    3.981 --    16 C    1.001    18 C    0.993    55 H    0.964
                            54 H    0.963
    18   6 C    3.995 --    19 C    1.010    20 C    1.006    17 C    0.993
                            56 H    0.962
    19   6 C    3.993 --    18 C    1.010    57 H    0.984    58 H    0.984
                            59 H    0.972
    20   6 C    3.992 --    18 C    1.006    62 H    0.986    61 H    0.984
                            60 H    0.983
    21   1 H    0.999 --     1 C    0.975
    22   1 H    0.997 --     1 C    0.984
    23   1 H    0.998 --     1 C    0.986
    24   1 H    0.999 --     2 C    0.968
    25   1 H    0.996 --     2 C    0.973
    26   1 H    0.996 --     3 C    0.967
    27   1 H    0.995 --     3 C    0.963
    28   1 H    0.995 --     4 C    0.967
    29   1 H    0.992 --     4 C    0.958
    30   1 H    0.992 --     6 C    0.958
    31   1 H    0.994 --     6 C    0.968
    32   1 H    0.996 --     7 C    0.968
    33   1 H    0.997 --     7 C    0.965
    34   1 H    0.999 --     8 C    0.955
    35   1 H    0.998 --     9 C    0.985
    36   1 H    0.997 --     9 C    0.984
    37   1 H    0.999 --     9 C    0.983
    38   1 H    0.999 --    10 C    0.986
    39   1 H    0.996 --    10 C    0.984
    40   1 H    0.997 --    10 C    0.985
    41   1 H    0.993 --    11 C    0.963
    42   1 H    0.995 --    11 C    0.965
    43   1 H    0.995 --    12 C    0.962
    44   1 H    0.996 --    12 C    0.962
    45   1 H    0.999 --    13 C    0.960
    46   1 H    0.997 --    14 C    0.985
    47   1 H    0.998 --    14 C    0.985
    48   1 H    0.999 --    14 C    0.972
    49   1 H    0.999 --    15 C    0.983
    50   1 H    0.997 --    15 C    0.984
    51   1 H    0.997 --    15 C    0.986
    52   1 H    0.992 --    16 C    0.958
    53   1 H    0.995 --    16 C    0.965
    54   1 H    0.995 --    17 C    0.963
    55   1 H    0.996 --    17 C    0.964
    56   1 H    0.999 --    18 C    0.962
    57   1 H    0.997 --    19 C    0.984
    58   1 H    0.997 --    19 C    0.984
    59   1 H    0.999 --    19 C    0.972
    60   1 H    0.999 --    20 C    0.983
    61   1 H    0.997 --    20 C    0.984
    62   1 H    0.997 --    20 C    0.986
 ---------------------------------------------------------------------------

molecular dipole:
                 x           y           z       tot (Debye)
 q only:       -0.959      -4.728      -0.350
   full:       -0.917      -4.738      -0.380      12.304

           -------------------------------------------------
          | TOTAL ENERGY              -64.645931130621 Eh   |
          | GRADIENT NORM               0.000354966768 Eh/α |
          | HOMO-LUMO GAP               8.010461125950 eV   |
           -------------------------------------------------

 * finished run on 2024/12/20 at 07:00:05.298
