   * xtb version 6.7.1 (edcfbbe) compiled by 'conda@3ef47c1a292c' on 2024-11-25

   ID    Z sym.   atoms
    1    6 C      1-16, 19, 20, 22-26
    2    8 O      17, 18
    3    7 N      21
    4    1 H      27-66

          program call               : xtb C0838.xyz --opt --namespace C0838 --charge +1
          :  Hamiltonian                  GFN2-xTB          :
 * total energy  :   -80.3263966 Eh     change       -0.9739011E-08 Eh
 * total energy  :   -80.3313205 Eh     change       -0.4923917E-02 Eh
 * total energy  :   -80.3321793 Eh     change       -0.8588066E-03 Eh
 * total energy  :   -80.3324730 Eh     change       -0.2936845E-03 Eh
 * total energy  :   -80.3327392 Eh     change       -0.2662480E-03 Eh
 * total energy  :   -80.3329260 Eh     change       -0.1868326E-03 Eh
 * total energy  :   -80.3331052 Eh     change       -0.1791095E-03 Eh
 * total energy  :   -80.3332864 Eh     change       -0.1812841E-03 Eh
 * total energy  :   -80.3334669 Eh     change       -0.1804431E-03 Eh
 * total energy  :   -80.3336551 Eh     change       -0.1881668E-03 Eh
 * total energy  :   -80.3445010 Eh     change       -0.1778410E-04 Eh
 * total energy  :   -80.3445236 Eh     change       -0.2262953E-04 Eh
 * total energy  :   -80.3445403 Eh     change       -0.1664977E-04 Eh
 * total energy  :   -80.3445748 Eh     change       -0.3452167E-04 Eh
 * total energy  :   -80.3445889 Eh     change       -0.1407726E-04 Eh
 * total energy  :   -80.3446034 Eh     change       -0.1451982E-04 Eh
 * total energy  :   -80.3446096 Eh     change       -0.6154700E-05 Eh
 * total energy  :   -80.3446163 Eh     change       -0.6739986E-05 Eh
 * total energy  :   -80.3446202 Eh     change       -0.3906814E-05 Eh
   *** GEOMETRY OPTIMIZATION CONVERGED AFTER 68 ITERATIONS ***

 final structure:
================
66
 xtb: 6.7.1 (edcfbbe)
C            1.33214884274325        0.80583487633442       -0.87500468020984
C            0.38396714502870        0.59865382930569        0.26002347059637
C           -0.60411458628283       -0.51818116396226       -0.11951611422420
C           -1.79410790701942       -0.60451393628721        0.83538428011088
C           -2.72839095466195        0.60729763313867        0.80209972839699
C           -3.27320312416645        0.97357503016880       -0.58078911653817
C           -4.03055748578123       -0.14850263482417       -1.29523732848750
C           -5.23677442580843       -0.69591940386166       -0.52835662077891
C           -6.30346483592941        0.34172859293167       -0.17505740145903
C           -6.93528696406816        1.05554378285255       -1.37154591066188
C           -7.64312674391587        0.13923124919445       -2.37188950513025
C           -8.76508001962172       -0.71689625381315       -1.78061428691387
C           -9.88423694679142        0.06696900458773       -1.09332122607030
C          -10.61562626747928        1.07074592882046       -1.98700386618316
C          -11.30943664904942        0.46384651133328       -3.20713640873546
C          -12.41218551909290       -0.52250837741015       -2.84244155185041
O            1.28562072461819        1.69663604854404       -1.68677353859319
O            2.24163871928173       -0.19117155167170       -0.96250415560247
C            3.21321602072562       -0.09186941693893       -1.98730021246828
C            2.73246672708694       -0.73307558846805       -3.30378487834103
N            1.56959121385809       -0.03412933836895       -3.82224212640051
C            0.34426300407561       -0.53176529556657       -3.61631884380020
C           -0.78272748196809        0.17479413268662       -3.98005719629390
C           -0.64016604691351        1.42644001324106       -4.56449590951441
C            0.64046511772974        1.91740706860566       -4.78626242337989
C            1.72716301258401        1.16440667310494       -4.40041251865145
H            0.93069369718905        0.31309500051623        1.15766748589514
H           -0.14916157991057        1.53236592457975        0.43041837799549
H           -0.97201862620839       -0.33909675745799       -1.13179655566145
H           -0.07104551768021       -1.47124601811517       -0.11478613793819
H           -2.36230019076076       -1.50070761323539        0.58143951723133
H           -1.42525680619477       -0.73106082717901        1.85464687657047
H           -3.56409908396472        0.40083132680323        1.47113379619593
H           -2.21152487573305        1.48022594705291        1.20587289763831
H           -3.94032475212152        1.82816869634656       -0.46169659571682
H           -2.45028088966641        1.30722390517017       -1.22091189020559
H           -4.36858372845382        0.23056933033000       -2.26276162563820
H           -3.35009665034032       -0.98173543915721       -1.49409397067503
H           -5.69099108875324       -1.48480335067994       -1.13094735348288
H           -4.89302771415947       -1.16153162919935        0.39746863916086
H           -7.08705073247748       -0.16218032038776        0.39271975931109
H           -5.87050777488735        1.09629531201440        0.48503183889803
H           -7.65186268342461        1.78431427479153       -0.98907354215556
H           -6.16642348326585        1.61929891365985       -1.90609549771325
H           -8.05267298921332        0.76134077889160       -3.17045492269505
H           -6.91124759198001       -0.52872017557566       -2.83342630058495
H           -9.19155798933960       -1.31889701399690       -2.58548474606647
H           -8.34122948610490       -1.41372543705317       -1.05390439223189
H          -10.60737420563019       -0.64892393802816       -0.69825170050209
H           -9.47349096622381        0.60709380209146       -0.23761771280333
H          -11.36842202288752        1.57713722138101       -1.37755517666091
H           -9.91034797934340        1.83189710639031       -2.32794195706749
H          -11.74627890755532        1.27974243711405       -3.78859126767642
H          -10.57457113784346       -0.03008051519841       -3.84579310737144
H          -13.12818812550608       -0.05976371477688       -2.16671504551329
H          -12.94319330885075       -0.84179218788883       -3.73623821404677
H          -12.00425614215822       -1.40644712753962       -2.35867877825499
H            3.46085306644605        0.96379502082626       -2.14797368067953
H            4.09065608516982       -0.63269645852469       -1.62865064521178
H            3.54566111569860       -0.68740181527783       -4.03071667736500
H            2.47157252148441       -1.77710104269998       -3.12012915198781
H            0.27589526345231       -1.50175605520252       -3.14534291544599
H           -1.75893374853998       -0.24562492038547       -3.79536617573453
H           -1.50723250277863        2.00716003980984       -4.83685381071385
H            0.79604066743404        2.88353236535601       -5.23816699469511
H            2.73790629594491        1.51826754072130       -4.53762430545132

          :  Hamiltonian                  GFN2-xTB          :
         :: total energy             -80.344620263488 Eh    ::
         :: gradient norm              0.000378247410 Eh/a0 ::
         :: HOMO-LUMO gap              0.237505805029 eV    ::
         :: SCC energy               -81.494326335930 Eh    ::
         :: -> dispersion             -0.060914707447 Eh    ::
         :: repulsion energy           1.149706072442 Eh    ::

    * Orbital Energies and Occupations

         #    Occupation            Energy/Eh            Energy/eV
      -------------------------------------------------------------
         1        2.0000           -0.8772731             -23.8718
       ...           ...                  ...                  ...
        62        2.0000           -0.5169419             -14.0667
        63        2.0000           -0.5131515             -13.9636
        64        2.0000           -0.5092870             -13.8584
        65        2.0000           -0.5057678             -13.7626
        66        2.0000           -0.4996098             -13.5951
        67        2.0000           -0.4950335             -13.4705
        68        2.0000           -0.4915521             -13.3758
        69        2.0000           -0.4826892             -13.1346
        70        2.0000           -0.4807020             -13.0806
        71        2.0000           -0.4781081             -13.0100
        72        2.0000           -0.4679095             -12.7325
        73        1.9966           -0.4626340             -12.5889
        74        1.9816           -0.4610352             -12.5454 (HOMO)
        75        0.0218           -0.4523070             -12.3079 (LUMO)
        76                         -0.4196423             -11.4190
        77                         -0.3597830              -9.7902
        78                         -0.2997509              -8.1566
        79                         -0.1747795              -4.7560
        80                         -0.1236887              -3.3657
        81                         -0.0738074              -2.0084
        82                         -0.0664207              -1.8074
        83                         -0.0412037              -1.1212
        84                         -0.0279687              -0.7611
        85                         -0.0146449              -0.3985
       ...                                ...                  ...
       144                          0.5118617              13.9285
      -------------------------------------------------------------
                  HL-Gap            0.0087282 Eh            0.2375 eV

     #   Z          covCN         q      C6AA      α(0)
     1   6 C        2.720     0.358    20.928     7.489
     2   6 C        3.804    -0.096    22.333     6.728
     3   6 C        3.805    -0.049    21.457     6.594
     4   6 C        3.801    -0.062    21.691     6.631
     5   6 C        3.800    -0.063    21.706     6.633
     6   6 C        3.800    -0.058    21.619     6.620
     7   6 C        3.799    -0.055    21.556     6.611
     8   6 C        3.800    -0.058    21.619     6.620
     9   6 C        3.800    -0.059    21.633     6.622
    10   6 C        3.800    -0.057    21.593     6.616
    11   6 C        3.800    -0.056    21.573     6.613
    12   6 C        3.800    -0.057    21.593     6.616
    13   6 C        3.800    -0.058    21.610     6.619
    14   6 C        3.801    -0.057    21.604     6.618
    15   6 C        3.799    -0.052    21.505     6.603
    16   6 C        3.751    -0.103    22.520     6.767
    17   8 O        0.856    -0.432    22.340     6.337
    18   8 O        1.705    -0.261    18.319     5.779
    19   6 C        3.700     0.067    19.603     6.332
    20   6 C        3.757    -0.040    21.347     6.587
    21   7 N        2.750     0.114    19.288     6.523
    22   6 C        2.890     0.036    27.202     8.551
    23   6 C        2.915    -0.009    28.234     8.713
    24   6 C        2.925     0.018    27.604     8.616
    25   6 C        2.916    -0.001    28.041     8.684
    26   6 C        2.892     0.046    26.968     8.514
    27   1 H        0.925     0.083     1.947     2.182
    28   1 H        0.925     0.086     1.916     2.164
    29   1 H        0.924     0.029     2.599     2.521
    30   1 H        0.924     0.041     2.437     2.441
    31   1 H        0.924     0.049     2.327     2.386
    32   1 H        0.924     0.045     2.381     2.413
    33   1 H        0.924     0.050     2.323     2.383
    34   1 H        0.924     0.033     2.546     2.495
    35   1 H        0.924     0.043     2.405     2.425
    36   1 H        0.924     0.014     2.834     2.632
    37   1 H        0.924     0.027     2.636     2.539
    38   1 H        0.924     0.014     2.819     2.625
    39   1 H        0.924     0.035     2.518     2.482
    40   1 H        0.924     0.031     2.578     2.511
    41   1 H        0.924     0.038     2.470     2.458
    42   1 H        0.924     0.029     2.596     2.519
    43   1 H        0.924     0.036     2.504     2.475
    44   1 H        0.924     0.022     2.701     2.570
    45   1 H        0.924     0.032     2.558     2.501
    46   1 H        0.924     0.022     2.703     2.571
    47   1 H        0.924     0.033     2.544     2.494
    48   1 H        0.924     0.029     2.606     2.525
    49   1 H        0.924     0.036     2.506     2.476
    50   1 H        0.924     0.030     2.583     2.514
    51   1 H        0.924     0.032     2.558     2.501
    52   1 H        0.924     0.029     2.606     2.525
    53   1 H        0.924     0.029     2.595     2.519
    54   1 H        0.924     0.030     2.584     2.514
    55   1 H        0.925     0.036     2.497     2.471
    56   1 H        0.925     0.033     2.538     2.491
    57   1 H        0.925     0.035     2.510     2.478
    58   1 H        0.924     0.081     1.973     2.197
    59   1 H        0.924     0.101     1.779     2.086
    60   1 H        0.924     0.101     1.772     2.082
    61   1 H        0.924     0.104     1.752     2.070
    62   1 H        0.926     0.104     1.746     2.066
    63   1 H        0.926     0.107     1.719     2.050
    64   1 H        0.926     0.108     1.713     2.046
    65   1 H        0.926     0.112     1.679     2.027
    66   1 H        0.926     0.110     1.696     2.036

Wiberg/Mayer (AO) data.
largest (>0.10) Wiberg bond orders for each atom

     #   Z sym  total        # sym  WBO       # sym  WBO       # sym  WBO
 ---------------------------------------------------------------------------
     1   6 C    3.902 --    17 O    1.742    18 O    1.095     2 C    0.993
     2   6 C    3.986 --     1 C    0.993     3 C    0.967    28 H    0.963
                            27 H    0.959
     3   6 C    3.991 --     4 C    1.003    30 H    0.978    29 H    0.971
                             2 C    0.967
     4   6 C    3.993 --     5 C    1.008     3 C    1.003    32 H    0.976
                            31 H    0.971
     5   6 C    3.995 --     4 C    1.008     6 C    1.008    34 H    0.974
                            33 H    0.973
     6   6 C    3.997 --     5 C    1.008     7 C    1.007    36 H    0.975
                            35 H    0.973
     7   6 C    3.998 --     6 C    1.007     8 C    1.007    38 H    0.976
                            37 H    0.975
     8   6 C    3.997 --     9 C    1.008     7 C    1.007    40 H    0.975
                            39 H    0.974
     9   6 C    3.996 --     8 C    1.008    10 C    1.008    42 H    0.974
                            41 H    0.973
    10   6 C    3.996 --     9 C    1.008    11 C    1.007    44 H    0.975
                            43 H    0.974
    11   6 C    3.995 --    10 C    1.007    12 C    1.007    46 H    0.975
                            45 H    0.974
    12   6 C    3.994 --    13 C    1.008    11 C    1.007    47 H    0.974
                            48 H    0.974
    13   6 C    3.992 --    12 C    1.008    14 C    1.006    50 H    0.974
                            49 H    0.973
    14   6 C    3.993 --    15 C    1.007    13 C    1.006    51 H    0.976
                            52 H    0.974
    15   6 C    3.993 --    16 C    1.020    14 C    1.007    53 H    0.976
                            54 H    0.974
    16   6 C    3.994 --    15 C    1.020    56 H    0.987    55 H    0.987
                            57 H    0.985
    17   8 O    2.021 --     1 C    1.742    18 O    0.159
    18   8 O    2.297 --     1 C    1.095    19 C    0.970    17 O    0.159
    19   6 C    3.934 --    20 C    0.973    18 O    0.970    58 H    0.961
                            59 H    0.959
    20   6 C    3.945 --    21 N    0.974    19 C    0.973    61 H    0.963
                            60 H    0.959
    21   7 N    3.753 --    22 C    1.319    26 C    1.313    20 C    0.974
    22   6 C    3.950 --    23 C    1.463    21 N    1.319    62 H    0.954
    23   6 C    3.980 --    22 C    1.463    24 C    1.419    63 H    0.958
    24   6 C    3.956 --    23 C    1.419    25 C    1.414    64 H    0.961
    25   6 C    3.977 --    26 C    1.468    24 C    1.414    65 H    0.958
    26   6 C    3.947 --    25 C    1.468    21 N    1.313    66 H    0.954
    27   1 H    0.993 --     2 C    0.959
    28   1 H    0.993 --     2 C    0.963
    29   1 H    0.999 --     3 C    0.971
    30   1 H    0.998 --     3 C    0.978
    31   1 H    0.996 --     4 C    0.971
    32   1 H    0.997 --     4 C    0.976
    33   1 H    0.997 --     5 C    0.973
    34   1 H    0.999 --     5 C    0.974
    35   1 H    0.998 --     6 C    0.973
    36   1 H    1.000 --     6 C    0.975
    37   1 H    0.999 --     7 C    0.975
    38   1 H    1.000 --     7 C    0.976
    39   1 H    0.999 --     8 C    0.974
    40   1 H    0.999 --     8 C    0.975
    41   1 H    0.998 --     9 C    0.973
    42   1 H    0.999 --     9 C    0.974
    43   1 H    0.999 --    10 C    0.974
    44   1 H    0.999 --    10 C    0.975
    45   1 H    0.998 --    11 C    0.974
    46   1 H    0.999 --    11 C    0.975
    47   1 H    0.998 --    12 C    0.974
    48   1 H    0.998 --    12 C    0.974
    49   1 H    0.997 --    13 C    0.973
    50   1 H    0.998 --    13 C    0.974
    51   1 H    0.998 --    14 C    0.976
    52   1 H    0.998 --    14 C    0.974
    53   1 H    0.997 --    15 C    0.976
    54   1 H    0.997 --    15 C    0.974
    55   1 H    0.998 --    16 C    0.987
    56   1 H    0.999 --    16 C    0.987
    57   1 H    0.997 --    16 C    0.985
    58   1 H    0.993 --    19 C    0.961
    59   1 H    0.989 --    19 C    0.959
    60   1 H    0.989 --    20 C    0.959
    61   1 H    0.989 --    20 C    0.963
    62   1 H    0.989 --    22 C    0.954
    63   1 H    0.988 --    23 C    0.958
    64   1 H    0.988 --    24 C    0.961
    65   1 H    0.987 --    25 C    0.958
    66   1 H    0.988 --    26 C    0.954
 ---------------------------------------------------------------------------

molecular dipole:
                 x           y           z       tot (Debye)
 q only:        1.045       0.006      -6.429
   full:        1.239      -0.036      -6.395      16.556

           -------------------------------------------------
          | TOTAL ENERGY              -80.344620263488 Eh   |
          | GRADIENT NORM               0.000378247410 Eh/α |
          | HOMO-LUMO GAP               0.237505805029 eV   |
           -------------------------------------------------

 * finished run on 2024/12/20 at 07:00:38.150
