   * xtb version 6.7.1 (edcfbbe) compiled by 'conda@3ef47c1a292c' on 2024-11-25

   ID    Z sym.   atoms
    1    6 C      1-5, 7, 9-12
    2    7 N      6, 8
    3    1 H      13-31

          program call               : xtb C0835.xyz --opt --namespace C0835 --charge +1
          :  Hamiltonian                  GFN2-xTB          :
 * total energy  :   -36.5834943 Eh     change       -0.6183143E-10 Eh
 * total energy  :   -36.5869129 Eh     change       -0.3418592E-02 Eh
 * total energy  :   -36.5876571 Eh     change       -0.7442035E-03 Eh
 * total energy  :   -36.5877920 Eh     change       -0.1349671E-03 Eh
 * total energy  :   -36.5878616 Eh     change       -0.6959061E-04 Eh
 * total energy  :   -36.5878800 Eh     change       -0.1838780E-04 Eh
 * total energy  :   -36.5878964 Eh     change       -0.1636376E-04 Eh
 * total energy  :   -36.5879077 Eh     change       -0.1138118E-04 Eh
 * total energy  :   -36.5879143 Eh     change       -0.6514143E-05 Eh
 * total energy  :   -36.5879191 Eh     change       -0.4837988E-05 Eh
   *** GEOMETRY OPTIMIZATION CONVERGED AFTER 10 ITERATIONS ***

 final structure:
================
31
 xtb: 6.7.1 (edcfbbe)
C            1.12776978179435        0.21289344711139        0.13408691631574
C            0.74269185765287       -0.82504843300390       -0.91670857761370
C            1.01061775491132       -2.26651693825173       -0.44308310025088
C            0.51674475468149       -2.66718700218858        0.95014648404361
C           -0.98654882115485       -2.94220844578400        1.06567887714447
N           -1.39305859488385       -4.02168969925265        0.19485448638890
C           -2.14551861032031       -3.91795832122487       -0.89479013891554
N           -2.26687505080190       -5.11461302157362       -1.46774958414030
C           -1.56547503403607       -6.00848427940868       -0.71948843792946
C           -1.01679646254231       -5.32324225652406        0.32227905518439
C           -3.00744596340643       -5.40526314322443       -2.66696650619278
C           -0.68516628786890       -0.58262999299586       -1.40557202870211
H            0.42162559614162        0.22403109220326        0.96138098280871
H            1.12962569384629        1.20385079538990       -0.31131873584232
H            2.12346942794433        0.01655755147178        0.52307461390547
H            1.39884093364579       -0.68046787711645       -1.78210901184996
H            0.62009304085376       -2.96278003350429       -1.19119994114609
H            2.09438005441664       -2.39630407380535       -0.43076696167965
H            1.05470376956550       -3.56689440272043        1.25565752590033
H            0.76600060975891       -1.88489696268294        1.66462747179108
H           -1.22175021255619       -3.22434621678776        2.09537530424689
H           -1.56467630665669       -2.05752084836830        0.80363261694679
H           -2.59352297095583       -3.01208182281413       -1.25502070515823
H           -1.50321744885617       -7.04810343105925       -0.96877123420817
H           -0.40488270256306       -5.67161292295180        1.12883655453486
H           -4.04453621796256       -5.08699202988294       -2.55935084367850
H           -2.57030957966630       -4.88500647356857       -3.52026970566858
H           -2.98364142969090       -6.47561764106713       -2.85744147276869
H           -0.73232276661581        0.37632380202937       -1.91512572537491
H           -0.98832627524811       -1.35027294198584       -2.11584184431914
H           -1.39648253942650       -0.54381747645846       -0.58377633377211

          :  Hamiltonian                  GFN2-xTB          :
         :: total energy             -36.587919101051 Eh    ::
         :: gradient norm              0.000430590115 Eh/a0 ::
         :: HOMO-LUMO gap              3.222127146500 eV    ::
         :: SCC energy               -37.145795751311 Eh    ::
         :: -> dispersion             -0.023922193820 Eh    ::
         :: repulsion energy           0.557876650260 Eh    ::

    * Orbital Energies and Occupations

         #    Occupation            Energy/Eh            Energy/eV
      -------------------------------------------------------------
         1        2.0000           -0.8967095             -24.4007
       ...           ...                  ...                  ...
        22        2.0000           -0.6347675             -17.2729
        23        2.0000           -0.6176255             -16.8064
        24        2.0000           -0.6128036             -16.6752
        25        2.0000           -0.6053353             -16.4720
        26        2.0000           -0.5922539             -16.1161
        27        2.0000           -0.5878955             -15.9974
        28        2.0000           -0.5871928             -15.9783
        29        2.0000           -0.5790958             -15.7580
        30        2.0000           -0.5596369             -15.2285
        31        2.0000           -0.5549610             -15.1013
        32        2.0000           -0.5397241             -14.6866
        33        2.0000           -0.5349938             -14.5579
        34        2.0000           -0.5254008             -14.2969 (HOMO)
        35                         -0.4069898             -11.0748 (LUMO)
        36                         -0.3705802             -10.0840
        37                         -0.1836632              -4.9977
        38                         -0.1300234              -3.5381
        39                         -0.0659328              -1.7941
        40                         -0.0600529              -1.6341
        41                         -0.0480728              -1.3081
        42                         -0.0356109              -0.9690
        43                         -0.0244413              -0.6651
        44                         -0.0221927              -0.6039
        45                         -0.0147754              -0.4021
       ...                                ...                  ...
        67                          0.4630644              12.6006
      -------------------------------------------------------------
                  HL-Gap            0.1184110 Eh            3.2221 eV

     #   Z          covCN         q      C6AA      α(0)
     1   6 C        3.755    -0.115    22.766     6.803
     2   6 C        3.848    -0.015    20.814     6.489
     3   6 C        3.800    -0.069    21.827     6.652
     4   6 C        3.801    -0.072    21.868     6.658
     5   6 C        3.741    -0.028    21.145     6.561
     6   7 N        2.868     0.075    19.935     6.631
     7   6 C        3.103     0.044    26.886     8.496
     8   7 N        2.867     0.074    19.945     6.633
     9   6 C        3.073    -0.007    28.128     8.696
    10   6 C        3.076    -0.006    28.088     8.689
    11   6 C        3.692    -0.086    22.335     6.762
    12   6 C        3.754    -0.110    22.655     6.787
    13   1 H        0.925     0.037     2.485     2.465
    14   1 H        0.925     0.052     2.294     2.369
    15   1 H        0.925     0.046     2.376     2.410
    16   1 H        0.924     0.045     2.387     2.416
    17   1 H        0.924     0.022     2.700     2.570
    18   1 H        0.924     0.056     2.249     2.345
    19   1 H        0.924     0.052     2.290     2.367
    20   1 H        0.925     0.082     1.957     2.187
    21   1 H        0.924     0.086     1.916     2.164
    22   1 H        0.925     0.089     1.890     2.150
    23   1 H        0.926     0.116     1.648     2.008
    24   1 H        0.926     0.108     1.715     2.048
    25   1 H        0.926     0.109     1.705     2.042
    26   1 H        0.925     0.103     1.761     2.075
    27   1 H        0.924     0.103     1.760     2.075
    28   1 H        0.925     0.106     1.728     2.056
    29   1 H        0.925     0.054     2.272     2.357
    30   1 H        0.925     0.021     2.724     2.581
    31   1 H        0.925     0.029     2.601     2.522

Wiberg/Mayer (AO) data.
largest (>0.10) Wiberg bond orders for each atom

     #   Z sym  total        # sym  WBO       # sym  WBO       # sym  WBO
 ---------------------------------------------------------------------------
     1   6 C    3.994 --     2 C    1.010    15 H    0.985    14 H    0.984
                            13 H    0.984
     2   6 C    3.993 --     1 C    1.010    12 C    1.009     3 C    0.993
                            16 H    0.967
     3   6 C    3.993 --     4 C    1.007     2 C    0.993    17 H    0.975
                            18 H    0.973
     4   6 C    3.982 --     3 C    1.007     5 C    0.983    19 H    0.974
                            20 H    0.962
     5   6 C    3.934 --     4 C    0.983     6 N    0.966    22 H    0.960
                            21 H    0.959
     6   7 N    3.724 --     7 C    1.369    10 C    1.232     5 C    0.966
     7   6 C    3.946 --     6 N    1.369     8 N    1.353    23 H    0.952
     8   7 N    3.718 --     7 C    1.353     9 C    1.232    11 C    0.990
     9   6 C    3.949 --    10 C    1.587     8 N    1.232    24 H    0.961
    10   6 C    3.951 --     9 C    1.587     6 N    1.232    25 H    0.961
    11   6 C    3.934 --     8 N    0.990    28 H    0.974    26 H    0.965
                            27 H    0.963
    12   6 C    3.996 --     2 C    1.009    30 H    0.985    29 H    0.984
                            31 H    0.979
    13   1 H    0.999 --     1 C    0.984
    14   1 H    0.997 --     1 C    0.984
    15   1 H    0.998 --     1 C    0.985
    16   1 H    0.998 --     2 C    0.967
    17   1 H    1.000 --     3 C    0.975
    18   1 H    0.997 --     3 C    0.973
    19   1 H    0.997 --     4 C    0.974
    20   1 H    0.992 --     4 C    0.962
    21   1 H    0.992 --     5 C    0.959
    22   1 H    0.992 --     5 C    0.960
    23   1 H    0.987 --     7 C    0.952
    24   1 H    0.988 --     9 C    0.961
    25   1 H    0.988 --    10 C    0.961
    26   1 H    0.989 --    11 C    0.965
    27   1 H    0.989 --    11 C    0.963
    28   1 H    0.988 --    11 C    0.974
    29   1 H    0.997 --    12 C    0.984
    30   1 H    1.000 --    12 C    0.985
    31   1 H    0.999 --    12 C    0.979
 ---------------------------------------------------------------------------

molecular dipole:
                 x           y           z       tot (Debye)
 q only:       -3.027      -8.041      -1.258
   full:       -3.131      -8.070      -1.281      22.242

           -------------------------------------------------
          | TOTAL ENERGY              -36.587919101051 Eh   |
          | GRADIENT NORM               0.000430590115 Eh/α |
          | HOMO-LUMO GAP               3.222127146500 eV   |
           -------------------------------------------------

 * finished run on 2024/12/20 at 07:00:05.967
