   * xtb version 6.7.1 (edcfbbe) compiled by 'conda@3ef47c1a292c' on 2024-11-25

   ID    Z sym.   atoms
    1    6 C      1, 3, 4, 6-14
    2    7 N      2, 5
    3    1 H      15-29

          program call               : xtb C0830.xyz --opt --namespace C0830 --charge +1
          :  Hamiltonian                  GFN2-xTB          :
 * total energy  :   -38.8082509 Eh     change       -0.4569074E-09 Eh
 * total energy  :   -38.8124428 Eh     change       -0.4191906E-02 Eh
 * total energy  :   -38.8133264 Eh     change       -0.8835895E-03 Eh
 * total energy  :   -38.8135235 Eh     change       -0.1971198E-03 Eh
 * total energy  :   -38.8136472 Eh     change       -0.1237259E-03 Eh
 * total energy  :   -38.8137041 Eh     change       -0.5686909E-04 Eh
 * total energy  :   -38.8137837 Eh     change       -0.7962134E-04 Eh
 * total energy  :   -38.8138985 Eh     change       -0.1147856E-03 Eh
 * total energy  :   -38.8140294 Eh     change       -0.1308747E-03 Eh
 * total energy  :   -38.8141551 Eh     change       -0.1256716E-03 Eh
 * total energy  :   -38.8146693 Eh     change       -0.5188365E-05 Eh
 * total energy  :   -38.8146762 Eh     change       -0.6891966E-05 Eh
 * total energy  :   -38.8146846 Eh     change       -0.8457822E-05 Eh
 * total energy  :   -38.8146953 Eh     change       -0.1064041E-04 Eh
 * total energy  :   -38.8147061 Eh     change       -0.1085612E-04 Eh
 * total energy  :   -38.8147146 Eh     change       -0.8489652E-05 Eh
 * total energy  :   -38.8147215 Eh     change       -0.6931829E-05 Eh
 * total energy  :   -38.8147253 Eh     change       -0.3800405E-05 Eh
 * total energy  :   -38.8147299 Eh     change       -0.4514233E-05 Eh
   *** GEOMETRY OPTIMIZATION CONVERGED AFTER 30 ITERATIONS ***

 final structure:
================
29
 xtb: 6.7.1 (edcfbbe)
C            0.67838550280154       -0.00065352533941        0.15142210498914
N            0.40368897067694        1.29513312153514       -0.40752832754949
C            1.28812016407884        2.32803379749742       -0.48989941848933
C            0.63273904994667        3.37793844726698       -1.05727905792345
N           -0.64422999929885        2.97472500204965       -1.30180310443226
C           -0.75687116297418        1.70755118734043       -0.91031793254337
C           -1.64456659077054        3.70910597555817       -2.03559945397969
C           -1.54867660194572        3.35420371976675       -3.53306170627843
C           -1.69760890951013        1.87057556378590       -3.72668914765960
C           -2.95922685028739        1.28827760663513       -3.76712220846100
C           -3.09516242414636       -0.08338507385701       -3.88836247437861
C           -1.97050072132826       -0.88977342695247       -3.96329537073617
C           -0.70981947624204       -0.31911717141528       -3.92256575006345
C           -0.57422675672962        1.05389515789356       -3.80060806314720
H           -0.05628180051701       -0.71950318419545       -0.20420761327654
H            0.63748259896995        0.03970168870731        1.24138771798687
H            1.67379074326393       -0.32767275781879       -0.14536786484789
H            2.30013196919563        2.24851869513901       -0.14886381139911
H            0.98148598408086        4.36314943601245       -1.29131762958395
H           -1.64867345959284        1.11572551822192       -0.97735282494842
H           -2.63010868319837        3.43669342200291       -1.65323350714811
H           -1.48171736427182        4.77705236974026       -1.88426681634745
H           -2.34045817047339        3.88911799197427       -4.05654491003577
H           -0.58778689787485        3.69182393792850       -3.92403921737232
H           -3.83823512810733        1.91418575861530       -3.72091059264259
H           -4.07924705288049       -0.52318861407306       -3.93291676680428
H           -2.07729452912482       -1.95827045195681       -4.06548145267436
H            0.16913597730134       -0.94104397176553       -3.99716926949646
H            0.41278161895977        1.49698977970165       -3.79555553075576

          :  Hamiltonian                  GFN2-xTB          :
         :: total energy             -38.814729856374 Eh    ::
         :: gradient norm              0.000524922244 Eh/a0 ::
         :: HOMO-LUMO gap              3.045710208672 eV    ::
         :: SCC energy               -39.478779343600 Eh    ::
         :: -> dispersion             -0.027510833033 Eh    ::
         :: repulsion energy           0.664049487226 Eh    ::

    * Orbital Energies and Occupations

         #    Occupation            Energy/Eh            Energy/eV
      -------------------------------------------------------------
         1        2.0000           -0.8948123             -24.3491
       ...           ...                  ...                  ...
        24        2.0000           -0.6317624             -17.1911
        25        2.0000           -0.6178292             -16.8120
        26        2.0000           -0.6080826             -16.5468
        27        2.0000           -0.6037866             -16.4299
        28        2.0000           -0.5925357             -16.1237
        29        2.0000           -0.5889837             -16.0271
        30        2.0000           -0.5875606             -15.9883
        31        2.0000           -0.5848549             -15.9147
        32        2.0000           -0.5819415             -15.8354
        33        2.0000           -0.5388985             -14.6642
        34        2.0000           -0.5351541             -14.5623
        35        2.0000           -0.5203526             -14.1595
        36        2.0000           -0.5169919             -14.0681 (HOMO)
        37                         -0.4050642             -11.0224 (LUMO)
        38                         -0.3700546             -10.0697
        39                         -0.3409460              -9.2776
        40                         -0.3383633              -9.2073
        41                         -0.2117997              -5.7634
        42                         -0.1805495              -4.9130
        43                         -0.1268526              -3.4518
        44                         -0.0548212              -1.4918
        45                         -0.0504476              -1.3727
        46                         -0.0401368              -1.0922
        47                         -0.0223679              -0.6087
       ...                                ...                  ...
        71                          0.5467617              14.8781
      -------------------------------------------------------------
                  HL-Gap            0.1119278 Eh            3.0457 eV

     #   Z          covCN         q      C6AA      α(0)
     1   6 C        3.692    -0.086    22.336     6.762
     2   7 N        2.867     0.076    19.918     6.628
     3   6 C        3.072    -0.009    28.166     8.702
     4   6 C        3.071    -0.006    28.088     8.690
     5   7 N        2.870     0.069    20.031     6.647
     6   6 C        3.099     0.048    26.807     8.485
     7   6 C        3.745    -0.025    21.090     6.551
     8   6 C        3.809    -0.076    21.938     6.667
     9   6 C        2.971     0.001    28.010     8.681
    10   6 C        2.923    -0.040    28.999     8.831
    11   6 C        2.919    -0.026    28.648     8.777
    12   6 C        2.920    -0.028    28.694     8.784
    13   6 C        2.918    -0.032    28.804     8.801
    14   6 C        2.923    -0.047    29.155     8.855
    15   1 H        0.925     0.099     1.795     2.095
    16   1 H        0.924     0.106     1.731     2.057
    17   1 H        0.925     0.107     1.719     2.051
    18   1 H        0.926     0.109     1.703     2.040
    19   1 H        0.926     0.109     1.708     2.043
    20   1 H        0.926     0.112     1.680     2.027
    21   1 H        0.924     0.086     1.915     2.164
    22   1 H        0.924     0.091     1.865     2.136
    23   1 H        0.925     0.081     1.969     2.194
    24   1 H        0.924     0.062     2.172     2.305
    25   1 H        0.926     0.044     2.399     2.422
    26   1 H        0.926     0.053     2.281     2.362
    27   1 H        0.926     0.052     2.297     2.370
    28   1 H        0.926     0.043     2.404     2.425
    29   1 H        0.925     0.025     2.664     2.552

Wiberg/Mayer (AO) data.
largest (>0.10) Wiberg bond orders for each atom

     #   Z sym  total        # sym  WBO       # sym  WBO       # sym  WBO
 ---------------------------------------------------------------------------
     1   6 C    3.934 --     2 N    0.991    15 H    0.974    17 H    0.968
                            16 H    0.959
     2   7 N    3.719 --     6 C    1.358     3 C    1.224     1 C    0.991
     3   6 C    3.947 --     4 C    1.593     2 N    1.224    18 H    0.961
     4   6 C    3.949 --     3 C    1.593     5 N    1.226    19 H    0.961
     5   7 N    3.715 --     6 C    1.355     4 C    1.226     7 C    0.973
     6   6 C    3.948 --     2 N    1.358     5 N    1.355    20 H    0.954
     7   6 C    3.938 --     5 N    0.973    21 H    0.965    22 H    0.965
                             8 C    0.964
     8   6 C    3.982 --     9 C    1.012    24 H    0.972     7 C    0.964
                            23 H    0.962
     9   6 C    3.988 --    10 C    1.409    14 C    1.408     8 C    1.012
                            12 C    0.108
    10   6 C    3.991 --    11 C    1.449     9 C    1.409    25 H    0.968
                            13 C    0.112
    11   6 C    3.990 --    10 C    1.449    12 C    1.434    26 H    0.969
                            14 C    0.109
    12   6 C    3.990 --    13 C    1.443    11 C    1.434    27 H    0.970
                             9 C    0.108
    13   6 C    3.992 --    12 C    1.443    14 C    1.438    28 H    0.970
                            10 C    0.112
    14   6 C    3.992 --    13 C    1.438     9 C    1.408    29 H    0.969
                            11 C    0.109
    15   1 H    0.990 --     1 C    0.974
    16   1 H    0.988 --     1 C    0.959
    17   1 H    0.988 --     1 C    0.968
    18   1 H    0.988 --     3 C    0.961
    19   1 H    0.988 --     4 C    0.961
    20   1 H    0.987 --     6 C    0.954
    21   1 H    0.992 --     7 C    0.965
    22   1 H    0.991 --     7 C    0.965
    23   1 H    0.993 --     8 C    0.962
    24   1 H    0.996 --     8 C    0.972
    25   1 H    0.998 --    10 C    0.968
    26   1 H    0.997 --    11 C    0.969
    27   1 H    0.997 --    12 C    0.970
    28   1 H    0.998 --    13 C    0.970
    29   1 H    0.999 --    14 C    0.969
 ---------------------------------------------------------------------------

molecular dipole:
                 x           y           z       tot (Debye)
 q only:       -0.589       3.608      -2.068
   full:       -0.627       3.615      -2.075      10.712

           -------------------------------------------------
          | TOTAL ENERGY              -38.814729856374 Eh   |
          | GRADIENT NORM               0.000524922244 Eh/α |
          | HOMO-LUMO GAP               3.045710208672 eV   |
           -------------------------------------------------

 * finished run on 2024/12/20 at 06:59:59.022
