   * xtb version 6.7.1 (edcfbbe) compiled by 'conda@3ef47c1a292c' on 2024-11-25

   ID    Z sym.   atoms
    1    8 O      1, 8
    2    6 C      2-4, 6, 7, 9-11
    3    7 N      5
    4    1 H      12-29

          program call               : xtb C0832.xyz --opt --namespace C0832 --charge +1
          :  Hamiltonian                  GFN2-xTB          :
 * total energy  :   -36.9449188 Eh     change       -0.5732659E-10 Eh
 * total energy  :   -36.9529476 Eh     change       -0.8028867E-02 Eh
 * total energy  :   -36.9549784 Eh     change       -0.2030817E-02 Eh
 * total energy  :   -36.9551115 Eh     change       -0.1330377E-03 Eh
 * total energy  :   -36.9551629 Eh     change       -0.5140237E-04 Eh
 * total energy  :   -36.9551746 Eh     change       -0.1173553E-04 Eh
 * total energy  :   -36.9551835 Eh     change       -0.8918122E-05 Eh
 * total energy  :   -36.9551877 Eh     change       -0.4175812E-05 Eh
   *** GEOMETRY OPTIMIZATION CONVERGED AFTER 8 ITERATIONS ***

 final structure:
================
29
 xtb: 6.7.1 (edcfbbe)
O            1.01856175455587        0.04696647933088        0.12635267147193
C            0.20037806326877       -1.10364827436553        0.12844308249845
C            1.01799477894267       -2.30305816248118       -0.38429169651558
C            2.52188074522121       -2.24021767397024       -0.10828497509184
N            3.04999671676863       -2.51865596552276        1.26869598918594
C            2.64584465281047       -1.44911116557793        2.22237686553525
C            3.03299744633709       -1.77857879686373        3.66810280108536
O            2.48631925127811       -3.01126847228986        4.06183312499369
C            2.94055675259133       -4.05790315956350        3.24615934779070
C            2.54182406281550       -3.81799576171526        1.78391101793432
C            4.52180630838426       -2.55082968177744        1.13929184145984
H            0.46927405956557        0.83570550007223        0.08883431768131
H           -0.19035740677599       -1.29149576261046        1.14079995503326
H           -0.66537734618628       -0.97498891469977       -0.52857515412201
H            0.56099516921657       -3.22965170970601       -0.04124504014719
H            0.95054114891107       -2.30243326212170       -1.47413871084443
H            3.00383754352771       -2.96044102206486       -0.77158181752720
H            2.85046816655054       -1.23416979500955       -0.37670215206069
H            1.56288961982560       -1.36023966495649        2.18234287192944
H            3.08447859601924       -0.50297268758898        1.90658531145869
H            2.59864123988056       -1.02747243781615        4.33024623333942
H            4.12210738278594       -1.77222859184328        3.81264208407967
H            4.02560318786735       -4.19504909092556        3.35168930330876
H            2.44566798204658       -4.96209868229047        3.60546182627231
H            2.90743651617528       -4.62625843488254        1.14968129772356
H            1.45233228686768       -3.79217269713598        1.74406832183139
H            4.82302476704700       -3.36519641507581        0.48270677608510
H            4.87386942044983       -1.61108201081729        0.71755751032801
H            4.99719713325202       -2.69461368573066        2.10509699528271

          :  Hamiltonian                  GFN2-xTB          :
         :: total energy             -36.955187716881 Eh    ::
         :: gradient norm              0.000523778047 Eh/a0 ::
         :: HOMO-LUMO gap              8.323218372703 eV    ::
         :: SCC energy               -37.362888927681 Eh    ::
         :: -> dispersion             -0.022118767534 Eh    ::
         :: repulsion energy           0.407701210800 Eh    ::

    * Orbital Energies and Occupations

         #    Occupation            Energy/Eh            Energy/eV
      -------------------------------------------------------------
         1        2.0000           -0.8668002             -23.5868
       ...           ...                  ...                  ...
        21        2.0000           -0.6568048             -17.8726
        22        2.0000           -0.6533582             -17.7788
        23        2.0000           -0.6491226             -17.6635
        24        2.0000           -0.6452296             -17.5576
        25        2.0000           -0.6396339             -17.4053
        26        2.0000           -0.6271234             -17.0649
        27        2.0000           -0.6149102             -16.7326
        28        2.0000           -0.6116347             -16.6434
        29        2.0000           -0.6024128             -16.3925
        30        2.0000           -0.5937260             -16.1561
        31        2.0000           -0.5894879             -16.0408
        32        2.0000           -0.5536110             -15.0645
        33        2.0000           -0.5449168             -14.8279 (HOMO)
        34                         -0.2390442              -6.5047 (LUMO)
        35                         -0.1659082              -4.5146
        36                         -0.1640737              -4.4647
        37                         -0.1540668              -4.1924
        38                         -0.1077497              -2.9320
        39                         -0.1025383              -2.7902
        40                         -0.0820257              -2.2320
        41                         -0.0766880              -2.0868
        42                         -0.0649940              -1.7686
        43                         -0.0452419              -1.2311
        44                         -0.0384054              -1.0451
       ...                                ...                  ...
        62                          0.1691089               4.6017
      -------------------------------------------------------------
                  HL-Gap            0.3058726 Eh            8.3232 eV

     #   Z          covCN         q      C6AA      α(0)
     1   8 O        1.655    -0.448    21.808     6.304
     2   6 C        3.671     0.074    19.568     6.341
     3   6 C        3.798    -0.078    21.992     6.677
     4   6 C        3.763    -0.043    21.391     6.593
     5   7 N        3.621     0.126    19.091     6.489
     6   6 C        3.761    -0.049    21.491     6.609
     7   6 C        3.718     0.063    19.645     6.331
     8   8 O        1.702    -0.285    18.732     5.843
     9   6 C        3.718     0.064    19.616     6.327
    10   6 C        3.759    -0.044    21.415     6.597
    11   6 C        3.723    -0.096    22.456     6.767
    12   1 H        0.805     0.308     0.696     1.310
    13   1 H        0.923     0.029     2.601     2.522
    14   1 H        0.924     0.050     2.318     2.381
    15   1 H        0.925     0.061     2.188     2.313
    16   1 H        0.924     0.088     1.900     2.156
    17   1 H        0.924     0.084     1.941     2.179
    18   1 H        0.924     0.115     1.656     2.013
    19   1 H        0.925     0.112     1.683     2.029
    20   1 H        0.925     0.097     1.811     2.105
    21   1 H        0.924     0.097     1.815     2.107
    22   1 H        0.923     0.049     2.329     2.387
    23   1 H        0.923     0.051     2.313     2.378
    24   1 H        0.924     0.096     1.820     2.110
    25   1 H        0.924     0.085     1.925     2.170
    26   1 H        0.924     0.099     1.791     2.093
    27   1 H        0.925     0.095     1.832     2.117
    28   1 H        0.925     0.099     1.790     2.092
    29   1 H        0.925     0.101     1.774     2.083

Wiberg/Mayer (AO) data.
largest (>0.10) Wiberg bond orders for each atom

     #   Z sym  total        # sym  WBO       # sym  WBO       # sym  WBO
 ---------------------------------------------------------------------------
     1   8 O    1.951 --     2 C    1.002    12 H    0.891
     2   6 C    3.958 --     1 O    1.002     3 C    0.998    14 H    0.972
                            13 H    0.963
     3   6 C    3.988 --     4 C    1.012     2 C    0.998    15 H    0.969
                            16 H    0.964
     4   6 C    3.928 --     3 C    1.012    17 H    0.967    18 H    0.958
                             5 N    0.921
     5   7 N    3.808 --    11 C    0.959    10 C    0.940     6 C    0.935
                             4 C    0.921
     6   6 C    3.930 --     7 C    0.996    20 H    0.966    19 H    0.955
                             5 N    0.935
     7   6 C    3.952 --     6 C    0.996     8 O    0.995    22 H    0.960
                            21 H    0.960
     8   8 O    2.103 --     9 C    0.999     7 C    0.995
     9   6 C    3.953 --     8 O    0.999    10 C    0.993    23 H    0.960
                            24 H    0.960
    10   6 C    3.939 --     9 C    0.993    25 H    0.969    26 H    0.960
                             5 N    0.940
    11   6 C    3.929 --    27 H    0.975    28 H    0.974    29 H    0.966
                             5 N    0.959
    12   1 H    0.905 --     1 O    0.891
    13   1 H    0.999 --     2 C    0.963
    14   1 H    0.997 --     2 C    0.972
    15   1 H    0.996 --     3 C    0.969
    16   1 H    0.992 --     3 C    0.964
    17   1 H    0.993 --     4 C    0.967
    18   1 H    0.987 --     4 C    0.958
    19   1 H    0.988 --     6 C    0.955
    20   1 H    0.991 --     6 C    0.966
    21   1 H    0.990 --     7 C    0.960
    22   1 H    0.997 --     7 C    0.960
    23   1 H    0.997 --     9 C    0.960
    24   1 H    0.990 --     9 C    0.960
    25   1 H    0.993 --    10 C    0.969
    26   1 H    0.990 --    10 C    0.960
    27   1 H    0.991 --    11 C    0.975
    28   1 H    0.990 --    11 C    0.974
    29   1 H    0.989 --    11 C    0.966
 ---------------------------------------------------------------------------

molecular dipole:
                 x           y           z       tot (Debye)
 q only:        5.210      -4.517       2.039
   full:        5.120      -4.444       1.852      17.863

           -------------------------------------------------
          | TOTAL ENERGY              -36.955187716881 Eh   |
          | GRADIENT NORM               0.000523778047 Eh/α |
          | HOMO-LUMO GAP               8.323218372703 eV   |
           -------------------------------------------------

 * finished run on 2024/12/20 at 07:00:02.394
