   * xtb version 6.7.1 (edcfbbe) compiled by 'conda@3ef47c1a292c' on 2024-11-25

   ID    Z sym.   atoms
    1   17 Cl     1
    2    6 C      2-8, 10, 12, 13, 15-17
    3    8 O      9
    4    7 N      11, 14
    5    1 H      18-31

          program call               : xtb C0846.xyz --opt --namespace C0846 --charge +1
          :  Hamiltonian                  GFN2-xTB          :
 * total energy  :   -49.0500478 Eh     change       -0.2111683E-08 Eh
 * total energy  :   -49.0570754 Eh     change       -0.7027643E-02 Eh
 * total energy  :   -49.0586980 Eh     change       -0.1622648E-02 Eh
 * total energy  :   -49.0589753 Eh     change       -0.2772497E-03 Eh
 * total energy  :   -49.0591104 Eh     change       -0.1351102E-03 Eh
 * total energy  :   -49.0591752 Eh     change       -0.6476099E-04 Eh
 * total energy  :   -49.0592150 Eh     change       -0.3983426E-04 Eh
 * total energy  :   -49.0592427 Eh     change       -0.2772056E-04 Eh
 * total energy  :   -49.0592622 Eh     change       -0.1947714E-04 Eh
 * total energy  :   -49.0592745 Eh     change       -0.1232195E-04 Eh
 * total energy  :   -49.0593407 Eh     change       -0.1863352E-04 Eh
 * total energy  :   -49.0593583 Eh     change       -0.1769710E-04 Eh
 * total energy  :   -49.0593738 Eh     change       -0.1542429E-04 Eh
 * total energy  :   -49.0593856 Eh     change       -0.1186022E-04 Eh
 * total energy  :   -49.0593946 Eh     change       -0.8994846E-05 Eh
 * total energy  :   -49.0594003 Eh     change       -0.5629239E-05 Eh
 * total energy  :   -49.0594101 Eh     change       -0.9837107E-05 Eh
 * total energy  :   -49.0594244 Eh     change       -0.1425991E-04 Eh
 * total energy  :   -49.0594285 Eh     change       -0.4176223E-05 Eh
   *** GEOMETRY OPTIMIZATION CONVERGED AFTER 22 ITERATIONS ***

 final structure:
================
31
 xtb: 6.7.1 (edcfbbe)
Cl          -2.09571649475572        0.09697700521308        0.53133252630865
C           -0.39782567036179        0.07042966549203        0.30715626717353
C            0.26287024693121       -1.14016616166034        0.11793928764506
C            1.62796194617060       -1.14650959342617       -0.05968121977309
C            2.36517178014521        0.04577567052912       -0.04397349592586
C            1.68470699304449        1.25315921128449        0.14564399038511
C            0.31737193201375        1.26629015994387        0.31509133586639
C            3.81245754128104       -0.06084014168062       -0.23468313105241
O            4.37809190914024       -1.08267755755534       -0.53471706007850
C            4.65982784946609        1.22969386454239       -0.05118684172976
N            4.57416112163177        2.05804555343900       -1.23039276210420
C            4.56002232492216        1.56782652363277       -2.50605412751750
C            4.48554376040503        2.63260893970657       -3.34418033578726
N            4.46076106794643        3.75860563284372       -2.57289201284004
C            4.52256697651414        3.39526120734980       -1.28499131758374
C            4.54083845983121        4.31875902804309       -0.13173000960038
C            4.38207152143135        5.10671917567409       -3.07241259458278
H           -0.29516171038965       -2.06250976431597        0.11273696475202
H            2.15948416412439       -2.07440948317278       -0.20685351773726
H            2.21199685513527        2.19469721254073        0.15718702759556
H           -0.20787912452160        2.19675984979270        0.46077227929275
H            4.33203171226410        1.78185412780927        0.82873268682979
H            5.69696083115635        0.90503907208510        0.08772317784925
H            4.60896778147470        0.51871866920303       -2.71472433094116
H            4.45083105330610        2.66814575878900       -4.41332092352426
H            3.54036129228513        4.44978726785847        0.28428005474909
H            5.18837288078602        3.94003199951173        0.65606155547176
H            4.90376021503728        5.29756624304143       -0.43362873080245
H            3.48315250705601        5.60113424852526       -2.70257986341014
H            5.25602795818255        5.68239988458292       -2.76427940598444
H            4.34825031834630        5.08146673037976       -4.15901547294558

          :  Hamiltonian                  GFN2-xTB          :
         :: total energy             -49.059428531349 Eh    ::
         :: gradient norm              0.000478494966 Eh/a0 ::
         :: HOMO-LUMO gap              2.577471818742 eV    ::
         :: SCC energy               -49.763085434655 Eh    ::
         :: -> dispersion             -0.030644234701 Eh    ::
         :: repulsion energy           0.703656903306 Eh    ::

    * Orbital Energies and Occupations

         #    Occupation            Energy/Eh            Energy/eV
      -------------------------------------------------------------
         1        2.0000           -1.1521952             -31.3528
       ...           ...                  ...                  ...
        32        2.0000           -0.6248457             -17.0029
        33        2.0000           -0.6152165             -16.7409
        34        2.0000           -0.6108436             -16.6219
        35        2.0000           -0.6050047             -16.4630
        36        2.0000           -0.5992685             -16.3069
        37        2.0000           -0.5731329             -15.5957
        38        2.0000           -0.5710650             -15.5395
        39        2.0000           -0.5634938             -15.3334
        40        2.0000           -0.5537714             -15.0689
        41        2.0000           -0.5377701             -14.6335
        42        2.0000           -0.5291964             -14.4002
        43        2.0000           -0.5174803             -14.0814
        44        2.0000           -0.5081622             -13.8278 (HOMO)
        45                         -0.4134419             -11.2503 (LUMO)
        46                         -0.3994823             -10.8705
        47                         -0.3643337              -9.9140
        48                         -0.3536223              -9.6226
        49                         -0.3254432              -8.8558
        50                         -0.2297040              -6.2506
        51                         -0.2203356              -5.9956
        52                         -0.1802566              -4.9050
        53                         -0.1270599              -3.4575
        54                         -0.0955679              -2.6005
        55                         -0.0863966              -2.3510
       ...                                ...                  ...
        87                          0.5451480              14.8342
      -------------------------------------------------------------
                  HL-Gap            0.0947203 Eh            2.5775 eV

     #   Z          covCN         q      C6AA      α(0)
     1  17 Cl       0.970    -0.103   102.351    15.478
     2   6 C        2.887     0.116    25.439     8.269
     3   6 C        2.951    -0.030    28.748     8.794
     4   6 C        2.928    -0.009    28.248     8.716
     5   6 C        2.968    -0.023    28.580     8.769
     6   6 C        2.920    -0.028    28.705     8.786
     7   6 C        2.955    -0.036    28.897     8.817
     8   6 C        2.820     0.226    23.261     7.903
     9   8 O        0.858    -0.324    20.222     6.029
    10   6 C        3.739    -0.052    21.583     6.629
    11   7 N        2.873     0.045    20.452     6.717
    12   6 C        3.047    -0.008    28.177     8.706
    13   6 C        3.050    -0.010    28.212     8.711
    14   7 N        2.869     0.050    20.374     6.704
    15   6 C        3.098     0.102    25.632     8.297
    16   6 C        3.754    -0.137    23.187     6.866
    17   6 C        3.692    -0.081    22.244     6.749
    18   1 H        0.926     0.087     1.910     2.161
    19   1 H        0.926     0.091     1.865     2.136
    20   1 H        0.926     0.038     2.478     2.462
    21   1 H        0.926     0.074     2.039     2.233
    22   1 H        0.925     0.091     1.872     2.140
    23   1 H        0.924     0.107     1.719     2.050
    24   1 H        0.926     0.112     1.678     2.026
    25   1 H        0.927     0.106     1.734     2.059
    26   1 H        0.924     0.099     1.791     2.093
    27   1 H        0.925     0.098     1.807     2.102
    28   1 H        0.925     0.099     1.795     2.095
    29   1 H        0.924     0.098     1.802     2.100
    30   1 H        0.924     0.098     1.806     2.102
    31   1 H        0.925     0.105     1.743     2.065

Wiberg/Mayer (AO) data.
largest (>0.10) Wiberg bond orders for each atom

     #   Z sym  total        # sym  WBO       # sym  WBO       # sym  WBO
 ---------------------------------------------------------------------------
     1  17 Cl   1.194 --     2 C    1.035
     2   6 C    3.928 --     3 C    1.375     7 C    1.366     1 Cl   1.035
     3   6 C    3.985 --     4 C    1.479     2 C    1.375    18 H    0.962
     4   6 C    3.982 --     3 C    1.479     5 C    1.344    19 H    0.960
     5   6 C    3.987 --     6 C    1.351     4 C    1.344     8 C    1.075
     6   6 C    3.992 --     7 C    1.484     5 C    1.351    20 H    0.965
     7   6 C    3.987 --     6 C    1.484     2 C    1.366    21 H    0.965
     8   6 C    3.928 --     9 O    1.835     5 C    1.075    10 C    0.924
     9   8 O    2.094 --     8 C    1.835
    10   6 C    3.939 --    11 N    0.976    22 H    0.959    23 H    0.950
                             8 C    0.924
    11   7 N    3.695 --    15 C    1.322    12 C    1.208    10 C    0.976
    12   6 C    3.948 --    13 C    1.609    11 N    1.208    24 H    0.959
    13   6 C    3.948 --    12 C    1.609    14 N    1.211    25 H    0.961
    14   7 N    3.697 --    15 C    1.322    13 C    1.211    17 C    0.990
    15   6 C    3.950 --    11 N    1.322    14 N    1.322    16 C    1.045
    16   6 C    3.977 --    15 C    1.045    28 H    0.965    27 H    0.963
                            26 H    0.945
    17   6 C    3.937 --    14 N    0.990    31 H    0.974    29 H    0.966
                            30 H    0.963
    18   1 H    0.992 --     3 C    0.962
    19   1 H    0.992 --     4 C    0.960
    20   1 H    0.999 --     6 C    0.965
    21   1 H    0.994 --     7 C    0.965
    22   1 H    0.991 --    10 C    0.959
    23   1 H    0.988 --    10 C    0.950
    24   1 H    0.987 --    12 C    0.959
    25   1 H    0.988 --    13 C    0.961
    26   1 H    0.990 --    16 C    0.945
    27   1 H    0.990 --    16 C    0.963
    28   1 H    0.990 --    16 C    0.965
    29   1 H    0.990 --    17 C    0.966
    30   1 H    0.990 --    17 C    0.963
    31   1 H    0.989 --    17 C    0.974
 ---------------------------------------------------------------------------

molecular dipole:
                 x           y           z       tot (Debye)
 q only:        7.460       6.196      -2.802
   full:        7.053       6.352      -2.680      25.068

           -------------------------------------------------
          | TOTAL ENERGY              -49.059428531349 Eh   |
          | GRADIENT NORM               0.000478494966 Eh/α |
          | HOMO-LUMO GAP               2.577471818742 eV   |
           -------------------------------------------------

 * finished run on 2024/12/20 at 07:00:49.952
