   * xtb version 6.7.1 (edcfbbe) compiled by 'conda@3ef47c1a292c' on 2024-11-25

   ID    Z sym.   atoms
    1    6 C      1-3, 5-10
    2    7 N      4
    3    1 H      11-24

          program call               : xtb C0845.xyz --opt --namespace C0845 --charge +1
          :  Hamiltonian                  GFN2-xTB          :
 * total energy  :   -28.9371732 Eh     change       -0.4024834E-09 Eh
 * total energy  :   -28.9393457 Eh     change       -0.2172561E-02 Eh
 * total energy  :   -28.9397049 Eh     change       -0.3592193E-03 Eh
 * total energy  :   -28.9397681 Eh     change       -0.6320440E-04 Eh
 * total energy  :   -28.9398268 Eh     change       -0.5866883E-04 Eh
 * total energy  :   -28.9398687 Eh     change       -0.4185915E-04 Eh
 * total energy  :   -28.9399168 Eh     change       -0.4807619E-04 Eh
 * total energy  :   -28.9399830 Eh     change       -0.6625295E-04 Eh
 * total energy  :   -28.9400511 Eh     change       -0.6809361E-04 Eh
 * total energy  :   -28.9401175 Eh     change       -0.6638028E-04 Eh
 * total energy  :   -28.9401428 Eh     change       -0.2529577E-04 Eh
 * total energy  :   -28.9401802 Eh     change       -0.3737864E-04 Eh
 * total energy  :   -28.9402074 Eh     change       -0.2725913E-04 Eh
 * total energy  :   -28.9402358 Eh     change       -0.2836423E-04 Eh
 * total energy  :   -28.9402602 Eh     change       -0.2440091E-04 Eh
 * total energy  :   -28.9402716 Eh     change       -0.1143522E-04 Eh
 * total energy  :   -28.9402779 Eh     change       -0.6326917E-05 Eh
 * total energy  :   -28.9402854 Eh     change       -0.7436942E-05 Eh
 * total energy  :   -28.9402902 Eh     change       -0.4864087E-05 Eh
   *** GEOMETRY OPTIMIZATION CONVERGED AFTER 19 ITERATIONS ***

 final structure:
================
24
 xtb: 6.7.1 (edcfbbe)
C            1.87795287188622       -0.05449532963245       -0.30940518786663
C            0.58793020331240        0.14247147209711       -1.09399761666311
C            0.33084153081847       -0.97906659790168       -2.11085275784725
N            0.11827607540815       -2.24836046796589       -1.43712910590411
C            1.14060372093178       -3.08701235859203       -1.25337156190076
C            0.96795844750711       -4.26519114883198       -0.55226382485868
C           -0.27833163202745       -4.57294161934653       -0.03461157843546
C           -1.34570829006556       -3.69018653498623       -0.22677577441439
C           -1.09128764155270       -2.52911965229114       -0.94025619317212
C           -2.70465963798567       -3.98860535779302        0.29666372211432
H            1.84046245805276       -0.94801638230634        0.31144564046337
H            2.03855818243566        0.79605343028832        0.34633862518063
H            2.73220340508298       -0.12506954377250       -0.97851551289293
H           -0.25698720284448        0.21296597438850       -0.40631241194452
H            0.64284176734374        1.07787696482113       -1.65078042649513
H           -0.55384232259389       -0.74217060381342       -2.70478109880003
H            1.18811328149203       -1.07228006014657       -2.77934491992949
H            2.09513136785095       -2.81190616757517       -1.67456477007204
H            1.80476449358717       -4.93086547400305       -0.41650457510651
H           -0.43109917403141       -5.48907599160462        0.51464051021015
H           -1.87506224591494       -1.80815065561157       -1.12270832102767
H           -3.19290601245606       -4.72133689857704       -0.34691505601007
H           -2.64574493219333       -4.42155925017070        1.29260420657373
H           -3.32608871404320       -3.09828774667346        0.32888798879840

          :  Hamiltonian                  GFN2-xTB          :
         :: total energy             -28.940290242685 Eh    ::
         :: gradient norm              0.000656716153 Eh/a0 ::
         :: HOMO-LUMO gap              3.346332234045 eV    ::
         :: SCC energy               -29.428372745006 Eh    ::
         :: -> dispersion             -0.017383337952 Eh    ::
         :: repulsion energy           0.488082502320 Eh    ::

    * Orbital Energies and Occupations

         #    Occupation            Energy/Eh            Energy/eV
      -------------------------------------------------------------
         1        2.0000           -0.8743036             -23.7910
       ...           ...                  ...                  ...
        15        2.0000           -0.6631837             -18.0461
        16        2.0000           -0.6580838             -17.9074
        17        2.0000           -0.6536469             -17.7866
        18        2.0000           -0.6365711             -17.3220
        19        2.0000           -0.6292092             -17.1217
        20        2.0000           -0.6239150             -16.9776
        21        2.0000           -0.6174575             -16.8019
        22        2.0000           -0.6155593             -16.7502
        23        2.0000           -0.6042414             -16.4422
        24        2.0000           -0.5948234             -16.1860
        25        2.0000           -0.5866266             -15.9629
        26        2.0000           -0.5802329             -15.7889
        27        2.0000           -0.5749102             -15.6441 (HOMO)
        28                         -0.4519348             -12.2978 (LUMO)
        29                         -0.4186691             -11.3926
        30                         -0.3018204              -8.2129
        31                         -0.1682860              -4.5793
        32                         -0.0770574              -2.0968
        33                         -0.0633608              -1.7241
        34                         -0.0459511              -1.2504
        35                         -0.0385781              -1.0498
        36                         -0.0147563              -0.4015
        37                         -0.0117176              -0.3189
        38                         -0.0000696              -0.0019
       ...                                ...                  ...
        54                          0.4434946              12.0681
      -------------------------------------------------------------
                  HL-Gap            0.1229754 Eh            3.3463 eV

     #   Z          covCN         q      C6AA      α(0)
     1   6 C        3.752    -0.118    22.821     6.812
     2   6 C        3.801    -0.064    21.737     6.638
     3   6 C        3.760    -0.036    21.263     6.574
     4   7 N        2.749     0.110    19.350     6.533
     5   6 C        2.892     0.027    27.405     8.583
     6   6 C        2.913    -0.015    28.379     8.735
     7   6 C        2.930    -0.003    28.092     8.692
     8   6 C        2.961     0.049    26.890     8.505
     9   6 C        2.900     0.017    27.635     8.619
    10   6 C        3.759    -0.134    23.118     6.855
    11   1 H        0.925     0.037     2.494     2.470
    12   1 H        0.925     0.071     2.072     2.251
    13   1 H        0.925     0.054     2.270     2.356
    14   1 H        0.924     0.057     2.235     2.338
    15   1 H        0.925     0.080     1.978     2.200
    16   1 H        0.924     0.089     1.884     2.147
    17   1 H        0.924     0.092     1.859     2.132
    18   1 H        0.926     0.107     1.720     2.051
    19   1 H        0.926     0.104     1.753     2.070
    20   1 H        0.926     0.101     1.776     2.084
    21   1 H        0.926     0.102     1.764     2.077
    22   1 H        0.924     0.099     1.792     2.093
    23   1 H        0.925     0.093     1.854     2.129
    24   1 H        0.925     0.080     1.983     2.202

Wiberg/Mayer (AO) data.
largest (>0.10) Wiberg bond orders for each atom

     #   Z sym  total        # sym  WBO       # sym  WBO       # sym  WBO
 ---------------------------------------------------------------------------
     1   6 C    3.991 --     2 C    1.023    13 H    0.985    11 H    0.985
                            12 H    0.979
     2   6 C    3.983 --     1 C    1.023     3 C    0.976    14 H    0.974
                            15 H    0.966
     3   6 C    3.936 --     2 C    0.976     4 N    0.964    17 H    0.964
                            16 H    0.962
     4   7 N    3.767 --     5 C    1.332     9 C    1.323     3 C    0.964
     5   6 C    3.959 --     6 C    1.440     4 N    1.332    18 H    0.954
     6   6 C    3.983 --     7 C    1.449     5 C    1.440    19 H    0.960
     7   6 C    3.975 --     6 C    1.449     8 C    1.368    20 H    0.961
     8   6 C    3.981 --     9 C    1.420     7 C    1.368    10 C    1.046
     9   6 C    3.959 --     8 C    1.420     4 N    1.323    21 H    0.954
    10   6 C    3.982 --     8 C    1.046    24 H    0.977    23 H    0.963
                            22 H    0.943
    11   1 H    0.999 --     1 C    0.985
    12   1 H    0.994 --     1 C    0.979
    13   1 H    0.997 --     1 C    0.985
    14   1 H    0.997 --     2 C    0.974
    15   1 H    0.992 --     2 C    0.966
    16   1 H    0.992 --     3 C    0.962
    17   1 H    0.991 --     3 C    0.964
    18   1 H    0.988 --     5 C    0.954
    19   1 H    0.989 --     6 C    0.960
    20   1 H    0.990 --     7 C    0.961
    21   1 H    0.990 --     9 C    0.954
    22   1 H    0.990 --    10 C    0.943
    23   1 H    0.991 --    10 C    0.963
    24   1 H    0.993 --    10 C    0.977
 ---------------------------------------------------------------------------

molecular dipole:
                 x           y           z       tot (Debye)
 q only:       -0.298      -4.995      -1.723
   full:       -0.279      -5.028      -1.802      13.593

           -------------------------------------------------
          | TOTAL ENERGY              -28.940290242685 Eh   |
          | GRADIENT NORM               0.000656716153 Eh/α |
          | HOMO-LUMO GAP               3.346332234045 eV   |
           -------------------------------------------------

 * finished run on 2024/12/20 at 07:00:49.008
