   * xtb version 6.7.1 (edcfbbe) compiled by 'conda@3ef47c1a292c' on 2024-11-25

   ID    Z sym.   atoms
    1    6 C      1-4, 7-11, 13, 15-23
    2    8 O      5, 6
    3    7 N      12, 14
    4    1 H      24-48

          program call               : xtb C0847.xyz --opt --namespace C0847 --charge +1
          :  Hamiltonian                  GFN2-xTB          :
 * total energy  :   -67.0613090 Eh     change       -0.2984848E-09 Eh
 * total energy  :   -67.0685350 Eh     change       -0.7226032E-02 Eh
 * total energy  :   -67.0701204 Eh     change       -0.1585383E-02 Eh
 * total energy  :   -67.0706949 Eh     change       -0.5744988E-03 Eh
 * total energy  :   -67.0711752 Eh     change       -0.4802457E-03 Eh
 * total energy  :   -67.0714755 Eh     change       -0.3003236E-03 Eh
 * total energy  :   -67.0717685 Eh     change       -0.2930220E-03 Eh
 * total energy  :   -67.0720532 Eh     change       -0.2846675E-03 Eh
 * total energy  :   -67.0723564 Eh     change       -0.3031893E-03 Eh
 * total energy  :   -67.0726885 Eh     change       -0.3321435E-03 Eh
 * total energy  :   -67.0775342 Eh     change       -0.2656645E-04 Eh
 * total energy  :   -67.0775554 Eh     change       -0.2116806E-04 Eh
 * total energy  :   -67.0775675 Eh     change       -0.1218686E-04 Eh
 * total energy  :   -67.0775745 Eh     change       -0.6949437E-05 Eh
 * total energy  :   -67.0775802 Eh     change       -0.5738003E-05 Eh
 * total energy  :   -67.0775873 Eh     change       -0.7089736E-05 Eh
 * total energy  :   -67.0775947 Eh     change       -0.7402698E-05 Eh
 * total energy  :   -67.0776004 Eh     change       -0.5668300E-05 Eh
 * total energy  :   -67.0776046 Eh     change       -0.4167440E-05 Eh
   *** GEOMETRY OPTIMIZATION CONVERGED AFTER 65 ITERATIONS ***

 final structure:
================
48
 xtb: 6.7.1 (edcfbbe)
C            0.75926098705824        1.07265264701329        0.52208592982018
C            0.20938704805068        1.12386947626907       -0.90094783734999
C            1.17768761698320        0.79306277368976       -2.04395401135370
C            2.08904320497725       -0.41135497886432       -1.82187258935920
O            1.94404462505557       -1.33955148829283       -1.09258864676855
O            3.19057927395428       -0.26800978978048       -2.60719541087372
C            3.07802241586271        0.91588158607040       -3.38172854072432
C            2.18868931264360        1.84054893503071       -2.54336202926855
C            2.97392890987975        2.48048543048811       -1.37802929118387
C            4.25418646436737        3.09674123419767       -1.81143540658034
C            4.49320790723724        4.28271493163737       -2.44837727481372
N            5.83415912032008        4.38070390679478       -2.66604306938033
C            6.41007149573446        3.29426286675253       -2.16094140472116
N            5.47780845327513        2.49432552031516       -1.64642469087776
C            5.72816605223843        1.23182366814517       -0.99961189957992
C            6.53165717494447        5.53441452638061       -3.17659143660159
C            6.95659026159703        6.44232789419771       -2.00577365744980
C            7.82593440730545        5.67879656113563       -1.04548927929460
C            7.26994034237811        5.05349062801994        0.06529308134836
C            8.06133911070483        4.30268048546778        0.91879245749912
C            9.41509686805755        4.16331371149307        0.66514783002027
C            9.97693178279840        4.78237326523436       -0.44017019424597
C            9.18603143938794        5.53232651052686       -1.29241755178195
H            1.29645066742776        0.14405077984083        0.69062863437116
H           -0.07619704788138        1.10093468025446        1.21656847320228
H            1.40471421826697        1.91404449290903        0.75739426156327
H           -0.59760304461625        0.39208095555119       -0.95950299740471
H           -0.22643555326288        2.10603574043582       -1.09720440163873
H            0.55786830802373        0.52199326091912       -2.91008027253186
H            2.59770384565687        0.67944745653635       -4.33830099786919
H            4.08210355778382        1.28981880099994       -3.58441762812410
H            1.72895351449714        2.61545770426109       -3.15626081096861
H            2.34575965062914        3.24584002162744       -0.92154769381439
H            3.18235041504991        1.71307728021397       -0.63358292796523
H            3.80551386293034        5.04422700253553       -2.75430380054112
H            7.46150231513033        3.08566490930237       -2.17983310821657
H            6.78053363838138        0.97856821391931       -1.10282425557801
H            5.48782534031362        1.29903098210329        0.06255037028778
H            5.12594187932707        0.43888866265703       -1.44670563174587
H            7.41524976804487        5.19663472209471       -3.72159726978512
H            5.87094483824726        6.07206623876465       -3.85814670049772
H            7.49958386549107        7.29170288381414       -2.41908456305923
H            6.06698872305294        6.81621526424788       -1.49663838807150
H            6.21720660210976        5.17982786367249        0.28137768136355
H            7.62247214685832        3.83599520557852        1.78761987735415
H           10.03369493300517        3.58530371720654        1.33354947927421
H           11.03393358010660        4.68674017012648       -0.63410549995464
H            9.62923570054825        6.02166268852060       -2.14743690610702

          :  Hamiltonian                  GFN2-xTB          :
         :: total energy             -67.077604556491 Eh    ::
         :: gradient norm              0.000250517919 Eh/a0 ::
         :: HOMO-LUMO gap              2.975971585646 eV    ::
         :: SCC energy               -68.060179560365 Eh    ::
         :: -> dispersion             -0.050212014778 Eh    ::
         :: repulsion energy           0.982575003875 Eh    ::

    * Orbital Energies and Occupations

         #    Occupation            Energy/Eh            Energy/eV
      -------------------------------------------------------------
         1        2.0000           -0.8890559             -24.1924
       ...           ...                  ...                  ...
        49        2.0000           -0.5827595             -15.8577
        50        2.0000           -0.5820198             -15.8376
        51        2.0000           -0.5807800             -15.8038
        52        2.0000           -0.5667145             -15.4211
        53        2.0000           -0.5542049             -15.0807
        54        2.0000           -0.5504293             -14.9779
        55        2.0000           -0.5380490             -14.6411
        56        2.0000           -0.5364135             -14.5966
        57        2.0000           -0.5328580             -14.4998
        58        2.0000           -0.5286912             -14.3864
        59        2.0000           -0.5177793             -14.0895
        60        2.0000           -0.5143389             -13.9959
        61        2.0000           -0.5086153             -13.8401 (HOMO)
        62                         -0.3992503             -10.8642 (LUMO)
        63                         -0.3646712              -9.9232
        64                         -0.3383375              -9.2066
        65                         -0.3357510              -9.1362
        66                         -0.3323479              -9.0436
        67                         -0.2091761              -5.6920
        68                         -0.1777018              -4.8355
        69                         -0.1370620              -3.7296
        70                         -0.1075606              -2.9269
        71                         -0.0841303              -2.2893
        72                         -0.0674441              -1.8352
       ...                                ...                  ...
       117                          0.5903735              16.0649
      -------------------------------------------------------------
                  HL-Gap            0.1093649 Eh            2.9760 eV

     #   Z          covCN         q      C6AA      α(0)
     1   6 C        3.750    -0.117    22.805     6.810
     2   6 C        3.799    -0.060    21.651     6.625
     3   6 C        3.891    -0.056    21.529     6.596
     4   6 C        2.781     0.355    20.980     7.502
     5   8 O        0.856    -0.343    20.577     6.082
     6   8 O        1.706    -0.274    18.540     5.814
     7   6 C        3.786     0.065    19.505     6.291
     8   6 C        3.876    -0.029    21.049     6.523
     9   6 C        3.805    -0.078    21.983     6.675
    10   6 C        3.094     0.042    26.942     8.507
    11   6 C        3.075    -0.025    28.556     8.761
    12   7 N        2.859     0.059    20.208     6.677
    13   6 C        3.083     0.047    26.846     8.494
    14   7 N        2.867     0.053    20.321     6.695
    15   6 C        3.692    -0.084    22.294     6.756
    16   6 C        3.745    -0.022    21.042     6.544
    17   6 C        3.809    -0.075    21.925     6.665
    18   6 C        2.971     0.001    28.006     8.681
    19   6 C        2.923    -0.046    29.137     8.852
    20   6 C        2.918    -0.032    28.788     8.798
    21   6 C        2.920    -0.027    28.681     8.782
    22   6 C        2.919    -0.026    28.640     8.776
    23   6 C        2.924    -0.040    28.991     8.830
    24   1 H        0.925     0.059     2.213     2.326
    25   1 H        0.925     0.057     2.240     2.340
    26   1 H        0.925     0.030     2.584     2.514
    27   1 H        0.924     0.065     2.145     2.290
    28   1 H        0.924     0.047     2.357     2.401
    29   1 H        0.923     0.075     2.036     2.232
    30   1 H        0.924     0.061     2.188     2.313
    31   1 H        0.924     0.048     2.350     2.397
    32   1 H        0.925     0.056     2.247     2.344
    33   1 H        0.924     0.087     1.910     2.161
    34   1 H        0.925     0.086     1.921     2.167
    35   1 H        0.926     0.098     1.802     2.099
    36   1 H        0.926     0.107     1.723     2.053
    37   1 H        0.925     0.093     1.850     2.127
    38   1 H        0.924     0.100     1.789     2.092
    39   1 H        0.924     0.119     1.619     1.990
    40   1 H        0.924     0.084     1.938     2.177
    41   1 H        0.924     0.088     1.896     2.153
    42   1 H        0.925     0.079     1.987     2.204
    43   1 H        0.924     0.061     2.190     2.314
    44   1 H        0.925     0.023     2.691     2.565
    45   1 H        0.926     0.043     2.413     2.429
    46   1 H        0.926     0.052     2.295     2.369
    47   1 H        0.926     0.053     2.286     2.364
    48   1 H        0.926     0.043     2.409     2.427

Wiberg/Mayer (AO) data.
largest (>0.10) Wiberg bond orders for each atom

     #   Z sym  total        # sym  WBO       # sym  WBO       # sym  WBO
 ---------------------------------------------------------------------------
     1   6 C    3.992 --     2 C    1.020    26 H    0.985    25 H    0.984
                            24 H    0.983
     2   6 C    3.989 --     1 C    1.020     3 C    0.989    28 H    0.975
                            27 H    0.974
     3   6 C    3.986 --     2 C    0.989     8 C    0.978     4 C    0.950
                            29 H    0.933
     4   6 C    3.913 --     5 O    1.822     6 O    1.074     3 C    0.950
     5   8 O    2.112 --     4 C    1.822     6 O    0.159
     6   8 O    2.277 --     4 C    1.074     7 C    0.963     5 O    0.159
     7   6 C    3.939 --     8 C    0.988    31 H    0.969    30 H    0.966
                             6 O    0.963
     8   6 C    3.991 --     7 C    0.988     3 C    0.978    32 H    0.969
                             9 C    0.968
     9   6 C    3.984 --    10 C    1.027     8 C    0.968    34 H    0.960
                            33 H    0.956
    10   6 C    3.950 --    11 C    1.551    14 N    1.190     9 C    1.027
    11   6 C    3.942 --    10 C    1.551    12 N    1.215    35 H    0.963
    12   7 N    3.708 --    13 C    1.357    11 C    1.215    16 C    0.974
    13   6 C    3.948 --    12 N    1.357    14 N    1.351    36 H    0.954
    14   7 N    3.703 --    13 C    1.351    10 C    1.190    15 C    0.989
    15   6 C    3.932 --    14 N    0.989    37 H    0.976    38 H    0.961
                            39 H    0.955
    16   6 C    3.940 --    12 N    0.974    41 H    0.966    40 H    0.965
                            17 C    0.965
    17   6 C    3.983 --    18 C    1.012    43 H    0.972    16 C    0.965
                            42 H    0.962
    18   6 C    3.988 --    23 C    1.410    19 C    1.408    17 C    1.012
                            21 C    0.108
    19   6 C    3.992 --    20 C    1.438    18 C    1.408    44 H    0.969
                            22 C    0.109
    20   6 C    3.992 --    21 C    1.443    19 C    1.438    45 H    0.970
                            23 C    0.112
    21   6 C    3.990 --    20 C    1.443    22 C    1.434    46 H    0.970
                            18 C    0.108
    22   6 C    3.990 --    23 C    1.449    21 C    1.434    47 H    0.969
                            19 C    0.109
    23   6 C    3.991 --    22 C    1.449    18 C    1.410    48 H    0.968
                            20 C    0.112
    24   1 H    0.997 --     1 C    0.983
    25   1 H    0.996 --     1 C    0.984
    26   1 H    0.999 --     1 C    0.985
    27   1 H    0.995 --     2 C    0.974
    28   1 H    0.998 --     2 C    0.975
    29   1 H    0.993 --     3 C    0.933
    30   1 H    0.996 --     7 C    0.966
    31   1 H    0.997 --     7 C    0.969
    32   1 H    0.997 --     8 C    0.969
    33   1 H    0.992 --     9 C    0.956
    34   1 H    0.992 --     9 C    0.960
    35   1 H    0.990 --    11 C    0.963
    36   1 H    0.988 --    13 C    0.954
    37   1 H    0.991 --    15 C    0.976
    38   1 H    0.989 --    15 C    0.961
    39   1 H    0.985 --    15 C    0.955
    40   1 H    0.992 --    16 C    0.965
    41   1 H    0.991 --    16 C    0.966
    42   1 H    0.993 --    17 C    0.962
    43   1 H    0.996 --    17 C    0.972
    44   1 H    0.999 --    19 C    0.969
    45   1 H    0.998 --    20 C    0.970
    46   1 H    0.997 --    21 C    0.970
    47   1 H    0.997 --    22 C    0.969
    48   1 H    0.998 --    23 C    0.968
 ---------------------------------------------------------------------------

molecular dipole:
                 x           y           z       tot (Debye)
 q only:       10.235       7.574      -4.080
   full:       10.345       7.811      -4.384      34.781

           -------------------------------------------------
          | TOTAL ENERGY              -67.077604556491 Eh   |
          | GRADIENT NORM               0.000250517919 Eh/α |
          | HOMO-LUMO GAP               2.975971585646 eV   |
           -------------------------------------------------

 * finished run on 2024/12/20 at 07:00:52.836
