   * xtb version 6.7.1 (edcfbbe) compiled by 'conda@3ef47c1a292c' on 2024-11-25

   ID    Z sym.   atoms
    1    6 C      1, 2, 4-9
    2    7 N      3
    3    1 H      10-27

          program call               : xtb C0848.xyz --opt --namespace C0848 --charge +1
          :  Hamiltonian                  GFN2-xTB          :
 * total energy  :   -28.8480251 Eh     change       -0.3078426E-10 Eh
 * total energy  :   -28.8533964 Eh     change       -0.5371242E-02 Eh
 * total energy  :   -28.8546529 Eh     change       -0.1256547E-02 Eh
 * total energy  :   -28.8546971 Eh     change       -0.4415535E-04 Eh
 * total energy  :   -28.8547104 Eh     change       -0.1331873E-04 Eh
 * total energy  :   -28.8547151 Eh     change       -0.4705330E-05 Eh
   *** GEOMETRY OPTIMIZATION CONVERGED AFTER 6 ITERATIONS ***

 final structure:
================
27
 xtb: 6.7.1 (edcfbbe)
C            1.09146330995065       -0.23401604725152       -0.06335729762706
C            0.44102154946206       -0.91167398639683        1.13290702273570
N            0.91633728910206       -0.46477033569276        2.48113862708946
C            2.36238642765907       -0.71967304057784        2.60218536273869
C            0.61682904284439        0.98277358655241        2.67072965511883
C            0.87861237923424        1.47768480119792        4.08921114387242
C            0.07290538993828        0.66690951597489        5.09737008547596
C            0.40634761912161       -0.81183926158904        4.93681309516404
C            0.16536797300315       -1.25926778256226        3.49915540238492
H            0.90595538265651        0.83569231941449       -0.08660449709904
H            0.64779552089678       -0.65801986285506       -0.96079126116059
H            2.16052967615422       -0.41588908339425       -0.11559516206550
H           -0.63711318198472       -0.74122758131443        1.09132789446883
H            0.61498376253944       -1.98833737384418        1.06978394801295
H            2.57678528539400       -1.75718254935458        2.35194078120475
H            2.91636477907783       -0.06927850417611        1.92982456167113
H            2.69996761566288       -0.53062825540261        3.61675962865854
H           -0.43853284653308        1.13305556273482        2.43145458264011
H            1.21924946118932        1.55461599714862        1.96467281742564
H            0.58634608260078        2.52699554776671        4.13218567538255
H            1.94109068946837        1.43057336769003        4.32942278997187
H            0.30188944418879        0.99426478140977        6.10990019398326
H           -0.99392322069714        0.82554538567298        4.93070202882997
H            1.43461979808508       -1.00247848069719        5.24507370874772
H           -0.23523477779319       -1.41429350218823        5.58010856015230
H            0.43861998884981       -2.30956196612549        3.38008689120450
H           -0.89910444007115       -1.15367325214028        3.27702376101804

          :  Hamiltonian                  GFN2-xTB          :
         :: total energy             -28.854715083075 Eh    ::
         :: gradient norm              0.000598002357 Eh/a0 ::
         :: HOMO-LUMO gap              9.322780209798 eV    ::
         :: SCC energy               -29.263294701548 Eh    ::
         :: -> dispersion             -0.019431954283 Eh    ::
         :: repulsion energy           0.408579618474 Eh    ::

    * Orbital Energies and Occupations

         #    Occupation            Energy/Eh            Energy/eV
      -------------------------------------------------------------
         1        2.0000           -0.8617375             -23.4491
       ...           ...                  ...                  ...
        15        2.0000           -0.6651016             -18.0983
        16        2.0000           -0.6505341             -17.7019
        17        2.0000           -0.6485119             -17.6469
        18        2.0000           -0.6446111             -17.5408
        19        2.0000           -0.6407697             -17.4362
        20        2.0000           -0.6360658             -17.3082
        21        2.0000           -0.6309408             -17.1688
        22        2.0000           -0.6122846             -16.6611
        23        2.0000           -0.6071623             -16.5217
        24        2.0000           -0.6032348             -16.4149
        25        2.0000           -0.5857501             -15.9391
        26        2.0000           -0.5840829             -15.8937
        27        2.0000           -0.5758879             -15.6707 (HOMO)
        28                         -0.2332820              -6.3479 (LUMO)
        29                         -0.1650491              -4.4912
        30                         -0.1602342              -4.3602
        31                         -0.1428827              -3.8880
        32                         -0.0750642              -2.0426
        33                         -0.0709517              -1.9307
        34                         -0.0605417              -1.6474
        35                         -0.0377286              -1.0266
        36                         -0.0289628              -0.7881
        37                         -0.0165566              -0.4505
        38                         -0.0137474              -0.3741
       ...                                ...                  ...
        54                          0.1715611               4.6684
      -------------------------------------------------------------
                  HL-Gap            0.3426059 Eh            9.3228 eV

     #   Z          covCN         q      C6AA      α(0)
     1   6 C        3.751    -0.130    23.056     6.848
     2   6 C        3.763    -0.033    21.206     6.564
     3   7 N        3.621     0.119    19.194     6.507
     4   6 C        3.712    -0.091    22.371     6.758
     5   6 C        3.761    -0.033    21.211     6.565
     6   6 C        3.805    -0.073    21.891     6.661
     7   6 C        3.807    -0.072    21.873     6.658
     8   6 C        3.805    -0.072    21.872     6.658
     9   6 C        3.768    -0.034    21.213     6.564
    10   1 H        0.925     0.066     2.126     2.280
    11   1 H        0.925     0.087     1.904     2.158
    12   1 H        0.925     0.069     2.098     2.265
    13   1 H        0.924     0.081     1.967     2.194
    14   1 H        0.924     0.083     1.947     2.182
    15   1 H        0.925     0.092     1.857     2.131
    16   1 H        0.925     0.098     1.808     2.103
    17   1 H        0.925     0.103     1.762     2.076
    18   1 H        0.924     0.083     1.944     2.181
    19   1 H        0.925     0.085     1.930     2.173
    20   1 H        0.925     0.078     2.002     2.213
    21   1 H        0.924     0.061     2.182     2.310
    22   1 H        0.925     0.071     2.073     2.252
    23   1 H        0.924     0.057     2.233     2.337
    24   1 H        0.924     0.061     2.188     2.313
    25   1 H        0.925     0.079     1.992     2.207
    26   1 H        0.924     0.080     1.978     2.200
    27   1 H        0.924     0.083     1.946     2.182

Wiberg/Mayer (AO) data.
largest (>0.10) Wiberg bond orders for each atom

     #   Z sym  total        # sym  WBO       # sym  WBO       # sym  WBO
 ---------------------------------------------------------------------------
     1   6 C    3.981 --     2 C    1.023    10 H    0.980    12 H    0.980
                            11 H    0.972
     2   6 C    3.936 --     1 C    1.023    13 H    0.968    14 H    0.968
                             3 N    0.927
     3   7 N    3.806 --     4 C    0.961     5 C    0.931     9 C    0.929
                             2 C    0.927
     4   6 C    3.930 --    15 H    0.976    16 H    0.972    17 H    0.967
                             3 N    0.961
     5   6 C    3.934 --     6 C    1.007    18 H    0.967    19 H    0.965
                             3 N    0.931
     6   6 C    3.987 --     7 C    1.009     5 C    1.007    21 H    0.971
                            20 H    0.966
     7   6 C    3.992 --     6 C    1.009     8 C    1.009    23 H    0.975
                            22 H    0.972
     8   6 C    3.986 --     7 C    1.009     9 C    1.008    24 H    0.969
                            25 H    0.965
     9   6 C    3.935 --     8 C    1.008    26 H    0.969    27 H    0.967
                             3 N    0.929
    10   1 H    0.996 --     1 C    0.980
    11   1 H    0.992 --     1 C    0.972
    12   1 H    0.995 --     1 C    0.980
    13   1 H    0.993 --     2 C    0.968
    14   1 H    0.993 --     2 C    0.968
    15   1 H    0.991 --     4 C    0.976
    16   1 H    0.990 --     4 C    0.972
    17   1 H    0.989 --     4 C    0.967
    18   1 H    0.993 --     5 C    0.967
    19   1 H    0.993 --     5 C    0.965
    20   1 H    0.994 --     6 C    0.966
    21   1 H    0.996 --     6 C    0.971
    22   1 H    0.994 --     7 C    0.972
    23   1 H    0.997 --     7 C    0.975
    24   1 H    0.996 --     8 C    0.969
    25   1 H    0.993 --     8 C    0.965
    26   1 H    0.994 --     9 C    0.969
    27   1 H    0.993 --     9 C    0.967
 ---------------------------------------------------------------------------

molecular dipole:
                 x           y           z       tot (Debye)
 q only:        1.708      -0.607       4.980
   full:        1.679      -0.692       4.882      13.241

           -------------------------------------------------
          | TOTAL ENERGY              -28.854715083075 Eh   |
          | GRADIENT NORM               0.000598002357 Eh/α |
          | HOMO-LUMO GAP               9.322780209798 eV   |
           -------------------------------------------------

 * finished run on 2024/12/20 at 07:00:53.368
