   * xtb version 6.7.1 (edcfbbe) compiled by 'conda@3ef47c1a292c' on 2024-11-25

   ID    Z sym.   atoms
    1    6 C      1, 3
    2    7 N      2
    3    1 H      4-11

          program call               : xtb C0844.xyz --opt --namespace C0844 --charge +1
          :  Hamiltonian                  GFN2-xTB          :
 * total energy  :   -10.8400789 Eh     change       -0.1247003E-11 Eh
 * total energy  :   -10.8413312 Eh     change       -0.1252268E-02 Eh
 * total energy  :   -10.8414262 Eh     change       -0.9505347E-04 Eh
 * total energy  :   -10.8414366 Eh     change       -0.1032681E-04 Eh
 * total energy  :   -10.8414367 Eh     change       -0.9945194E-07 Eh
   *** GEOMETRY OPTIMIZATION CONVERGED AFTER 5 ITERATIONS ***

 final structure:
================
11
 xtb: 6.7.1 (edcfbbe)
C            1.03988122373644       -0.01036993626177        0.10291745513986
N            0.56798925770676        1.36423318117624        0.36964659902171
C            1.03987285503541        2.33788628822334       -0.63667637071321
H            0.68348420525925       -0.34242038217611       -0.87041796200418
H            0.67172261620775       -0.69479505417926        0.86435005712370
H            2.12800911874875       -0.03557019882183        0.10383798206930
H           -0.45994001301130        1.36985867555629        0.38751934919818
H            0.89296628633542        1.65724742866352        1.29998108634926
H            0.68347485212476        2.05222085267773       -1.62462063951264
H            0.67170902741712        3.33512707757658       -0.40489135423265
H            2.12800057043965        2.35907206756525       -0.65036620243932

          :  Hamiltonian                  GFN2-xTB          :
         :: total energy             -10.841436665636 Eh    ::
         :: gradient norm              0.000090213980 Eh/a0 ::
         :: HOMO-LUMO gap             11.176868423885 eV    ::
         :: SCC energy               -10.995213382501 Eh    ::
         :: -> dispersion             -0.003029557601 Eh    ::
         :: repulsion energy           0.153776716865 Eh    ::

    * Orbital Energies and Occupations

         #    Occupation            Energy/Eh            Energy/eV
      -------------------------------------------------------------
         1        2.0000           -0.9028751             -24.5685
         2        2.0000           -0.8565597             -23.3082
         3        2.0000           -0.8327789             -22.6611
         4        2.0000           -0.8094979             -22.0276
         5        2.0000           -0.7626429             -20.7526
         6        2.0000           -0.7445942             -20.2614
         7        2.0000           -0.6831276             -18.5888
         8        2.0000           -0.6818694             -18.5546
         9        2.0000           -0.6734830             -18.3264
        10        2.0000           -0.6691756             -18.2092 (HOMO)
        11                         -0.2584333              -7.0323 (LUMO)
        12                         -0.1550937              -4.2203
        13                         -0.1514813              -4.1220
        14                         -0.1149769              -3.1287
        15                         -0.0453472              -1.2340
        16                         -0.0107025              -0.2912
        17                          0.0211293               0.5750
        18                          0.0214368               0.5833
        19                          0.0346697               0.9434
        20                          0.0415384               1.1303
      -------------------------------------------------------------
                  HL-Gap            0.4107424 Eh           11.1769 eV

     #   Z          covCN         q      C6AA      α(0)
     1   6 C        3.687    -0.102    22.667     6.815
     2   7 N        3.529    -0.008    21.410     6.872
     3   6 C        3.687    -0.102    22.667     6.815
     4   1 H        0.925     0.119     1.618     1.989
     5   1 H        0.925     0.115     1.657     2.013
     6   1 H        0.925     0.119     1.618     1.989
     7   1 H        0.859     0.253     0.872     1.463
     8   1 H        0.859     0.253     0.872     1.463
     9   1 H        0.925     0.119     1.618     1.989
    10   1 H        0.925     0.115     1.657     2.013
    11   1 H        0.925     0.119     1.618     1.989

Wiberg/Mayer (AO) data.
largest (>0.10) Wiberg bond orders for each atom

     #   Z sym  total        # sym  WBO       # sym  WBO       # sym  WBO
 ---------------------------------------------------------------------------
     1   6 C    3.897 --     5 H    0.974     6 H    0.974     4 H    0.974
                             2 N    0.958
     2   7 N    3.743 --     1 C    0.958     3 C    0.958     7 H    0.913
                             8 H    0.913
     3   6 C    3.897 --    10 H    0.974    11 H    0.974     9 H    0.974
                             2 N    0.958
     4   1 H    0.986 --     1 C    0.974
     5   1 H    0.987 --     1 C    0.974
     6   1 H    0.986 --     1 C    0.974
     7   1 H    0.936 --     2 N    0.913
     8   1 H    0.936 --     2 N    0.913
     9   1 H    0.986 --     3 C    0.974
    10   1 H    0.987 --     3 C    0.974
    11   1 H    0.986 --     3 C    0.974
 ---------------------------------------------------------------------------

molecular dipole:
                 x           y           z       tot (Debye)
 q only:        1.355       2.458       0.318
   full:        1.220       2.516       0.501       7.220

           -------------------------------------------------
          | TOTAL ENERGY              -10.841436665636 Eh   |
          | GRADIENT NORM               0.000090213980 Eh/α |
          | HOMO-LUMO GAP              11.176868423885 eV   |
           -------------------------------------------------

 * finished run on 2024/12/20 at 07:00:48.484
