   * xtb version 6.7.1 (edcfbbe) compiled by 'conda@3ef47c1a292c' on 2024-11-25

   ID    Z sym.   atoms
    1    6 C      1-14, 16-20
    2    7 N      15
    3    1 H      21-54

          program call               : xtb C0841.xyz --opt --namespace C0841 --charge +1
          :  Hamiltonian                  GFN2-xTB          :
 * total energy  :   -60.5615412 Eh     change       -0.1102445E-07 Eh
 * total energy  :   -60.5643726 Eh     change       -0.2831384E-02 Eh
 * total energy  :   -60.5648137 Eh     change       -0.4411012E-03 Eh
 * total energy  :   -60.5649002 Eh     change       -0.8647885E-04 Eh
 * total energy  :   -60.5650037 Eh     change       -0.1034782E-03 Eh
 * total energy  :   -60.5650911 Eh     change       -0.8739561E-04 Eh
 * total energy  :   -60.5651903 Eh     change       -0.9927339E-04 Eh
 * total energy  :   -60.5652972 Eh     change       -0.1068178E-03 Eh
 * total energy  :   -60.5653625 Eh     change       -0.6536678E-04 Eh
 * total energy  :   -60.5653943 Eh     change       -0.3175900E-04 Eh
 * total energy  :   -60.5656565 Eh     change       -0.2685232E-04 Eh
 * total energy  :   -60.5656682 Eh     change       -0.1170391E-04 Eh
 * total energy  :   -60.5656993 Eh     change       -0.3119145E-04 Eh
 * total energy  :   -60.5657186 Eh     change       -0.1922819E-04 Eh
 * total energy  :   -60.5657285 Eh     change       -0.9883711E-05 Eh
 * total energy  :   -60.5657380 Eh     change       -0.9519815E-05 Eh
 * total energy  :   -60.5657460 Eh     change       -0.7980913E-05 Eh
 * total energy  :   -60.5657512 Eh     change       -0.5197204E-05 Eh
 * total energy  :   -60.5657542 Eh     change       -0.3052350E-05 Eh
   *** GEOMETRY OPTIMIZATION CONVERGED AFTER 23 ITERATIONS ***

 final structure:
================
54
 xtb: 6.7.1 (edcfbbe)
C            1.07176452170031       -0.11250010499686       -0.49452903112378
C            0.83091985806555       -1.49301034953916        0.10350199385447
C            1.16967070315147       -1.57270077309715        1.59220609970538
C            0.32377311122018       -0.67388123542852        2.49658969440847
C           -1.18110605679746       -0.94496277347209        2.45454564773187
C           -1.59381963769247       -2.37100300909490        2.82459696903584
C           -1.12919899044890       -2.84091046351224        4.20433212259884
C           -1.58876251835788       -1.96797947929889        5.37344513954640
C           -3.10523094319540       -1.83280131031098        5.52300239052511
C           -3.85475341670320       -3.15131580757124        5.72443415770083
C           -3.38533174840961       -3.98646550819074        6.91854994067676
C           -3.41404630927951       -3.25929741079067        8.26553735744199
C           -4.78827868004648       -2.74598223955118        8.69222039783106
C           -5.80554397431383       -3.85771864226699        8.99251765818963
N           -5.39517828760316       -4.61802138254913       10.15754112995319
C           -5.68048319959700       -4.15334897006205       11.38073268872736
C           -5.23648982006685       -4.80039410869909       12.51347353498842
C           -4.47178539098642       -5.95388389993583       12.38235842763315
C           -4.18477705998026       -6.41922013704608       11.10608286931691
C           -4.66086146176608       -5.72690736456499       10.01127323217498
H            0.39135997789648        0.62280221009548       -0.07231325729192
H            0.91742361321866       -0.13614921985379       -1.57066890108435
H            2.09208796669483        0.21265314914238       -0.30276611846194
H           -0.20862948058168       -1.78460862200511       -0.05784436624328
H            1.45503238409796       -2.21832201982414       -0.42469461734403
H            1.07004314616141       -2.61023206588223        1.91856937512449
H            2.21754153751337       -1.29106767801921        1.72444126767966
H            0.68326439717859       -0.78624277295218        3.52203506418053
H            0.48873208755998        0.36800551275140        2.21585930164612
H           -1.67332270506861       -0.23928038060078        3.12808326591223
H           -1.55431789411697       -0.73600654173423        1.45030895051520
H           -2.68273784690299       -2.43868152674581        2.76481242805003
H           -1.19262800964971       -3.06219151601278        2.08107256701305
H           -1.47994308443586       -3.86522013287891        4.35293078866432
H           -0.03846327178276       -2.87477748141868        4.21986953326150
H           -1.16421139156720       -2.37663889804390        6.29391651427195
H           -1.17387043759933       -0.96627678774893        5.25275350940596
H           -3.31013648552518       -1.16165089228830        6.36091751994740
H           -3.50860225779566       -1.35375029775810        4.63002789649228
H           -4.92108816282526       -2.93175109062534        5.82271807954533
H           -3.74221326077546       -3.76295396150984        4.82836799269910
H           -3.99760157944557       -4.89205301762205        6.95929951366905
H           -2.35943337235016       -4.30981000252208        6.74010429538128
H           -3.00750616047878       -3.92127263876554        9.03747734469343
H           -2.74552585694025       -2.40058202071835        8.20833940987403
H           -4.67788006439146       -2.11815704972867        9.57921597530429
H           -5.20507326637687       -2.12642885391915        7.89953176215735
H           -6.78382581841197       -3.41440256034764        9.18683510450016
H           -5.88762733139258       -4.52718623966618        8.13608754551532
H           -6.27524040654278       -3.25375879119081       11.43937484726451
H           -5.48636491201301       -4.40660360667986       13.48535167226737
H           -4.11176385566186       -6.47736215820390       13.25365523935210
H           -3.59795447318497       -7.31097122611457       10.95750139124788
H           -4.46535442339697       -6.06289585063625        9.00418668386947

          :  Hamiltonian                  GFN2-xTB          :
         :: total energy             -60.565754210233 Eh    ::
         :: gradient norm              0.000458330706 Eh/a0 ::
         :: HOMO-LUMO gap              0.237414882690 eV    ::
         :: SCC energy               -61.517584758353 Eh    ::
         :: -> dispersion             -0.045860184500 Eh    ::
         :: repulsion energy           0.951830548120 Eh    ::

    * Orbital Energies and Occupations

         #    Occupation            Energy/Eh            Energy/eV
      -------------------------------------------------------------
         1        2.0000           -0.8758931             -23.8343
       ...           ...                  ...                  ...
        45        2.0000           -0.5315562             -14.4644
        46        2.0000           -0.5264352             -14.3250
        47        2.0000           -0.5201560             -14.1542
        48        2.0000           -0.5151101             -14.0169
        49        2.0000           -0.5075456             -13.8110
        50        2.0000           -0.5033649             -13.6973
        51        2.0000           -0.4978803             -13.5480
        52        2.0000           -0.4883907             -13.2898
        53        2.0000           -0.4856960             -13.2165
        54        2.0000           -0.4817232             -13.1084
        55        2.0000           -0.4702581             -12.7964
        56        1.9978           -0.4656979             -12.6723
        57        1.9810           -0.4636264             -12.6159 (HOMO)
        58        0.0212           -0.4549016             -12.3785 (LUMO)
        59                         -0.4245534             -11.5527
        60                         -0.3041012              -8.2750
        61                         -0.1650330              -4.4908
        62                         -0.0801077              -2.1798
        63                         -0.0627963              -1.7088
        64                         -0.0446349              -1.2146
        65                         -0.0358757              -0.9762
        66                         -0.0251586              -0.6846
        67                         -0.0133711              -0.3638
        68                         -0.0084220              -0.2292
       ...                                ...                  ...
       114                          0.4520849              12.3019
      -------------------------------------------------------------
                  HL-Gap            0.0087248 Eh            0.2374 eV

     #   Z          covCN         q      C6AA      α(0)
     1   6 C        3.751    -0.103    22.522     6.768
     2   6 C        3.799    -0.052    21.514     6.604
     3   6 C        3.801    -0.057    21.604     6.618
     4   6 C        3.800    -0.057    21.602     6.618
     5   6 C        3.800    -0.057    21.601     6.617
     6   6 C        3.800    -0.057    21.606     6.618
     7   6 C        3.800    -0.057    21.608     6.618
     8   6 C        3.800    -0.058    21.627     6.621
     9   6 C        3.800    -0.060    21.663     6.627
    10   6 C        3.800    -0.061    21.679     6.629
    11   6 C        3.800    -0.061    21.677     6.629
    12   6 C        3.800    -0.066    21.762     6.642
    13   6 C        3.801    -0.069    21.817     6.650
    14   6 C        3.759    -0.036    21.268     6.575
    15   7 N        2.750     0.113    19.312     6.527
    16   6 C        2.893     0.032    27.296     8.566
    17   6 C        2.916    -0.011    28.283     8.721
    18   6 C        2.925     0.012    27.759     8.640
    19   6 C        2.916    -0.012    28.303     8.724
    20   6 C        2.892     0.033    27.255     8.559
    21   1 H        0.925     0.036     2.510     2.477
    22   1 H        0.925     0.035     2.523     2.484
    23   1 H        0.925     0.036     2.501     2.473
    24   1 H        0.924     0.032     2.556     2.500
    25   1 H        0.924     0.031     2.578     2.511
    26   1 H        0.924     0.029     2.606     2.524
    27   1 H        0.924     0.032     2.564     2.504
    28   1 H        0.924     0.027     2.623     2.533
    29   1 H        0.924     0.036     2.508     2.477
    30   1 H        0.924     0.027     2.631     2.537
    31   1 H        0.924     0.035     2.511     2.478
    32   1 H        0.924     0.026     2.644     2.543
    33   1 H        0.924     0.036     2.506     2.476
    34   1 H        0.924     0.024     2.675     2.558
    35   1 H        0.924     0.036     2.498     2.472
    36   1 H        0.924     0.023     2.695     2.567
    37   1 H        0.924     0.040     2.451     2.448
    38   1 H        0.924     0.024     2.676     2.558
    39   1 H        0.924     0.044     2.399     2.422
    40   1 H        0.924     0.024     2.670     2.555
    41   1 H        0.924     0.047     2.359     2.402
    42   1 H        0.924     0.016     2.791     2.613
    43   1 H        0.924     0.051     2.306     2.375
    44   1 H        0.924     0.021     2.712     2.576
    45   1 H        0.925     0.067     2.116     2.275
    46   1 H        0.924     0.050     2.318     2.381
    47   1 H        0.925     0.085     1.928     2.172
    48   1 H        0.924     0.088     1.901     2.156
    49   1 H        0.925     0.096     1.825     2.113
    50   1 H        0.926     0.107     1.723     2.053
    51   1 H        0.926     0.106     1.730     2.057
    52   1 H        0.926     0.105     1.740     2.063
    53   1 H        0.926     0.106     1.733     2.059
    54   1 H        0.926     0.110     1.694     2.035

Wiberg/Mayer (AO) data.
largest (>0.10) Wiberg bond orders for each atom

     #   Z sym  total        # sym  WBO       # sym  WBO       # sym  WBO
 ---------------------------------------------------------------------------
     1   6 C    3.994 --     2 C    1.020    22 H    0.987    23 H    0.986
                            21 H    0.984
     2   6 C    3.993 --     1 C    1.020     3 C    1.008    25 H    0.976
                            24 H    0.974
     3   6 C    3.993 --     2 C    1.008     4 C    1.006    27 H    0.976
                            26 H    0.974
     4   6 C    3.992 --     5 C    1.008     3 C    1.006    28 H    0.975
                            29 H    0.973
     5   6 C    3.994 --     4 C    1.008     6 C    1.007    30 H    0.974
                            31 H    0.974
     6   6 C    3.995 --     7 C    1.007     5 C    1.007    32 H    0.975
                            33 H    0.974
     7   6 C    3.997 --     6 C    1.007     8 C    1.007    34 H    0.975
                            35 H    0.974
     8   6 C    3.996 --     9 C    1.008     7 C    1.007    36 H    0.975
                            37 H    0.973
     9   6 C    3.996 --     8 C    1.008    10 C    1.007    38 H    0.975
                            39 H    0.973
    10   6 C    3.995 --     9 C    1.007    11 C    1.006    40 H    0.975
                            41 H    0.973
    11   6 C    3.995 --    12 C    1.007    10 C    1.006    43 H    0.973
                            42 H    0.973
    12   6 C    3.992 --    13 C    1.010    11 C    1.007    44 H    0.972
                            45 H    0.965
    13   6 C    3.980 --    12 C    1.010    46 H    0.974    14 C    0.971
                            47 H    0.960
    14   6 C    3.933 --    13 C    0.971    15 N    0.965    48 H    0.963
                            49 H    0.960
    15   7 N    3.756 --    20 C    1.323    16 C    1.319    14 C    0.965
    16   6 C    3.952 --    17 C    1.470    15 N    1.319    50 H    0.955
    17   6 C    3.980 --    16 C    1.470    18 C    1.413    51 H    0.960
    18   6 C    3.957 --    19 C    1.424    17 C    1.413    52 H    0.962
    19   6 C    3.980 --    20 C    1.458    18 C    1.424    53 H    0.960
    20   6 C    3.950 --    19 C    1.458    15 N    1.323    54 H    0.952
    21   1 H    0.997 --     1 C    0.984
    22   1 H    0.999 --     1 C    0.987
    23   1 H    0.997 --     1 C    0.986
    24   1 H    0.996 --     2 C    0.974
    25   1 H    0.996 --     2 C    0.976
    26   1 H    0.998 --     3 C    0.974
    27   1 H    0.998 --     3 C    0.976
    28   1 H    0.999 --     4 C    0.975
    29   1 H    0.997 --     4 C    0.973
    30   1 H    0.998 --     5 C    0.974
    31   1 H    0.998 --     5 C    0.974
    32   1 H    0.999 --     6 C    0.975
    33   1 H    0.998 --     6 C    0.974
    34   1 H    0.999 --     7 C    0.975
    35   1 H    0.999 --     7 C    0.974
    36   1 H    0.999 --     8 C    0.975
    37   1 H    0.998 --     8 C    0.973
    38   1 H    0.999 --     9 C    0.975
    39   1 H    0.998 --     9 C    0.973
    40   1 H    0.999 --    10 C    0.975
    41   1 H    0.998 --    10 C    0.973
    42   1 H    1.000 --    11 C    0.973
    43   1 H    0.997 --    11 C    0.973
    44   1 H    1.000 --    12 C    0.972
    45   1 H    0.994 --    12 C    0.965
    46   1 H    0.997 --    13 C    0.974
    47   1 H    0.991 --    13 C    0.960
    48   1 H    0.992 --    14 C    0.963
    49   1 H    0.990 --    14 C    0.960
    50   1 H    0.989 --    16 C    0.955
    51   1 H    0.988 --    17 C    0.960
    52   1 H    0.989 --    18 C    0.962
    53   1 H    0.988 --    19 C    0.960
    54   1 H    0.988 --    20 C    0.952
 ---------------------------------------------------------------------------

molecular dipole:
                 x           y           z       tot (Debye)
 q only:       -9.068      -8.625      18.989
   full:       -9.153      -8.675      19.077      58.126

           -------------------------------------------------
          | TOTAL ENERGY              -60.565754210233 Eh   |
          | GRADIENT NORM               0.000458330706 Eh/α |
          | HOMO-LUMO GAP               0.237414882690 eV   |
           -------------------------------------------------

 * finished run on 2024/12/20 at 07:00:47.117
