   * xtb version 6.7.1 (edcfbbe) compiled by 'conda@3ef47c1a292c' on 2024-11-25

   ID    Z sym.   atoms
    1    6 C      1, 2, 4-11, 13-15
    2    7 N      3
    3    8 O      12
    4    1 H      16-37

          program call               : xtb C0843.xyz --opt --namespace C0843 --charge +1
          :  Hamiltonian                  GFN2-xTB          :
 * total energy  :   -45.6193348 Eh     change       -0.9192007E-09 Eh
 * total energy  :   -45.6289671 Eh     change       -0.9632364E-02 Eh
 * total energy  :   -45.6319063 Eh     change       -0.2939152E-02 Eh
 * total energy  :   -45.6321496 Eh     change       -0.2433495E-03 Eh
 * total energy  :   -45.6322894 Eh     change       -0.1397470E-03 Eh
 * total energy  :   -45.6323467 Eh     change       -0.5736052E-04 Eh
 * total energy  :   -45.6324180 Eh     change       -0.7123199E-04 Eh
 * total energy  :   -45.6324754 Eh     change       -0.5743742E-04 Eh
 * total energy  :   -45.6325180 Eh     change       -0.4260704E-04 Eh
 * total energy  :   -45.6325587 Eh     change       -0.4062508E-04 Eh
 * total energy  :   -45.6326005 Eh     change       -0.6611927E-08 Eh
 * total energy  :   -45.6326082 Eh     change       -0.7710039E-05 Eh
 * total energy  :   -45.6326147 Eh     change       -0.6543491E-05 Eh
 * total energy  :   -45.6326221 Eh     change       -0.7398168E-05 Eh
 * total energy  :   -45.6326279 Eh     change       -0.5802543E-05 Eh
 * total energy  :   -45.6326340 Eh     change       -0.6030203E-05 Eh
 * total energy  :   -45.6326411 Eh     change       -0.7124843E-05 Eh
 * total energy  :   -45.6326479 Eh     change       -0.6812332E-05 Eh
 * total energy  :   -45.6326510 Eh     change       -0.3090527E-05 Eh
   *** GEOMETRY OPTIMIZATION CONVERGED AFTER 22 ITERATIONS ***

 final structure:
================
37
 xtb: 6.7.1 (edcfbbe)
C            0.99999689971541        0.02411899693325        0.01260139110382
C            0.93744659325165        0.89717338980611       -1.23150041391076
N            1.28009242683481        0.21199831396775       -2.51490294841593
C            0.47783351561697       -1.02411680836981       -2.72214879993951
C           -1.06443948713346       -0.94356558261249       -2.63835223002821
C           -1.71842668270849       -0.29948195100833       -3.84108363507297
C           -2.44862512081937        0.87625328516700       -3.70466862410876
C           -3.06053923198569        1.44932846240394       -4.80600153065976
C           -2.95547682737058        0.84732839754738       -6.04874549241055
C           -2.24575820666482       -0.33412566577074       -6.18732991635415
C           -1.63007115634295       -0.90665388999792       -5.08871476089646
O           -1.41988892867661       -2.30471251485082       -2.50856348652854
C            1.03636385904667        1.14318233577243       -3.66228562674271
C            1.86463004547235        2.41863712281349       -3.68067630268424
C            2.70148330500124       -0.19020066317592       -2.50116491767415
H            0.28750093732015       -0.79449174147405       -0.01448929962937
H            0.74878550220617        0.64730327021065        0.86757025339864
H            1.99515779561842       -0.37455216031084        0.18537029628432
H           -0.06512690933354        1.31391392870014       -1.33780502780070
H            1.63660320318894        1.72547190288569       -1.11110245342026
H            0.73082621128746       -1.43658672983983       -3.70077992755038
H            0.76855928631272       -1.76318193082570       -1.97349682896120
H           -1.37309984466686       -0.40249409457643       -1.72927654649539
H           -2.55053736301469        1.33936765227430       -2.73227653618131
H           -3.62686097156376        2.36002528655574       -4.68973813980218
H           -3.43704016280925        1.29186248162621       -6.90518849306508
H           -2.17684326885753       -0.81474957131126       -7.15054025974548
H           -1.09846687763141       -1.84172376040869       -5.19052660356573
H           -2.36551744162181       -2.41359734588198       -2.65920330742124
H            1.23244901919122        0.58220681528833       -4.57843773883627
H           -0.02307590704793        1.40377812701104       -3.65362602873495
H            2.93063325812275        2.22475924090074       -3.75007704752822
H            1.57953097831355        2.97654329771486       -4.56930410490299
H            1.66911836403934        3.05711478703319       -2.82454695711804
H            3.33095263153116        0.65440032922427       -2.23234661781580
H            2.86290145317187       -0.98674787606359       -1.77919735782361
H            2.99417910300880       -0.55310513735934       -3.48447397896421

          :  Hamiltonian                  GFN2-xTB          :
         :: total energy             -45.632650996782 Eh    ::
         :: gradient norm              0.000221049610 Eh/a0 ::
         :: HOMO-LUMO gap              4.707636378454 eV    ::
         :: SCC energy               -46.314023007931 Eh    ::
         :: -> dispersion             -0.033347454634 Eh    ::
         :: repulsion energy           0.681372011150 Eh    ::

    * Orbital Energies and Occupations

         #    Occupation            Energy/Eh            Energy/eV
      -------------------------------------------------------------
         1        2.0000           -0.8566797             -23.3114
       ...           ...                  ...                  ...
        30        2.0000           -0.6092941             -16.5797
        31        2.0000           -0.6059792             -16.4895
        32        2.0000           -0.6019549             -16.3800
        33        2.0000           -0.5998455             -16.3226
        34        2.0000           -0.5930834             -16.1386
        35        2.0000           -0.5917364             -16.1020
        36        2.0000           -0.5893029             -16.0357
        37        2.0000           -0.5857229             -15.9383
        38        2.0000           -0.5501757             -14.9710
        39        2.0000           -0.5355602             -14.5733
        40        2.0000           -0.5334913             -14.5170
        41        2.0000           -0.5208718             -14.1736
        42        2.0000           -0.5183423             -14.1048 (HOMO)
        43                         -0.3453398              -9.3972 (LUMO)
        44                         -0.3394664              -9.2374
        45                         -0.2320110              -6.3133
        46                         -0.2143243              -5.8321
        47                         -0.1687161              -4.5910
        48                         -0.1573263              -4.2811
        49                         -0.1435238              -3.9055
        50                         -0.0676875              -1.8419
        51                         -0.0571678              -1.5556
        52                         -0.0489800              -1.3328
        53                         -0.0406074              -1.1050
       ...                                ...                  ...
        82                          0.5470063              14.8848
      -------------------------------------------------------------
                  HL-Gap            0.1730025 Eh            4.7076 eV

     #   Z          covCN         q      C6AA      α(0)
     1   6 C        3.751    -0.131    23.072     6.850
     2   6 C        3.754    -0.031    21.184     6.563
     3   7 N        3.620     0.115    19.264     6.519
     4   6 C        3.769    -0.045    21.420     6.596
     5   6 C        3.728     0.108    18.901     6.207
     6   6 C        2.969    -0.028    28.690     8.786
     7   6 C        2.922    -0.044    29.090     8.845
     8   6 C        2.919    -0.025    28.629     8.774
     9   6 C        2.920    -0.022    28.557     8.763
    10   6 C        2.919    -0.024    28.610     8.771
    11   6 C        2.923    -0.037    28.925     8.820
    12   8 O        1.658    -0.437    21.582     6.271
    13   6 C        3.760    -0.036    21.269     6.575
    14   6 C        3.751    -0.130    23.063     6.849
    15   6 C        3.723    -0.093    22.391     6.757
    16   1 H        0.925     0.072     2.060     2.245
    17   1 H        0.925     0.084     1.938     2.177
    18   1 H        0.925     0.067     2.123     2.278
    19   1 H        0.924     0.081     1.970     2.195
    20   1 H        0.924     0.088     1.898     2.155
    21   1 H        0.924     0.091     1.866     2.136
    22   1 H        0.924     0.109     1.707     2.043
    23   1 H        0.923     0.033     2.541     2.493
    24   1 H        0.925     0.029     2.600     2.522
    25   1 H        0.926     0.053     2.282     2.362
    26   1 H        0.926     0.057     2.235     2.338
    27   1 H        0.926     0.054     2.265     2.353
    28   1 H        0.926     0.046     2.373     2.409
    29   1 H        0.805     0.312     0.685     1.300
    30   1 H        0.924     0.082     1.956     2.187
    31   1 H        0.924     0.087     1.912     2.162
    32   1 H        0.925     0.069     2.100     2.266
    33   1 H        0.925     0.085     1.925     2.169
    34   1 H        0.925     0.065     2.140     2.288
    35   1 H        0.925     0.100     1.781     2.087
    36   1 H        0.925     0.100     1.787     2.091
    37   1 H        0.925     0.095     1.829     2.115

Wiberg/Mayer (AO) data.
largest (>0.10) Wiberg bond orders for each atom

     #   Z sym  total        # sym  WBO       # sym  WBO       # sym  WBO
 ---------------------------------------------------------------------------
     1   6 C    3.981 --     2 C    1.022    18 H    0.980    16 H    0.979
                            17 H    0.973
     2   6 C    3.934 --     1 C    1.022    19 H    0.966    20 H    0.964
                             3 N    0.927
     3   7 N    3.803 --    15 C    0.958     4 C    0.937     2 C    0.927
                            13 C    0.926
     4   6 C    3.926 --     5 C    0.974    21 H    0.963    22 H    0.958
                             3 N    0.937
     5   6 C    3.956 --    12 O    0.990     6 C    0.985     4 C    0.974
                            23 H    0.953
     6   6 C    3.984 --    11 C    1.412     7 C    1.408     5 C    0.985
                             9 C    0.110
     7   6 C    3.991 --     8 C    1.442     6 C    1.408    24 H    0.967
                            10 C    0.110
     8   6 C    3.991 --     7 C    1.442     9 C    1.439    25 H    0.969
                            11 C    0.111
     9   6 C    3.990 --     8 C    1.439    10 C    1.438    26 H    0.969
                             6 C    0.110
    10   6 C    3.990 --    11 C    1.445     9 C    1.438    27 H    0.969
                             7 C    0.110
    11   6 C    3.991 --    10 C    1.445     6 C    1.412    28 H    0.966
                             8 C    0.111
    12   8 O    1.960 --     5 C    0.990    29 H    0.885
    13   6 C    3.932 --    14 C    1.023    30 H    0.967    31 H    0.957
                             3 N    0.926
    14   6 C    3.982 --    13 C    1.023    32 H    0.980    34 H    0.980
                            33 H    0.972
    15   6 C    3.928 --    37 H    0.976    35 H    0.972    36 H    0.972
                             3 N    0.958
    16   1 H    0.995 --     1 C    0.979
    17   1 H    0.993 --     1 C    0.973
    18   1 H    0.996 --     1 C    0.980
    19   1 H    0.993 --     2 C    0.966
    20   1 H    0.992 --     2 C    0.964
    21   1 H    0.992 --     4 C    0.963
    22   1 H    0.987 --     4 C    0.958
    23   1 H    0.999 --     5 C    0.953
    24   1 H    0.999 --     7 C    0.967
    25   1 H    0.997 --     8 C    0.969
    26   1 H    0.996 --     9 C    0.969
    27   1 H    0.997 --    10 C    0.969
    28   1 H    0.998 --    11 C    0.966
    29   1 H    0.902 --    12 O    0.885
    30   1 H    0.993 --    13 C    0.967
    31   1 H    0.992 --    13 C    0.957
    32   1 H    0.995 --    14 C    0.980
    33   1 H    0.992 --    14 C    0.972
    34   1 H    0.996 --    14 C    0.980
    35   1 H    0.989 --    15 C    0.972
    36   1 H    0.990 --    15 C    0.972
    37   1 H    0.991 --    15 C    0.976
 ---------------------------------------------------------------------------

molecular dipole:
                 x           y           z       tot (Debye)
 q only:        1.686       0.949      -5.255
   full:        1.465       1.010      -5.306      14.226

           -------------------------------------------------
          | TOTAL ENERGY              -45.632650996782 Eh   |
          | GRADIENT NORM               0.000221049610 Eh/α |
          | HOMO-LUMO GAP               4.707636378454 eV   |
           -------------------------------------------------

 * finished run on 2024/12/20 at 07:00:48.425
