   * xtb version 6.7.1 (edcfbbe) compiled by 'conda@3ef47c1a292c' on 2024-11-25

   ID    Z sym.   atoms
    1    6 C      1-7, 9, 10, 12-14, 16-21, 26
    2    7 N      8, 11, 22
    3    8 O      15, 24, 25
    4   16 S      23
    5    1 H      27-54

          program call               : xtb C0840.xyz --opt --namespace C0840 --charge +1
          :  Hamiltonian                  GFN2-xTB          :
 * total energy  :   -78.7836415 Eh     change       -0.1229012E-08 Eh
 * total energy  :   -78.7921969 Eh     change       -0.8555463E-02 Eh
 * total energy  :   -78.7947071 Eh     change       -0.2510175E-02 Eh
 * total energy  :   -78.7953517 Eh     change       -0.6445575E-03 Eh
 * total energy  :   -78.7959897 Eh     change       -0.6380737E-03 Eh
 * total energy  :   -78.7964214 Eh     change       -0.4316615E-03 Eh
 * total energy  :   -78.7968851 Eh     change       -0.4636662E-03 Eh
 * total energy  :   -78.7973691 Eh     change       -0.4840690E-03 Eh
 * total energy  :   -78.7977975 Eh     change       -0.4283735E-03 Eh
 * total energy  :   -78.7982065 Eh     change       -0.4090360E-03 Eh
 * total energy  :   -78.8185289 Eh     change       -0.1082978E-04 Eh
 * total energy  :   -78.8185369 Eh     change       -0.8014623E-05 Eh
 * total energy  :   -78.8185430 Eh     change       -0.6156843E-05 Eh
 * total energy  :   -78.8185504 Eh     change       -0.7346707E-05 Eh
 * total energy  :   -78.8185627 Eh     change       -0.1234354E-04 Eh
 * total energy  :   -78.8185725 Eh     change       -0.9806340E-05 Eh
 * total energy  :   -78.8185783 Eh     change       -0.5780138E-05 Eh
 * total energy  :   -78.8185817 Eh     change       -0.3392140E-05 Eh
 * total energy  :   -78.8185851 Eh     change       -0.3393229E-05 Eh
   *** GEOMETRY OPTIMIZATION CONVERGED AFTER 146 ITERATIONS ***

 final structure:
================
54
 xtb: 6.7.1 (edcfbbe)
C            2.07020649023301       -0.86033925354883        0.46910262485555
C            1.49994921544846        0.12831808790178       -0.54114056988129
C            1.56921376225943       -0.37511267308549       -1.98403972683164
C            0.77555000004794       -1.65483882360924       -2.26047218385562
C           -0.71385986005037       -1.57938403874291       -1.91384523835804
C           -1.48354137876846       -0.46034132654607       -2.61625152897705
C           -1.55023635381460       -0.61954254218876       -4.13915130014762
N           -2.28333776328598       -1.80847774635143       -4.50389534019202
C           -3.63895884342028       -1.94204378378898       -4.46621457119774
C           -3.93250935924303       -3.22080454224624       -4.82320274366246
N           -2.74842516619053       -3.85861727781832       -5.05248456812682
C           -1.76516954883607       -2.97668785964258       -4.86689057502855
C           -2.56701740018669       -5.13346887905742       -5.67721782198587
C           -1.91938837686418       -4.88338223738686       -7.07746010333307
O           -1.47904101170765       -3.77467049924652       -7.30267736777527
C           -1.87791110048631       -5.99875248298818       -7.99647148924138
C           -1.34381812270023       -5.76842095120274       -9.27678878191310
C           -1.26006535918175       -6.77004647335979      -10.21005288266411
C           -1.69490849134834       -8.06406771556995       -9.89084778276491
C           -2.22124700443528       -8.30322020221532       -8.60991247781559
C           -2.31377801790192       -7.29549794881695       -7.68315837133892
N           -1.63835877696047       -9.07264085271190      -10.80588827163083
S           -0.76372834955913       -9.11132975578466      -12.27259291579547
O            0.35309996395265       -8.23202584718264      -12.17040153012738
O           -0.56709099680338      -10.50014690490765      -12.51356793713787
C           -1.97090018947083       -8.44856348014016      -13.42949057259399
H            1.46972580125111       -1.76515963382313        0.52317641038966
H            2.09085956050875       -0.41201223043536        1.45908097185077
H            3.08691555774146       -1.13613137793818        0.19910884277628
H            0.46923113102232        0.36972438324148       -0.27400780454635
H            2.07251155997525        1.05618474999467       -0.48441506153663
H            1.23008426433983        0.42030094191594       -2.65210908370722
H            2.61447022507300       -0.57428510233721       -2.23044717609596
H            0.90332398418042       -1.91280022155423       -3.31531614433302
H            1.21052284295378       -2.47107049064167       -1.68228172743174
H           -1.17800526997970       -2.54377204670192       -2.14342964110592
H           -0.81542260540165       -1.42929137093636       -0.83924839246862
H           -2.49992495495470       -0.42463098234541       -2.21822285075069
H           -1.01268556132985        0.49751783118545       -2.40136169733362
H           -2.05630514775847        0.24313200657444       -4.57830586390424
H           -0.54713056596374       -0.68927464111896       -4.56052677089869
H           -4.29036159969040       -1.13381658628120       -4.20402204568362
H           -4.87956993778101       -3.71007170475817       -4.92242733873762
H           -0.71926320166898       -3.18344562808110       -4.97666952581796
H           -1.88460602049099       -5.75801070799602       -5.09441192743574
H           -3.53154756890345       -5.63015563204146       -5.77332555760989
H           -1.00001414348415       -4.77229074994154       -9.51283856054814
H           -0.81830671475489       -6.58211891631303      -11.17369846402137
H           -2.55041649521641       -9.29990402315085       -8.35698783074461
H           -2.71149401684792       -7.52807502315150       -6.70777092982723
H           -1.90145559456085       -9.99515106320265      -10.49479489298003
H           -2.80606299644200       -9.13487821855959      -13.46799045445567
H           -2.27675431830028       -7.46757361507938      -13.09106960083843
H           -1.49160617399924       -8.38296393657079      -14.39848285466386

          :  Hamiltonian                  GFN2-xTB          :
         :: total energy             -78.818585098101 Eh    ::
         :: gradient norm              0.000961182933 Eh/a0 ::
         :: HOMO-LUMO gap              2.562891226974 eV    ::
         :: SCC energy               -79.904982390474 Eh    ::
         :: -> dispersion             -0.052936648804 Eh    ::
         :: repulsion energy           1.086397292374 Eh    ::

    * Orbital Energies and Occupations

         #    Occupation            Energy/Eh            Energy/eV
      -------------------------------------------------------------
         1        2.0000           -0.8739746             -23.7821
       ...           ...                  ...                  ...
        59        2.0000           -0.5459184             -14.8552
        60        2.0000           -0.5415994             -14.7377
        61        2.0000           -0.5354269             -14.5697
        62        2.0000           -0.5348969             -14.5553
        63        2.0000           -0.5289121             -14.3924
        64        2.0000           -0.5282871             -14.3754
        65        2.0000           -0.5233794             -14.2419
        66        2.0000           -0.5226127             -14.2210
        67        2.0000           -0.5183861             -14.1060
        68        2.0000           -0.5074823             -13.8093
        69        2.0000           -0.5032003             -13.6928
        70        2.0000           -0.4983886             -13.5618
        71        2.0000           -0.4907933             -13.3552 (HOMO)
        72                         -0.3966088             -10.7923 (LUMO)
        73                         -0.3821502             -10.3988
        74                         -0.3506457              -9.5416
        75                         -0.3362386              -9.1495
        76                         -0.3017933              -8.2122
        77                         -0.2280047              -6.2043
        78                         -0.2019491              -5.4953
        79                         -0.1959870              -5.3331
        80                         -0.1589620              -4.3256
        81                         -0.1389008              -3.7797
        82                         -0.1226226              -3.3367
       ...                                ...                  ...
       137                          1.1761340              32.0042
      -------------------------------------------------------------
                  HL-Gap            0.0941845 Eh            2.5629 eV

     #   Z          covCN         q      C6AA      α(0)
     1   6 C        3.751    -0.106    22.585     6.777
     2   6 C        3.799    -0.056    21.582     6.614
     3   6 C        3.800    -0.062    21.694     6.631
     4   6 C        3.800    -0.062    21.689     6.631
     5   6 C        3.800    -0.064    21.728     6.637
     6   6 C        3.802    -0.070    21.848     6.655
     7   6 C        3.742    -0.027    21.125     6.557
     8   7 N        2.868     0.070    20.016     6.645
     9   6 C        3.073    -0.007    28.114     8.694
    10   6 C        3.066    -0.009    28.185     8.706
    11   7 N        2.872     0.068    20.057     6.652
    12   6 C        3.096     0.063    26.479     8.433
    13   6 C        3.743    -0.050    21.547     6.622
    14   6 C        2.823     0.222    23.330     7.914
    15   8 O        0.857    -0.374    21.164     6.168
    16   6 C        2.968    -0.030    28.742     8.794
    17   6 C        2.926    -0.008    28.223     8.712
    18   6 C        2.918    -0.054    29.345     8.883
    19   6 C        2.933     0.105    25.684     8.311
    20   6 C        2.921    -0.049    29.222     8.865
    21   6 C        2.917    -0.026    28.664     8.779
    22   7 N        2.694    -0.314    28.070     7.869
    23  16 S        3.638     1.158   102.242    17.018
    24   8 O        0.860    -0.543    24.750     6.670
    25   8 O        0.860    -0.542    24.724     6.667
    26   6 C        3.747    -0.220    24.941     7.123
    27   1 H        0.925     0.033     2.551     2.497
    28   1 H        0.925     0.041     2.437     2.441
    29   1 H        0.925     0.040     2.450     2.448
    30   1 H        0.924     0.030     2.590     2.517
    31   1 H        0.924     0.038     2.473     2.459
    32   1 H        0.924     0.027     2.627     2.535
    33   1 H        0.924     0.042     2.417     2.431
    34   1 H        0.924     0.018     2.758     2.597
    35   1 H        0.924     0.047     2.353     2.399
    36   1 H        0.924     0.018     2.759     2.598
    37   1 H        0.925     0.060     2.193     2.316
    38   1 H        0.924     0.050     2.323     2.384
    39   1 H        0.925     0.077     2.011     2.218
    40   1 H        0.924     0.085     1.932     2.173
    41   1 H        0.924     0.089     1.887     2.148
    42   1 H        0.926     0.102     1.765     2.077
    43   1 H        0.926     0.097     1.808     2.103
    44   1 H        0.926     0.119     1.620     1.991
    45   1 H        0.924     0.096     1.820     2.110
    46   1 H        0.925     0.095     1.830     2.115
    47   1 H        0.926     0.081     1.973     2.197
    48   1 H        0.926     0.076     2.022     2.224
    49   1 H        0.926     0.056     2.244     2.343
    50   1 H        0.926     0.048     2.347     2.396
    51   1 H        0.862     0.214     1.039     1.597
    52   1 H        0.926     0.100     1.782     2.088
    53   1 H        0.926     0.095     1.834     2.118
    54   1 H        0.926     0.112     1.679     2.026

Wiberg/Mayer (AO) data.
largest (>0.10) Wiberg bond orders for each atom

     #   Z sym  total        # sym  WBO       # sym  WBO       # sym  WBO
 ---------------------------------------------------------------------------
     1   6 C    3.996 --     2 C    1.020    29 H    0.987    28 H    0.987
                            27 H    0.986
     2   6 C    3.997 --     1 C    1.020     3 C    1.008    31 H    0.977
                            30 H    0.976
     3   6 C    3.996 --     2 C    1.008     4 C    1.007    33 H    0.976
                            32 H    0.976
     4   6 C    3.996 --     3 C    1.007     5 C    1.007    34 H    0.975
                            35 H    0.974
     5   6 C    3.994 --     6 C    1.008     4 C    1.007    36 H    0.976
                            37 H    0.970
     6   6 C    3.984 --     5 C    1.008     7 C    0.984    38 H    0.975
                            39 H    0.964
     7   6 C    3.937 --     6 C    0.984     8 N    0.969    41 H    0.963
                            40 H    0.962
     8   7 N    3.714 --    12 C    1.363     9 C    1.220     7 C    0.969
     9   6 C    3.951 --    10 C    1.602     8 N    1.220    42 H    0.962
    10   6 C    3.947 --     9 C    1.602    11 N    1.210    43 H    0.963
    11   7 N    3.703 --    12 C    1.338    10 C    1.210    13 C    0.998
    12   6 C    3.946 --     8 N    1.363    11 N    1.338    44 H    0.952
    13   6 C    3.947 --    11 N    0.998    46 H    0.959    45 H    0.945
                            14 C    0.912
    14   6 C    3.922 --    15 O    1.767    16 C    1.119    13 C    0.912
    15   8 O    2.076 --    14 C    1.767
    16   6 C    3.976 --    21 C    1.321    17 C    1.313    14 C    1.119
    17   6 C    3.983 --    18 C    1.518    16 C    1.313    47 H    0.963
    18   6 C    3.985 --    17 C    1.518    19 C    1.312    48 H    0.959
    19   6 C    3.960 --    18 C    1.312    20 C    1.299    22 N    1.185
    20   6 C    3.987 --    21 C    1.524    19 C    1.299    49 H    0.965
    21   6 C    3.989 --    20 C    1.524    16 C    1.321    50 H    0.965
    22   7 N    3.331 --    19 C    1.185    51 H    0.923    23 S    0.853
    23  16 S    4.969 --    25 O    1.653    24 O    1.640    22 N    0.853
                            26 C    0.770
    24   8 O    1.956 --    23 S    1.640    25 O    0.116
    25   8 O    1.955 --    23 S    1.653    24 O    0.116
    26   6 C    3.969 --    52 H    0.979    53 H    0.978    54 H    0.970
                            23 S    0.770
    27   1 H    0.999 --     1 C    0.986
    28   1 H    0.998 --     1 C    0.987
    29   1 H    0.998 --     1 C    0.987
    30   1 H    0.999 --     2 C    0.976
    31   1 H    0.999 --     2 C    0.977
    32   1 H    0.999 --     3 C    0.976
    33   1 H    0.998 --     3 C    0.976
    34   1 H    1.000 --     4 C    0.975
    35   1 H    0.998 --     4 C    0.974
    36   1 H    1.000 --     5 C    0.976
    37   1 H    0.996 --     5 C    0.970
    38   1 H    0.998 --     6 C    0.975
    39   1 H    0.993 --     6 C    0.964
    40   1 H    0.992 --     7 C    0.962
    41   1 H    0.992 --     7 C    0.963
    42   1 H    0.989 --     9 C    0.962
    43   1 H    0.990 --    10 C    0.963
    44   1 H    0.986 --    12 C    0.952
    45   1 H    0.989 --    13 C    0.945
    46   1 H    0.990 --    13 C    0.959
    47   1 H    0.993 --    17 C    0.963
    48   1 H    0.993 --    18 C    0.959
    49   1 H    0.996 --    20 C    0.965
    50   1 H    0.997 --    21 C    0.965
    51   1 H    0.954 --    22 N    0.923
    52   1 H    0.990 --    26 C    0.979
    53   1 H    0.991 --    26 C    0.978
    54   1 H    0.987 --    26 C    0.970
 ---------------------------------------------------------------------------

molecular dipole:
                 x           y           z       tot (Debye)
 q only:       -5.710      -7.049     -10.644
   full:       -5.921      -7.385     -10.613      36.146

           -------------------------------------------------
          | TOTAL ENERGY              -78.818585098101 Eh   |
          | GRADIENT NORM               0.000961182933 Eh/α |
          | HOMO-LUMO GAP               2.562891226974 eV   |
           -------------------------------------------------

 * finished run on 2024/12/20 at 07:00:45.196
