   * xtb version 6.7.1 (edcfbbe) compiled by 'conda@3ef47c1a292c' on 2024-11-25

   ID    Z sym.   atoms
    1    6 C      1-10, 12, 13, 16, 17
    2    7 N      11
    3    8 O      14, 15
    4    1 H      18-47

          program call               : xtb C0849.xyz --opt --namespace C0849 --charge +1
          :  Hamiltonian                  GFN2-xTB          :
 * total energy  :   -55.9362229 Eh     change       -0.4273559E-09 Eh
 * total energy  :   -55.9456744 Eh     change       -0.9451523E-02 Eh
 * total energy  :   -55.9483667 Eh     change       -0.2692325E-02 Eh
 * total energy  :   -55.9489417 Eh     change       -0.5749475E-03 Eh
 * total energy  :   -55.9492756 Eh     change       -0.3338891E-03 Eh
 * total energy  :   -55.9495940 Eh     change       -0.3183854E-03 Eh
 * total energy  :   -55.9498872 Eh     change       -0.2932343E-03 Eh
 * total energy  :   -55.9502868 Eh     change       -0.3995722E-03 Eh
 * total energy  :   -55.9506943 Eh     change       -0.4075118E-03 Eh
 * total energy  :   -55.9510258 Eh     change       -0.3315647E-03 Eh
 * total energy  :   -55.9539049 Eh     change       -0.1289925E-04 Eh
 * total energy  :   -55.9539161 Eh     change       -0.1120691E-04 Eh
 * total energy  :   -55.9539267 Eh     change       -0.1068759E-04 Eh
 * total energy  :   -55.9539391 Eh     change       -0.1236205E-04 Eh
 * total energy  :   -55.9539534 Eh     change       -0.1433623E-04 Eh
 * total energy  :   -55.9539671 Eh     change       -0.1369064E-04 Eh
 * total energy  :   -55.9539779 Eh     change       -0.1077740E-04 Eh
 * total energy  :   -55.9539840 Eh     change       -0.6091561E-05 Eh
 * total energy  :   -55.9539872 Eh     change       -0.3218038E-05 Eh
   *** GEOMETRY OPTIMIZATION CONVERGED AFTER 68 ITERATIONS ***

 final structure:
================
47
 xtb: 6.7.1 (edcfbbe)
C            0.50789145332428       -0.51068795722897        0.44137574365146
C            0.48546613458579        0.98482379081967        0.73291271653817
C            1.15049307426805        1.82363343342588       -0.35963866095546
C            0.49731892351876        1.72322503001006       -1.74001643764167
C           -0.98415378889300        2.10331192253454       -1.78484770564256
C           -1.30427827899303        3.51366020353447       -1.28551282495782
C           -0.59863871597390        4.63899621536338       -2.04452044783596
C           -0.89341337327150        4.69562375352793       -3.54572419429265
C           -2.38147697249834        4.75815803088050       -3.91770836859338
C           -3.19377860542756        5.88241319253079       -3.26766730856706
N           -3.32150646836791        7.16623032546401       -4.03460467776949
C           -4.09521915170483        6.98532228024148       -5.28435164964880
C           -5.53932901846407        6.49126704483815       -5.11579883606880
O           -6.06290407744668        6.22277307675602       -4.07317108951113
O           -6.10516655041201        6.40974291688219       -6.30113382289814
C           -4.00466277707753        8.14966261896354       -3.16655178994599
C           -1.99364834236517        7.70182797295638       -4.38723424897760
H           -0.09458641036380       -0.75252382090668       -0.43065285907952
H            0.11010761154144       -1.06339797057664        1.28905523448786
H            1.52619397958691       -0.84772009446100        0.26157070042426
H           -0.54572099299594        1.31154805808258        0.88065379343775
H            1.01923175887792        1.16820538667164        1.66824937711322
H            1.16712535251683        2.86755443631017       -0.03780890441745
H            2.18983143982822        1.50198238114151       -0.45852660350421
H            1.05909618310475        2.35604348260182       -2.43135280132730
H            0.59174745656100        0.69878660910549       -2.10306216905641
H           -1.33686926103715        1.98599199003619       -2.81262551182844
H           -1.54973607519499        1.39751846220614       -1.17521167279842
H           -2.38691079941027        3.65991664606833       -1.32725038515838
H           -1.01613771347000        3.58882433008456       -0.23648136435009
H           -0.85593546062944        5.59112308935275       -1.57046364695823
H            0.47876201248281        4.52135788755103       -1.92791436627292
H           -0.34426156454247        5.53778177696715       -3.96977953004502
H           -0.49032446107600        3.79517320231015       -4.00975880136757
H           -2.47082300621342        4.77994641433952       -5.00477342929026
H           -2.83659723205882        3.82116974071406       -3.59560774346464
H           -4.21059923763361        5.53664915711723       -3.07924038930045
H           -2.74278607221761        6.12843388627032       -2.30603227315196
H           -4.14295653485049        7.93512518770103       -5.82419980637341
H           -3.58964337346177        6.26782066664127       -5.93546985877850
H           -7.02588007500516        6.09870786804018       -6.25538589187812
H           -3.39926513233426        8.34917033639218       -2.28479481554545
H           -4.15578661606885        9.08421760451729       -3.70400869009948
H           -4.97079599593820        7.76270131093408       -2.84846148984013
H           -1.37740010582476        7.77269785538985       -3.49318011689678
H           -1.49876239298703        7.05483283167532       -5.10713244747545
H           -2.09189074604112        8.69532743620803       -4.82224993407641

          :  Hamiltonian                  GFN2-xTB          :
         :: total energy             -55.953987222766 Eh    ::
         :: gradient norm              0.000325167313 Eh/a0 ::
         :: HOMO-LUMO gap              2.443739592590 eV    ::
         :: SCC energy               -56.680948897993 Eh    ::
         :: -> dispersion             -0.038074745547 Eh    ::
         :: repulsion energy           0.726961675227 Eh    ::

    * Orbital Energies and Occupations

         #    Occupation            Energy/Eh            Energy/eV
      -------------------------------------------------------------
         1        2.0000           -0.9044795             -24.6121
       ...           ...                  ...                  ...
        39        2.0000           -0.5735397             -15.6068
        40        2.0000           -0.5619758             -15.2921
        41        2.0000           -0.5560372             -15.1305
        42        2.0000           -0.5520799             -15.0229
        43        2.0000           -0.5412779             -14.7289
        44        2.0000           -0.5349872             -14.5577
        45        2.0000           -0.5282040             -14.3732
        46        2.0000           -0.5165137             -14.0551
        47        2.0000           -0.5101255             -13.8812
        48        2.0000           -0.5068365             -13.7917
        49        2.0000           -0.4883232             -13.2880
        50        2.0000           -0.4850114             -13.1978
        51        2.0000           -0.4817326             -13.1086 (HOMO)
        52                         -0.3919268             -10.6649 (LUMO)
        53                         -0.2370960              -6.4517
        54                         -0.1799584              -4.8969
        55                         -0.1547979              -4.2123
        56                         -0.1495098              -4.0684
        57                         -0.0899949              -2.4489
        58                         -0.0698738              -1.9014
        59                         -0.0596255              -1.6225
        60                         -0.0347027              -0.9443
        61                         -0.0308990              -0.8408
        62                         -0.0103075              -0.2805
       ...                                ...                  ...
        98                          0.5110506              13.9064
      -------------------------------------------------------------
                  HL-Gap            0.0898058 Eh            2.4437 eV

     #   Z          covCN         q      C6AA      α(0)
     1   6 C        3.751    -0.104    22.545     6.771
     2   6 C        3.799    -0.053    21.532     6.607
     3   6 C        3.800    -0.059    21.635     6.622
     4   6 C        3.800    -0.059    21.642     6.624
     5   6 C        3.800    -0.060    21.649     6.625
     6   6 C        3.800    -0.063    21.706     6.633
     7   6 C        3.800    -0.063    21.707     6.634
     8   6 C        3.799    -0.071    21.852     6.656
     9   6 C        3.799    -0.073    21.890     6.662
    10   6 C        3.757    -0.052    21.551     6.619
    11   7 N        3.621     0.140    18.855     6.449
    12   6 C        3.767    -0.068    21.837     6.660
    13   6 C        2.685     0.367    20.781     7.460
    14   8 O        0.856    -0.381    21.301     6.188
    15   8 O        1.661    -0.341    19.746     5.999
    16   6 C        3.725    -0.103    22.585     6.786
    17   6 C        3.724    -0.097    22.470     6.769
    18   1 H        0.925     0.034     2.535     2.490
    19   1 H        0.925     0.036     2.499     2.472
    20   1 H        0.925     0.037     2.483     2.464
    21   1 H        0.924     0.028     2.609     2.526
    22   1 H        0.924     0.032     2.561     2.503
    23   1 H        0.924     0.025     2.652     2.547
    24   1 H        0.924     0.035     2.513     2.479
    25   1 H        0.924     0.025     2.655     2.548
    26   1 H        0.924     0.040     2.449     2.447
    27   1 H        0.924     0.023     2.691     2.565
    28   1 H        0.924     0.043     2.415     2.430
    29   1 H        0.924     0.022     2.705     2.572
    30   1 H        0.924     0.047     2.359     2.402
    31   1 H        0.924     0.017     2.784     2.609
    32   1 H        0.925     0.054     2.265     2.353
    33   1 H        0.924     0.032     2.561     2.503
    34   1 H        0.924     0.061     2.182     2.310
    35   1 H        0.924     0.042     2.420     2.433
    36   1 H        0.924     0.080     1.982     2.201
    37   1 H        0.924     0.102     1.764     2.077
    38   1 H        0.924     0.098     1.801     2.099
    39   1 H        0.924     0.117     1.639     2.002
    40   1 H        0.924     0.120     1.617     1.988
    41   1 H        0.804     0.366     0.552     1.167
    42   1 H        0.925     0.101     1.774     2.083
    43   1 H        0.925     0.094     1.838     2.120
    44   1 H        0.925     0.120     1.613     1.986
    45   1 H        0.925     0.107     1.724     2.053
    46   1 H        0.925     0.104     1.752     2.070
    47   1 H        0.925     0.095     1.830     2.115

Wiberg/Mayer (AO) data.
largest (>0.10) Wiberg bond orders for each atom

     #   Z sym  total        # sym  WBO       # sym  WBO       # sym  WBO
 ---------------------------------------------------------------------------
     1   6 C    3.997 --     2 C    1.020    20 H    0.987    19 H    0.987
                            18 H    0.986
     2   6 C    3.998 --     1 C    1.020     3 C    1.008    22 H    0.978
                            21 H    0.976
     3   6 C    3.997 --     2 C    1.008     4 C    1.007    24 H    0.977
                            23 H    0.976
     4   6 C    3.997 --     5 C    1.008     3 C    1.007    25 H    0.975
                            26 H    0.975
     5   6 C    3.997 --     4 C    1.008     6 C    1.007    27 H    0.975
                            28 H    0.974
     6   6 C    3.996 --     5 C    1.007     7 C    1.007    29 H    0.976
                            30 H    0.973
     7   6 C    3.994 --     6 C    1.007     8 C    1.007    31 H    0.972
                            32 H    0.971
     8   6 C    3.991 --     7 C    1.007     9 C    1.004    33 H    0.974
                            34 H    0.971
     9   6 C    3.984 --    10 C    1.005     8 C    1.004    35 H    0.966
                            36 H    0.964
    10   6 C    3.912 --     9 C    1.005    37 H    0.961    38 H    0.958
                            11 N    0.912
    11   7 N    3.812 --    12 C    0.959    17 C    0.956    16 C    0.953
                            10 C    0.912
    12   6 C    3.947 --    11 N    0.959    13 C    0.949    39 H    0.948
                            40 H    0.941
    13   6 C    3.933 --    14 O    1.764    15 O    1.192    12 C    0.949
    14   8 O    2.075 --    13 C    1.764    15 O    0.191
    15   8 O    2.251 --    13 C    1.192    41 H    0.840    14 O    0.191
    16   6 C    3.919 --    43 H    0.975    42 H    0.975    44 H    0.967
                            11 N    0.953
    17   6 C    3.925 --    47 H    0.975    45 H    0.972    46 H    0.971
                            11 N    0.956
    18   1 H    0.999 --     1 C    0.986
    19   1 H    0.999 --     1 C    0.987
    20   1 H    0.999 --     1 C    0.987
    21   1 H    0.999 --     2 C    0.976
    22   1 H    0.999 --     2 C    0.978
    23   1 H    0.999 --     3 C    0.976
    24   1 H    0.999 --     3 C    0.977
    25   1 H    0.999 --     4 C    0.975
    26   1 H    0.998 --     4 C    0.975
    27   1 H    0.999 --     5 C    0.975
    28   1 H    0.998 --     5 C    0.974
    29   1 H    1.000 --     6 C    0.976
    30   1 H    0.998 --     6 C    0.973
    31   1 H    1.000 --     7 C    0.972
    32   1 H    0.997 --     7 C    0.971
    33   1 H    0.999 --     8 C    0.974
    34   1 H    0.996 --     8 C    0.971
    35   1 H    0.998 --     9 C    0.966
    36   1 H    0.993 --     9 C    0.964
    37   1 H    0.990 --    10 C    0.961
    38   1 H    0.990 --    10 C    0.958
    39   1 H    0.986 --    12 C    0.948
    40   1 H    0.986 --    12 C    0.941
    41   1 H    0.865 --    15 O    0.840
    42   1 H    0.990 --    16 C    0.975
    43   1 H    0.991 --    16 C    0.975
    44   1 H    0.986 --    16 C    0.967
    45   1 H    0.988 --    17 C    0.972
    46   1 H    0.989 --    17 C    0.971
    47   1 H    0.991 --    17 C    0.975
 ---------------------------------------------------------------------------

molecular dipole:
                 x           y           z       tot (Debye)
 q only:       -5.974      12.928      -8.080
   full:       -6.110      13.013      -8.247      42.125

           -------------------------------------------------
          | TOTAL ENERGY              -55.953987222766 Eh   |
          | GRADIENT NORM               0.000325167313 Eh/α |
          | HOMO-LUMO GAP               2.443739592590 eV   |
           -------------------------------------------------

 * finished run on 2024/12/20 at 07:00:56.122
