   * xtb version 6.7.1 (edcfbbe) compiled by 'conda@3ef47c1a292c' on 2024-11-25

   ID    Z sym.   atoms
    1    7 N      1, 2, 4, 6
    2    6 C      3, 5
    3    1 H      7-11

          program call               : xtb C0842.xyz --opt --namespace C0842 --charge +1
          :  Hamiltonian                  GFN2-xTB          :
 * total energy  :   -17.9266185 Eh     change       -0.9245227E-10 Eh
 * total energy  :   -17.9489590 Eh     change       -0.2234053E-01 Eh
 * total energy  :   -17.9585768 Eh     change       -0.9617787E-02 Eh
 * total energy  :   -17.9602541 Eh     change       -0.1677278E-02 Eh
 * total energy  :   -17.9610175 Eh     change       -0.7634385E-03 Eh
 * total energy  :   -17.9612346 Eh     change       -0.2171073E-03 Eh
 * total energy  :   -17.9613502 Eh     change       -0.1156295E-03 Eh
 * total energy  :   -17.9614092 Eh     change       -0.5897863E-04 Eh
 * total energy  :   -17.9614431 Eh     change       -0.3383631E-04 Eh
 * total energy  :   -17.9614650 Eh     change       -0.2191494E-04 Eh
 * total energy  :   -17.9614762 Eh     change       -0.1126659E-04 Eh
 * total energy  :   -17.9614810 Eh     change       -0.4779700E-05 Eh
   *** GEOMETRY OPTIMIZATION CONVERGED AFTER 12 ITERATIONS ***

 final structure:
================
11
 xtb: 6.7.1 (edcfbbe)
N            0.98525147825814       -0.10911825720162       -0.18888458613190
N            1.00813406300757        1.06535715425194       -0.93369935330772
C           -0.35600524848628        1.55552062399853       -1.42352523040318
N           -0.48739887459584        2.76215791521734       -1.14168736647967
C            0.67852608775381        3.16171857979836       -0.46872638312479
N            1.54299670703902        2.24431673249382       -0.32393185616259
H            1.91819961283364       -0.45322556465944        0.02459570184511
H            0.45984606916781        0.00136401348073        0.67581670043109
H            1.58494990116008        0.88023061510567       -1.77820923388177
H           -1.03472414736351        0.88295118959018       -1.91293806345257
H            0.80507435122558        4.16852699792451       -0.10925032933200

          :  Hamiltonian                  GFN2-xTB          :
         :: total energy             -17.961481015666 Eh    ::
         :: gradient norm              0.000913872380 Eh/a0 ::
         :: HOMO-LUMO gap              2.601768162990 eV    ::
         :: SCC energy               -18.177885847286 Eh    ::
         :: -> dispersion             -0.005840887879 Eh    ::
         :: repulsion energy           0.216404831621 Eh    ::

    * Orbital Energies and Occupations

         #    Occupation            Energy/Eh            Energy/eV
      -------------------------------------------------------------
         1        2.0000           -0.9659113             -26.2838
       ...           ...                  ...                  ...
         4        2.0000           -0.8779509             -23.8903
         5        2.0000           -0.8542910             -23.2464
         6        2.0000           -0.8495766             -23.1182
         7        2.0000           -0.8168018             -22.2263
         8        2.0000           -0.7867080             -21.4074
         9        2.0000           -0.7534806             -20.5033
        10        2.0000           -0.7479459             -20.3526
        11        2.0000           -0.7254317             -19.7400
        12        2.0000           -0.7094133             -19.3041
        13        2.0000           -0.6894387             -18.7606
        14        2.0000           -0.6614085             -17.9978
        15        2.0000           -0.6372222             -17.3397
        16        2.0000           -0.6272743             -17.0690 (HOMO)
        17                         -0.5316611             -14.4672 (LUMO)
        18                         -0.4321625             -11.7597
        19                         -0.3140666              -8.5462
        20                         -0.2811995              -7.6518
        21                         -0.2048878              -5.5753
        22                         -0.1842101              -5.0126
        23                         -0.1226504              -3.3375
        24                         -0.0857586              -2.3336
        25                         -0.0028325              -0.0771
        26                          0.0245245               0.6673
        27                          0.0933490               2.5402
       ...                                ...                  ...
        29                          0.3653792               9.9425
      -------------------------------------------------------------
                  HL-Gap            0.0956132 Eh            2.6018 eV

     #   Z          covCN         q      C6AA      α(0)
     1   7 N        2.702    -0.258    26.704     7.675
     2   7 N        3.829     0.222    17.600     6.231
     3   6 C        2.994     0.097    25.847     8.340
     4   7 N        1.859    -0.096    23.876     7.242
     5   6 C        3.076     0.155    24.581     8.129
     6   7 N        1.935    -0.162    25.292     7.457
     7   1 H        0.860     0.233     0.954     1.530
     8   1 H        0.860     0.222     0.999     1.566
     9   1 H        0.858     0.260     0.845     1.440
    10   1 H        0.926     0.166     1.289     1.776
    11   1 H        0.926     0.162     1.313     1.792

Wiberg/Mayer (AO) data.
largest (>0.10) Wiberg bond orders for each atom

     #   Z sym  total        # sym  WBO       # sym  WBO       # sym  WBO
 ---------------------------------------------------------------------------
     1   7 N    2.995 --     2 N    1.024     8 H    0.935     7 H    0.928
     2   7 N    3.831 --     1 N    1.024     6 N    0.968     9 H    0.867
                             3 C    0.855
     3   6 C    3.922 --     4 N    1.932    10 H    0.938     2 N    0.855
                             6 N    0.134
     4   7 N    3.156 --     3 C    1.932     5 C    1.076
     5   6 C    3.925 --     6 N    1.822     4 N    1.076    11 H    0.936
     6   7 N    3.030 --     5 C    1.822     2 N    0.968     3 C    0.134
     7   1 H    0.946 --     1 N    0.928
     8   1 H    0.951 --     1 N    0.935
     9   1 H    0.932 --     2 N    0.867
    10   1 H    0.972 --     3 C    0.938
    11   1 H    0.974 --     5 C    0.936
 ---------------------------------------------------------------------------

molecular dipole:
                 x           y           z       tot (Debye)
 q only:        1.430       2.307      -1.603
   full:        1.611       2.213      -1.606       8.067

           -------------------------------------------------
          | TOTAL ENERGY              -17.961481015666 Eh   |
          | GRADIENT NORM               0.000913872380 Eh/α |
          | HOMO-LUMO GAP               2.601768162990 eV   |
           -------------------------------------------------

 * finished run on 2024/12/20 at 07:00:47.257
