   * xtb version 6.7.1 (edcfbbe) compiled by 'conda@3ef47c1a292c' on 2024-11-25

   ID    Z sym.   atoms
    1    6 C      1, 3-5, 7-11, 13, 15, 16, 18, 19
    2    8 O      2, 6, 12
    3    7 N      14, 17
    4    1 H      20-36

          program call               : xtb C0854.xyz --opt --namespace C0854 --charge +1
          :  Hamiltonian                  GFN2-xTB          :
 * total energy  :   -56.2907522 Eh     change       -0.4900613E-09 Eh
 * total energy  :   -56.2971530 Eh     change       -0.6400814E-02 Eh
 * total energy  :   -56.2989841 Eh     change       -0.1831107E-02 Eh
 * total energy  :   -56.2992405 Eh     change       -0.2563688E-03 Eh
 * total energy  :   -56.2993805 Eh     change       -0.1399585E-03 Eh
 * total energy  :   -56.2994476 Eh     change       -0.6711001E-04 Eh
 * total energy  :   -56.2995340 Eh     change       -0.8644817E-04 Eh
 * total energy  :   -56.2996420 Eh     change       -0.1080032E-03 Eh
 * total energy  :   -56.2997772 Eh     change       -0.1352107E-03 Eh
 * total energy  :   -56.2999524 Eh     change       -0.1751361E-03 Eh
 * total energy  :   -56.3112163 Eh     change       -0.4766104E-04 Eh
 * total energy  :   -56.3112414 Eh     change       -0.2505401E-04 Eh
 * total energy  :   -56.3112656 Eh     change       -0.2424071E-04 Eh
 * total energy  :   -56.3112948 Eh     change       -0.2918049E-04 Eh
 * total energy  :   -56.3113061 Eh     change       -0.1133894E-04 Eh
 * total energy  :   -56.3113147 Eh     change       -0.8590296E-05 Eh
 * total energy  :   -56.3113088 Eh     change        0.5942387E-05 Eh
 * total energy  :   -56.3113215 Eh     change       -0.1274532E-04 Eh
 * total energy  :   -56.3113239 Eh     change       -0.2427218E-05 Eh
   *** GEOMETRY OPTIMIZATION CONVERGED AFTER 115 ITERATIONS ***

 final structure:
================
36
 xtb: 6.7.1 (edcfbbe)
C           -0.38117434811880       -0.24555684129014        2.59543235157920
O           -0.63487297394731       -1.63212850635964        2.63164366208791
C            0.06389822912272       -2.45883416558408        1.83066179169151
C           -0.27046073979314       -3.80972912208871        1.92747536582364
C            0.36504678048076       -4.77584781604269        1.14950135228370
O           -0.04457094621768       -6.04221155209115        1.32753635130732
C            0.55133647676694       -7.07258862127298        0.56684964062131
C            1.35662029331092       -4.37414031062373        0.25859476076557
C            1.70517401928044       -3.02290134060029        0.16328364412388
C            1.06327378529126       -2.05841900275943        0.94747105456324
C            2.74763151062350       -2.69553921291833       -0.79686420441606
O            3.22951606965429       -3.47178731330011       -1.59229756079820
C            3.27702692769588       -1.22663332115780       -0.81037617506396
N            4.46202007755939       -1.20127870069994       -1.61358008094191
C            5.74196810964791       -1.01733220958854       -1.18079484027357
C            6.56724599959103       -1.32216295060021       -2.21776565456440
N            5.78161854641913       -1.70417583672356       -3.26430919709913
C            4.51295454310097       -1.63593635907481       -2.87330664491273
C            6.25942892144090       -2.13765752855109       -4.54884711961198
H           -1.07192896645024        0.19484057117116        3.31157733015468
H           -0.57722220541524        0.17272559771909        1.60341124074633
H            0.64507010545954       -0.01681732986955        2.89913664916605
H           -1.04174525706771       -4.10991123053922        2.61737798199241
H            0.39451249189576       -6.91999362065801       -0.50456602256036
H            1.62189335611783       -7.15420943862121        0.77511429538377
H            0.05288619591946       -7.98854917399233        0.87726878882606
H            1.88010822418047       -5.07600042790441       -0.36921202835216
H            1.31927057946503       -1.01681553073437        0.85832037358300
H            2.50103422533350       -0.59003348567646       -1.24470331837100
H            3.51297026493934       -0.88806145535696        0.19791976646981
H            5.97393406236790       -0.68539793481180       -0.19061177092445
H            7.63589312639052       -1.29717367519865       -2.27940242406840
H            3.66300638421130       -1.86975630265260       -3.48400467547704
H            5.42233221295168       -2.26054261929327       -5.23214262659344
H            6.95378095068393       -1.40334486107112       -4.95734842626267
H            6.77887296715485       -3.09223837123394       -4.45237363087653

          :  Hamiltonian                  GFN2-xTB          :
         :: total energy             -56.311323936993 Eh    ::
         :: gradient norm              0.000950067078 Eh/a0 ::
         :: HOMO-LUMO gap              2.106807749798 eV    ::
         :: SCC energy               -57.075916842790 Eh    ::
         :: -> dispersion             -0.032133224968 Eh    ::
         :: repulsion energy           0.764592905797 Eh    ::

    * Orbital Energies and Occupations

         #    Occupation            Energy/Eh            Energy/eV
      -------------------------------------------------------------
         1        2.0000           -0.8838262             -24.0501
       ...           ...                  ...                  ...
        38        2.0000           -0.5987235             -16.2921
        39        2.0000           -0.5883399             -16.0095
        40        2.0000           -0.5800262             -15.7833
        41        2.0000           -0.5749312             -15.6447
        42        2.0000           -0.5651688             -15.3790
        43        2.0000           -0.5600263             -15.2391
        44        2.0000           -0.5555750             -15.1180
        45        2.0000           -0.5498352             -14.9618
        46        2.0000           -0.5459888             -14.8571
        47        2.0000           -0.5407408             -14.7143
        48        2.0000           -0.5258242             -14.3084
        49        2.0000           -0.4897096             -13.3257
        50        2.0000           -0.4831373             -13.1468 (HOMO)
        51                         -0.4057135             -11.0400 (LUMO)
        52                         -0.3931743             -10.6988
        53                         -0.3608911              -9.8203
        54                         -0.3153291              -8.5805
        55                         -0.3027199              -8.2374
        56                         -0.1910466              -5.1986
        57                         -0.1696379              -4.6161
        58                         -0.1196190              -3.2550
        59                         -0.0869683              -2.3665
        60                         -0.0759421              -2.0665
        61                         -0.0424064              -1.1539
       ...                                ...                  ...
        93                          0.5518804              15.0174
      -------------------------------------------------------------
                  HL-Gap            0.0774238 Eh            2.1068 eV

     #   Z          covCN         q      C6AA      α(0)
     1   6 C        3.643     0.026    20.472     6.504
     2   8 O        1.707    -0.240    17.970     5.723
     3   6 C        2.860     0.157    24.591     8.128
     4   6 C        2.923    -0.063    29.579     8.919
     5   6 C        2.860     0.159    24.557     8.123
     6   8 O        1.706    -0.236    17.914     5.715
     7   6 C        3.645     0.024    20.513     6.509
     8   6 C        2.926    -0.064    29.584     8.920
     9   6 C        2.970    -0.020    28.511     8.758
    10   6 C        2.915    -0.083    30.085     8.994
    11   6 C        2.826     0.227    23.235     7.899
    12   8 O        0.857    -0.363    20.963     6.139
    13   6 C        3.743    -0.051    21.554     6.623
    14   7 N        2.872     0.072    19.985     6.640
    15   6 C        3.067    -0.008    28.145     8.699
    16   6 C        3.071    -0.009    28.164     8.702
    17   7 N        2.867     0.078    19.890     6.624
    18   6 C        3.095     0.058    26.581     8.450
    19   6 C        3.692    -0.085    22.321     6.760
    20   1 H        0.925     0.084     1.939     2.178
    21   1 H        0.924     0.048     2.351     2.398
    22   1 H        0.924     0.046     2.365     2.405
    23   1 H        0.926     0.094     1.837     2.120
    24   1 H        0.924     0.053     2.280     2.361
    25   1 H        0.924     0.052     2.290     2.367
    26   1 H        0.925     0.083     1.946     2.182
    27   1 H        0.926     0.075     2.033     2.230
    28   1 H        0.926     0.043     2.409     2.427
    29   1 H        0.924     0.100     1.789     2.091
    30   1 H        0.925     0.100     1.786     2.090
    31   1 H        0.927     0.103     1.759     2.074
    32   1 H        0.926     0.108     1.717     2.049
    33   1 H        0.926     0.121     1.603     1.980
    34   1 H        0.925     0.099     1.791     2.093
    35   1 H        0.925     0.104     1.750     2.069
    36   1 H        0.924     0.107     1.719     2.050

Wiberg/Mayer (AO) data.
largest (>0.10) Wiberg bond orders for each atom

     #   Z sym  total        # sym  WBO       # sym  WBO       # sym  WBO
 ---------------------------------------------------------------------------
     1   6 C    3.935 --    20 H    0.977    22 H    0.976    21 H    0.976
                             2 O    0.976
     2   8 O    2.274 --     3 C    1.103     1 C    0.976
     3   6 C    3.945 --    10 C    1.366     4 C    1.347     2 O    1.103
     4   6 C    3.983 --     5 C    1.354     3 C    1.347    23 H    0.961
     5   6 C    3.947 --     4 C    1.354     8 C    1.351     6 O    1.113
     6   8 O    2.283 --     5 C    1.113     7 C    0.971
     7   6 C    3.931 --    26 H    0.977    25 H    0.976    24 H    0.976
                             6 O    0.971
     8   6 C    3.985 --     5 C    1.351     9 C    1.350    27 H    0.960
     9   6 C    3.981 --     8 C    1.350    10 C    1.343    11 C    1.095
    10   6 C    3.984 --     3 C    1.366     9 C    1.343    28 H    0.962
    11   6 C    3.932 --    12 O    1.790     9 C    1.095    13 C    0.915
    12   8 O    2.103 --    11 C    1.790
    13   6 C    3.946 --    14 N    0.997    30 H    0.958    29 H    0.944
                            11 C    0.915
    14   7 N    3.707 --    18 C    1.341    15 C    1.213    13 C    0.997
    15   6 C    3.947 --    16 C    1.602    14 N    1.213    31 H    0.962
    16   6 C    3.948 --    15 C    1.602    17 N    1.219    32 H    0.962
    17   7 N    3.716 --    18 C    1.361    16 C    1.219    19 C    0.991
    18   6 C    3.945 --    17 N    1.361    14 N    1.341    33 H    0.952
    19   6 C    3.935 --    17 N    0.991    34 H    0.975    35 H    0.966
                            36 H    0.960
    20   1 H    0.993 --     1 C    0.977
    21   1 H    0.998 --     1 C    0.976
    22   1 H    0.998 --     1 C    0.976
    23   1 H    0.991 --     4 C    0.961
    24   1 H    0.997 --     7 C    0.976
    25   1 H    0.997 --     7 C    0.976
    26   1 H    0.993 --     7 C    0.977
    27   1 H    0.994 --     8 C    0.960
    28   1 H    0.998 --    10 C    0.962
    29   1 H    0.989 --    13 C    0.944
    30   1 H    0.990 --    13 C    0.958
    31   1 H    0.989 --    15 C    0.962
    32   1 H    0.988 --    16 C    0.962
    33   1 H    0.985 --    18 C    0.952
    34   1 H    0.990 --    19 C    0.975
    35   1 H    0.988 --    19 C    0.966
    36   1 H    0.988 --    19 C    0.960
 ---------------------------------------------------------------------------

molecular dipole:
                 x           y           z       tot (Debye)
 q only:        8.153      -3.085      -3.338
   full:        8.265      -2.827      -3.439      23.862

           -------------------------------------------------
          | TOTAL ENERGY              -56.311323936993 Eh   |
          | GRADIENT NORM               0.000950067078 Eh/α |
          | HOMO-LUMO GAP               2.106807749798 eV   |
           -------------------------------------------------

 * finished run on 2024/12/20 at 07:01:03.355
