   * xtb version 6.7.1 (edcfbbe) compiled by 'conda@3ef47c1a292c' on 2024-11-25

   ID    Z sym.   atoms
    1    6 C      1-4, 6-11
    2    7 N      5
    3    1 H      12-27

          program call               : xtb C0859.xyz --opt --namespace C0859 --charge +1
          :  Hamiltonian                  GFN2-xTB          :
 * total energy  :   -32.1035750 Eh     change       -0.3016254E-10 Eh
 * total energy  :   -32.1061964 Eh     change       -0.2621451E-02 Eh
 * total energy  :   -32.1066371 Eh     change       -0.4407357E-03 Eh
 * total energy  :   -32.1067071 Eh     change       -0.6996746E-04 Eh
 * total energy  :   -32.1067672 Eh     change       -0.6008722E-04 Eh
 * total energy  :   -32.1067999 Eh     change       -0.3270809E-04 Eh
 * total energy  :   -32.1068381 Eh     change       -0.3818636E-04 Eh
 * total energy  :   -32.1068855 Eh     change       -0.4741024E-04 Eh
 * total energy  :   -32.1069547 Eh     change       -0.6918105E-04 Eh
 * total energy  :   -32.1069964 Eh     change       -0.4174176E-04 Eh
 * total energy  :   -32.1072401 Eh     change       -0.3669025E-04 Eh
 * total energy  :   -32.1072812 Eh     change       -0.4108173E-04 Eh
 * total energy  :   -32.1072947 Eh     change       -0.1356646E-04 Eh
 * total energy  :   -32.1072969 Eh     change       -0.2187104E-05 Eh
 * total energy  :   -32.1073041 Eh     change       -0.7209641E-05 Eh
 * total energy  :   -32.1073096 Eh     change       -0.5493031E-05 Eh
 * total energy  :   -32.1073149 Eh     change       -0.5232263E-05 Eh
 * total energy  :   -32.1073217 Eh     change       -0.6894046E-05 Eh
 * total energy  :   -32.1073235 Eh     change       -0.1753297E-05 Eh
   *** GEOMETRY OPTIMIZATION CONVERGED AFTER 22 ITERATIONS ***

 final structure:
================
27
 xtb: 6.7.1 (edcfbbe)
C            1.17041061254924       -0.28535777533484        0.11402290337278
C            0.33099393709184        0.93956790523615       -0.23012137040608
C            0.73655057082049        1.59846397397825       -1.54880413369748
C            0.39351598744091        0.76488538006811       -2.79230543671674
N           -1.04442662883063        0.64458953100397       -2.94770487697183
C           -1.69288743392137       -0.42208001447363       -2.46516697609607
C           -3.06411577606114       -0.51623207166040       -2.52681281586826
C           -3.81720177151869        0.51333237269733       -3.09753740987578
C           -3.10576207991213        1.61293858941368       -3.59311603983956
C           -1.73628276507361        1.65001952415678       -3.50227441460102
C           -5.29154264832293        0.44221595795965       -3.19613642037562
H            1.05647492757118       -1.08337478451264       -0.61637120130681
H            0.87432702644637       -0.67700974737265        1.08294651230117
H            2.22287371583887       -0.01986472035647        0.16557443188978
H           -0.73009810808909        0.67380209673065       -0.24971256422376
H            0.45845845597665        1.67768877396716        0.56247170368405
H            0.25404037362641        2.57455750440729       -1.63233707881998
H            1.81479445137390        1.75947740938869       -1.54934369453228
H            0.80383972346303        1.24899742520001       -3.68055052618228
H            0.82822790105998       -0.23106210472624       -2.70597931289694
H           -1.09623901622781       -1.21050251928477       -2.03141711396946
H           -3.55157312536446       -1.39211974840876       -2.12864326534533
H           -3.62966940228008        2.43835782950413       -4.04871608649330
H           -1.16847192216918        2.48913439577185       -3.87612311885688
H           -5.57109599826014        0.13310703758244       -4.20493672372042
H           -5.70457558383074       -0.28053629391282       -2.49835622502885
H           -5.74245542339667        1.41705407297656       -3.02476874542328

          :  Hamiltonian                  GFN2-xTB          :
         :: total energy             -32.107323500022 Eh    ::
         :: gradient norm              0.000211829346 Eh/a0 ::
         :: HOMO-LUMO gap              2.896709053820 eV    ::
         :: SCC energy               -32.642870890951 Eh    ::
         :: -> dispersion             -0.020188940653 Eh    ::
         :: repulsion energy           0.535547390928 Eh    ::

    * Orbital Energies and Occupations

         #    Occupation            Energy/Eh            Energy/eV
      -------------------------------------------------------------
         1        2.0000           -0.8707441             -23.6942
       ...           ...                  ...                  ...
        18        2.0000           -0.6530411             -17.7702
        19        2.0000           -0.6369867             -17.3333
        20        2.0000           -0.6240328             -16.9808
        21        2.0000           -0.6185779             -16.8324
        22        2.0000           -0.6171894             -16.7946
        23        2.0000           -0.6085071             -16.5583
        24        2.0000           -0.6054930             -16.4763
        25        2.0000           -0.6007718             -16.3478
        26        2.0000           -0.5959462             -16.2165
        27        2.0000           -0.5860078             -15.9461
        28        2.0000           -0.5676071             -15.4454
        29        2.0000           -0.5584371             -15.1958
        30        2.0000           -0.5525664             -15.0361 (HOMO)
        31                         -0.4461143             -12.1394 (LUMO)
        32                         -0.4183684             -11.3844
        33                         -0.2998521              -8.1594
        34                         -0.1627892              -4.4297
        35                         -0.0771920              -2.1005
        36                         -0.0620801              -1.6893
        37                         -0.0458939              -1.2488
        38                         -0.0308338              -0.8390
        39                         -0.0241986              -0.6585
        40                         -0.0196704              -0.5353
        41                         -0.0064876              -0.1765
       ...                                ...                  ...
        60                          0.4444622              12.0944
      -------------------------------------------------------------
                  HL-Gap            0.1064521 Eh            2.8967 eV

     #   Z          covCN         q      C6AA      α(0)
     1   6 C        3.752    -0.114    22.737     6.800
     2   6 C        3.800    -0.061    21.673     6.628
     3   6 C        3.802    -0.070    21.843     6.654
     4   6 C        3.758    -0.034    21.235     6.570
     5   7 N        2.750     0.100    19.526     6.563
     6   6 C        2.889     0.032    27.292     8.565
     7   6 C        2.921    -0.028    28.699     8.785
     8   6 C        2.969     0.071    26.409     8.429
     9   6 C        2.921    -0.027    28.682     8.782
    10   6 C        2.891     0.029    27.342     8.573
    11   6 C        3.759    -0.134    23.119     6.855
    12   1 H        0.925     0.031     2.571     2.508
    13   1 H        0.925     0.056     2.251     2.346
    14   1 H        0.925     0.054     2.271     2.357
    15   1 H        0.924     0.027     2.630     2.536
    16   1 H        0.924     0.061     2.183     2.310
    17   1 H        0.924     0.052     2.294     2.368
    18   1 H        0.925     0.080     1.977     2.199
    19   1 H        0.924     0.087     1.909     2.161
    20   1 H        0.925     0.093     1.850     2.127
    21   1 H        0.926     0.106     1.729     2.056
    22   1 H        0.926     0.100     1.788     2.091
    23   1 H        0.926     0.100     1.782     2.088
    24   1 H        0.926     0.103     1.757     2.073
    25   1 H        0.924     0.106     1.730     2.057
    26   1 H        0.925     0.086     1.913     2.163
    27   1 H        0.925     0.093     1.851     2.127

Wiberg/Mayer (AO) data.
largest (>0.10) Wiberg bond orders for each atom

     #   Z sym  total        # sym  WBO       # sym  WBO       # sym  WBO
 ---------------------------------------------------------------------------
     1   6 C    3.993 --     2 C    1.021    14 H    0.986    13 H    0.985
                            12 H    0.984
     2   6 C    3.994 --     1 C    1.021     3 C    1.009    15 H    0.973
                            16 H    0.971
     3   6 C    3.981 --     2 C    1.009     4 C    0.976    17 H    0.974
                            18 H    0.965
     4   6 C    3.935 --     3 C    0.976     5 N    0.965    19 H    0.963
                            20 H    0.961
     5   7 N    3.755 --     6 C    1.314    10 C    1.305     4 C    0.965
     6   6 C    3.959 --     7 C    1.482     5 N    1.314    21 H    0.953
     7   6 C    3.984 --     6 C    1.482     8 C    1.370    22 H    0.959
     8   6 C    3.970 --     7 C    1.370     9 C    1.357    11 C    1.064
     9   6 C    3.984 --    10 C    1.500     8 C    1.357    23 H    0.959
    10   6 C    3.960 --     9 C    1.500     5 N    1.305    24 H    0.955
    11   6 C    3.983 --     8 C    1.064    26 H    0.974    27 H    0.960
                            25 H    0.929
    12   1 H    0.999 --     1 C    0.984
    13   1 H    0.997 --     1 C    0.985
    14   1 H    0.997 --     1 C    0.986
    15   1 H    0.999 --     2 C    0.973
    16   1 H    0.995 --     2 C    0.971
    17   1 H    0.997 --     3 C    0.974
    18   1 H    0.992 --     3 C    0.965
    19   1 H    0.992 --     4 C    0.963
    20   1 H    0.991 --     4 C    0.961
    21   1 H    0.988 --     6 C    0.953
    22   1 H    0.990 --     7 C    0.959
    23   1 H    0.990 --     9 C    0.959
    24   1 H    0.989 --    10 C    0.955
    25   1 H    0.987 --    11 C    0.929
    26   1 H    0.992 --    11 C    0.974
    27   1 H    0.991 --    11 C    0.960
 ---------------------------------------------------------------------------

molecular dipole:
                 x           y           z       tot (Debye)
 q only:       -3.550       1.229      -5.242
   full:       -3.512       1.233      -5.331      16.527

           -------------------------------------------------
          | TOTAL ENERGY              -32.107323500022 Eh   |
          | GRADIENT NORM               0.000211829346 Eh/α |
          | HOMO-LUMO GAP               2.896709053820 eV   |
           -------------------------------------------------

 * finished run on 2024/12/20 at 07:01:34.583
