   * xtb version 6.7.1 (edcfbbe) compiled by 'conda@3ef47c1a292c' on 2024-11-25

   ID    Z sym.   atoms
    1    6 C      1-10, 12-14, 16-18, 20-24, 26-29, 32, 33, 35-48, 51-54
    2    7 N      11, 19, 25, 34
    3   17 Cl     15, 49, 50, 57
    4    8 O      30, 31, 55, 56
    5    1 H      58-120

          program call               : xtb C0857.xyz --opt --namespace C0857 --charge +1
          :  Hamiltonian                  GFN2-xTB          :
 * total energy  :  -174.4265592 Eh     change       -0.5918480E-08 Eh
 * total energy  :  -174.4486274 Eh     change       -0.2206821E-01 Eh
 * total energy  :  -174.4580827 Eh     change       -0.9455267E-02 Eh
 * total energy  :  -174.4606702 Eh     change       -0.2587495E-02 Eh
 * total energy  :  -174.4628699 Eh     change       -0.2199678E-02 Eh
 * total energy  :  -174.4642178 Eh     change       -0.1347914E-02 Eh
 * total energy  :  -174.4653107 Eh     change       -0.1092904E-02 Eh
 * total energy  :  -174.4663684 Eh     change       -0.1057766E-02 Eh
 * total energy  :  -174.4673808 Eh     change       -0.1012373E-02 Eh
 * total energy  :  -174.4683457 Eh     change       -0.9648755E-03 Eh
 * total energy  :  -174.4913109 Eh     change       -0.6104310E-05 Eh
 * total energy  :  -174.4913162 Eh     change       -0.5246894E-05 Eh
 * total energy  :  -174.4913262 Eh     change       -0.1002876E-04 Eh
 * total energy  :  -174.4913265 Eh     change       -0.2657320E-06 Eh
 * total energy  :  -174.4913348 Eh     change       -0.8287158E-05 Eh
 * total energy  :  -174.4913453 Eh     change       -0.1050215E-04 Eh
 * total energy  :  -174.4913524 Eh     change       -0.7097615E-05 Eh
 * total energy  :  -174.4913598 Eh     change       -0.7456463E-05 Eh
 * total energy  :  -174.4913639 Eh     change       -0.4045119E-05 Eh
   *** GEOMETRY OPTIMIZATION CONVERGED AFTER 109 ITERATIONS ***

 final structure:
================
120
 xtb: 6.7.1 (edcfbbe)
C            1.46515498082300        0.53309609226537       -0.00806883616924
C            0.75787975699690        1.62262479152374       -0.80553384120353
C            1.15500692519210        1.64448488534574       -2.28241383846525
C            0.82873616331773        0.36636760829626       -3.05737093348388
C           -0.65377387897845       -0.00925628960451       -3.09029431197001
C           -1.56959095142875        1.03218968139689       -3.73702576736295
C           -1.22471704434666        1.39179176663771       -5.18437965492673
C           -1.12312947242924        0.20322957640882       -6.14221576741238
C           -2.38534016292395       -0.65330516126221       -6.25559999370112
C           -3.53461639813157        0.02825136602650       -7.00800775345716
N           -3.16913811382815        0.35419469746661       -8.36707121776036
C           -2.85754091771370        1.62082734472869       -8.80079174562998
C           -3.00583820618697        2.86640231522612       -8.21322978187904
C           -2.59595204241018        3.97569382920957       -8.93760094620475
Cl          -2.76202610634772        5.53730832277953       -8.23879920754091
C           -2.05450581518900        3.84349539117557      -10.22472456809239
C           -1.91189593504379        2.59810786569593      -10.81783643572052
C           -2.31961119840518        1.49048759538121      -10.09347946627742
N           -2.30812136002490        0.14903517688091      -10.39667231089963
C           -2.84712301253986       -0.54618892232637       -9.35304870346222
C           -3.14438977082555       -1.90348393811222       -9.21922439266795
C           -2.81690260608999       -3.02768089288447       -9.96640198356665
C           -3.29679919847640       -4.26057072259230       -9.54172962989348
C           -3.10266661438620       -5.57326506439400       -9.96693366250740
N           -2.45401076763061       -6.08328716495316      -11.05786808483762
C           -1.87929629283737       -5.40524818491742      -12.19164192627555
C           -0.34588927078143       -5.40615045722635      -12.14756449201236
C            0.23179766972827       -4.87277901155545      -13.45722514231678
C           -0.14752392537598       -3.42161856043437      -13.64384552692644
O           -0.52645671436384       -2.72922502411008      -12.72642325071837
O           -0.05308441767015       -2.99950119469188      -14.88290535241176
C           -2.48968498824275       -7.45949379074857      -10.99799434864652
C           -3.19980517445687       -7.80728199215558       -9.83907513332439
N           -3.58548789618041       -6.63427500547652       -9.23609841705172
C           -4.43163230884233       -6.62731265023067       -8.06388223582831
C           -3.64823249338528       -6.75839775673214       -6.75171970022617
C           -2.99065794998579       -5.46308281259562       -6.27240343713354
C           -3.98197138789333       -4.40051762509298       -5.78833195925661
C           -4.66330171503648       -4.72548305225676       -4.45687730553459
C           -3.74609138533879       -4.66999381580433       -3.23383274947722
C           -3.10667292568629       -3.30611303464443       -2.96395296743555
C           -4.09214105579106       -2.14468955594259       -2.81341309790343
C           -5.12240906729873       -2.31221489065740       -1.69548744569698
C           -4.49427463270200       -2.38550747204844       -0.30933884419962
C           -3.40892652291227       -9.13249618468251       -9.49488386146860
C           -2.89592411421900      -10.10368651929123      -10.34265606296401
C           -2.19754965857663       -9.75554629852521      -11.50821004902264
C           -1.98720878650897       -8.42734601388137      -11.85084522155645
Cl          -1.58418283122420      -10.98910837364156      -12.53611714240584
Cl          -3.12680447480859      -11.76113470783411       -9.95088169168384
C           -1.78644990294348       -0.39183869199954      -11.62315722180950
C           -2.88396548563498       -0.75116186987233      -12.63594884737453
C           -3.10614558673660        0.35220230905097      -13.66646976375091
C           -1.93151882089979        0.47513150253002      -14.60829901034580
O           -1.20190442873821       -0.42991606422185      -14.93459922484332
O           -1.78675375199880        1.71282305963784      -15.06086395343913
Cl          -1.56503793227737        5.24342152977671      -11.09394630950040
H            1.15036443147797       -0.45717212232314       -0.32790723291370
H            1.23639253243148        0.63337037068026        1.05028818935266
H            2.54308367769548        0.60965719233825       -0.13292838854962
H           -0.32271513840056        1.50024172840645       -0.71114244635334
H            1.01163163809505        2.59394250473113       -0.37466022362173
H            0.66814363512833        2.49544428880119       -2.76353590264010
H            2.23320385089003        1.81053330011973       -2.34828259750259
H            1.19646767325197        0.48389348751072       -4.07919155624993
H            1.37928483946938       -0.46632778452212       -2.61590247969611
H           -0.75494667301870       -0.96057049079415       -3.61806466157895
H           -1.00054843590797       -0.17770717049746       -2.06930151899179
H           -2.59790370878066        0.66444428526667       -3.68977915885055
H           -1.53768918871284        1.94967068760616       -3.14750592229807
H           -1.97318556974250        2.09789174789820       -5.54938585595974
H           -0.26681823385507        1.91343376145994       -5.20272839915416
H           -0.84997846183123        0.57837825269874       -7.13242038691493
H           -0.30911881619525       -0.44284083497562       -5.81195926232859
H           -2.12576969001765       -1.57844740418719       -6.77476896409578
H           -2.74335942143553       -0.91442865796831       -5.26065790767757
H           -4.41652530936467       -0.61936248574265       -7.01049234982484
H           -3.80644108435202        0.95768644121229       -6.51048079952753
H           -3.42849664953086        3.00268114921736       -7.23262599057978
H           -1.49759914252101        2.52692540591381      -11.80923818495220
H           -3.74723254980927       -2.11198582246722       -8.34571900861904
H           -2.16543850147337       -2.94913785394121      -10.81880981758884
H           -3.91312775029755       -4.20069240346672       -8.65728645596625
H           -2.21608573064806       -5.93159691219475      -13.09114787292484
H           -2.26029416023544       -4.38699568853642      -12.23126094089817
H           -0.00906208942171       -4.77416130153572      -11.32448471024030
H            0.01450230903251       -6.41942135234823      -11.97189897311680
H            1.32178253433098       -4.93157288727088      -13.43964730410528
H           -0.11489725822526       -5.44306677684221      -14.31925765683259
H           -0.34563509479590       -2.06383657920075      -14.97116752216623
H           -5.04724087696380       -5.72803075974557       -8.06240847286326
H           -5.10567402386854       -7.48166735967235       -8.16477844853115
H           -4.33444654587638       -7.11735997063996       -5.98480212360804
H           -2.87869217179204       -7.52081788608396       -6.88667241873472
H           -2.31402674670644       -5.70709923048182       -5.45331810743785
H           -2.38134152671601       -5.05010360124378       -7.07963571541791
H           -3.45046270193536       -3.45342386421392       -5.69097609277371
H           -4.76473313174855       -4.25375750670676       -6.53725553164346
H           -5.48556546802794       -4.02262618414167       -4.31325905463572
H           -5.10585110725360       -5.72212332819668       -4.50864944257303
H           -4.33137833260275       -4.96673276407990       -2.36239842697237
H           -2.94625751473198       -5.40555060556489       -3.34290949671827
H           -2.51284314867141       -3.38603246867925       -2.05245286972511
H           -2.41040565338179       -3.06638711623802       -3.77187510630582
H           -3.51439572344626       -1.23883515141243       -2.61248050500619
H           -4.62260059238881       -1.99189041822356       -3.75732142228199
H           -5.80012495443763       -1.45535414904195       -1.72967746725226
H           -5.72232744384273       -3.20631962021865       -1.87157856196170
H           -3.86022547666554       -1.51936976066395       -0.13201754012881
H           -5.26914142519165       -2.40273417264504        0.45304616768081
H           -3.89180322218046       -3.28299680053765       -0.19724369629331
H           -3.94123451678997       -9.42500826683376       -8.60603077491496
H           -1.45154346214512       -8.18894285750721      -12.75344628497839
H           -1.11420353588222        0.35093824765112      -12.05301133139124
H           -1.18381704921956       -1.26771354658157      -11.39423354782281
H           -2.57969997598904       -1.65457812698481      -13.16288625331084
H           -3.81444957684701       -0.95875101453341      -12.10707277187146
H           -3.97387834630210        0.11074387722758      -14.28658104298355
H           -3.29309592507258        1.32020029802840      -13.20145615261243
H           -1.06610830976638        1.78446609272603      -15.70872071571275

          :  Hamiltonian                  GFN2-xTB          :
         :: total energy            -174.491363866117 Eh    ::
         :: gradient norm              0.000489896001 Eh/a0 ::
         :: HOMO-LUMO gap              1.649652158901 eV    ::
         :: SCC energy              -176.747251069145 Eh    ::
         :: -> dispersion             -0.145888540720 Eh    ::
         :: repulsion energy           2.255887203028 Eh    ::

    * Orbital Energies and Occupations

         #    Occupation            Energy/Eh            Energy/eV
      -------------------------------------------------------------
         1        2.0000           -1.1337664             -30.8514
       ...           ...                  ...                  ...
       145        2.0000           -0.4932171             -13.4211
       146        2.0000           -0.4892612             -13.3135
       147        2.0000           -0.4890062             -13.3065
       148        2.0000           -0.4885535             -13.2942
       149        2.0000           -0.4870336             -13.2529
       150        2.0000           -0.4854629             -13.2101
       151        2.0000           -0.4811638             -13.0931
       152        2.0000           -0.4788159             -13.0292
       153        2.0000           -0.4770886             -12.9822
       154        2.0000           -0.4744331             -12.9100
       155        2.0000           -0.4705674             -12.8048
       156        2.0000           -0.4682929             -12.7429
       157        2.0000           -0.4442897             -12.0897 (HOMO)
       158                         -0.3836661             -10.4401 (LUMO)
       159                         -0.3408711              -9.2756
       160                         -0.3329040              -9.0588
       161                         -0.3260422              -8.8721
       162                         -0.3258735              -8.8675
       163                         -0.3253912              -8.8543
       164                         -0.3167996              -8.6206
       165                         -0.2836138              -7.7175
       166                         -0.2284241              -6.2157
       167                         -0.2265611              -6.1650
       168                         -0.2259406              -6.1482
       ...                                ...                  ...
       311                          0.5806061              15.7991
      -------------------------------------------------------------
                  HL-Gap            0.0606236 Eh            1.6497 eV

     #   Z          covCN         q      C6AA      α(0)
     1   6 C        3.751    -0.103    22.521     6.768
     2   6 C        3.799    -0.053    21.521     6.605
     3   6 C        3.801    -0.058    21.619     6.620
     4   6 C        3.800    -0.058    21.622     6.621
     5   6 C        3.800    -0.057    21.606     6.618
     6   6 C        3.800    -0.059    21.632     6.622
     7   6 C        3.800    -0.060    21.663     6.627
     8   6 C        3.800    -0.060    21.659     6.626
     9   6 C        3.801    -0.069    21.819     6.650
    10   6 C        3.740    -0.012    20.868     6.518
    11   7 N        2.823    -0.020    21.641     6.909
    12   6 C        3.062     0.041    27.028     8.525
    13   6 C        2.953    -0.057    29.418     8.896
    14   6 C        2.921     0.086    26.082     8.375
    15  17 Cl       0.999    -0.112   102.656    15.501
    16   6 C        2.922     0.085    26.096     8.377
    17   6 C        2.953    -0.060    29.500     8.908
    18   6 C        3.072     0.036    27.112     8.537
    19   7 N        2.817    -0.015    21.533     6.892
    20   6 C        3.020     0.108    25.589     8.298
    21   6 C        2.912    -0.097    30.439     9.047
    22   6 C        2.890    -0.023    28.582     8.765
    23   6 C        2.913    -0.100    30.522     9.059
    24   6 C        3.009     0.109    25.576     8.296
    25   7 N        2.817    -0.020    21.632     6.908
    26   6 C        3.744    -0.015    20.913     6.524
    27   6 C        3.804    -0.066    21.761     6.641
    28   6 C        3.804    -0.098    22.365     6.733
    29   6 C        2.691     0.364    20.826     7.469
    30   8 O        0.856    -0.456    22.838     6.407
    31   8 O        1.658    -0.365    20.184     6.065
    32   6 C        3.072     0.036    27.117     8.538
    33   6 C        3.063     0.039    27.071     8.532
    34   7 N        2.824    -0.023    21.691     6.917
    35   6 C        3.740    -0.014    20.897     6.522
    36   6 C        3.800    -0.069    21.822     6.651
    37   6 C        3.800    -0.065    21.744     6.639
    38   6 C        3.800    -0.059    21.629     6.622
    39   6 C        3.800    -0.061    21.671     6.628
    40   6 C        3.800    -0.060    21.655     6.626
    41   6 C        3.800    -0.058    21.616     6.620
    42   6 C        3.800    -0.056    21.578     6.614
    43   6 C        3.799    -0.053    21.532     6.607
    44   6 C        3.752    -0.104    22.540     6.771
    45   6 C        2.953    -0.060    29.486     8.906
    46   6 C        2.922     0.087    26.073     8.374
    47   6 C        2.922     0.086    26.094     8.377
    48   6 C        2.953    -0.061    29.503     8.909
    49  17 Cl       0.999    -0.113   102.675    15.502
    50  17 Cl       0.999    -0.111   102.635    15.499
    51   6 C        3.742    -0.026    21.109     6.555
    52   6 C        3.803    -0.067    21.782     6.644
    53   6 C        3.803    -0.098    22.366     6.733
    54   6 C        2.690     0.367    20.773     7.459
    55   8 O        0.856    -0.430    22.299     6.331
    56   8 O        1.660    -0.359    20.063     6.047
    57  17 Cl       0.999    -0.114   102.714    15.505
    58   1 H        0.925     0.033     2.546     2.495
    59   1 H        0.925     0.034     2.527     2.486
    60   1 H        0.925     0.035     2.513     2.479
    61   1 H        0.924     0.029     2.595     2.519
    62   1 H        0.924     0.030     2.583     2.513
    63   1 H        0.924     0.028     2.613     2.528
    64   1 H        0.924     0.031     2.568     2.506
    65   1 H        0.924     0.026     2.648     2.545
    66   1 H        0.924     0.035     2.521     2.483
    67   1 H        0.924     0.024     2.671     2.556
    68   1 H        0.924     0.037     2.492     2.469
    69   1 H        0.924     0.024     2.672     2.556
    70   1 H        0.924     0.040     2.443     2.444
    71   1 H        0.924     0.024     2.669     2.555
    72   1 H        0.924     0.042     2.425     2.435
    73   1 H        0.924     0.023     2.693     2.566
    74   1 H        0.924     0.048     2.349     2.397
    75   1 H        0.924     0.041     2.441     2.443
    76   1 H        0.925     0.064     2.149     2.293
    77   1 H        0.924     0.058     2.218     2.329
    78   1 H        0.925     0.076     2.020     2.222
    79   1 H        0.926     0.081     1.968     2.194
    80   1 H        0.926     0.080     1.982     2.202
    81   1 H        0.925     0.053     2.285     2.364
    82   1 H        0.926     0.063     2.158     2.297
    83   1 H        0.926     0.058     2.218     2.329
    84   1 H        0.924     0.066     2.127     2.281
    85   1 H        0.925     0.079     1.994     2.208
    86   1 H        0.924     0.067     2.118     2.276
    87   1 H        0.925     0.058     2.217     2.329
    88   1 H        0.924     0.089     1.891     2.151
    89   1 H        0.925     0.076     2.022     2.224
    90   1 H        0.802     0.371     0.543     1.157
    91   1 H        0.925     0.069     2.099     2.266
    92   1 H        0.924     0.068     2.112     2.273
    93   1 H        0.925     0.060     2.204     2.322
    94   1 H        0.924     0.048     2.349     2.397
    95   1 H        0.925     0.051     2.312     2.378
    96   1 H        0.924     0.031     2.569     2.506
    97   1 H        0.924     0.037     2.490     2.467
    98   1 H        0.924     0.017     2.774     2.605
    99   1 H        0.924     0.037     2.484     2.465
   100   1 H        0.924     0.030     2.580     2.512
   101   1 H        0.924     0.040     2.448     2.447
   102   1 H        0.924     0.029     2.595     2.519
   103   1 H        0.924     0.039     2.462     2.454
   104   1 H        0.924     0.022     2.703     2.571
   105   1 H        0.924     0.029     2.598     2.520
   106   1 H        0.924     0.018     2.758     2.597
   107   1 H        0.924     0.028     2.617     2.530
   108   1 H        0.924     0.032     2.551     2.498
   109   1 H        0.925     0.035     2.520     2.482
   110   1 H        0.925     0.036     2.497     2.471
   111   1 H        0.925     0.037     2.495     2.470
   112   1 H        0.926     0.084     1.943     2.180
   113   1 H        0.926     0.083     1.949     2.183
   114   1 H        0.925     0.072     2.068     2.249
   115   1 H        0.925     0.110     1.698     2.038
   116   1 H        0.925     0.079     1.992     2.207
   117   1 H        0.924     0.054     2.266     2.354
   118   1 H        0.924     0.088     1.897     2.154
   119   1 H        0.925     0.079     1.992     2.207
   120   1 H        0.804     0.342     0.607     1.224

Wiberg/Mayer (AO) data.
largest (>0.10) Wiberg bond orders for each atom

     #   Z sym  total        # sym  WBO       # sym  WBO       # sym  WBO
 ---------------------------------------------------------------------------
     1   6 C    3.997 --     2 C    1.020    60 H    0.988    59 H    0.987
                            58 H    0.986
     2   6 C    3.998 --     1 C    1.020     3 C    1.008    62 H    0.978
                            61 H    0.976
     3   6 C    3.997 --     2 C    1.008     4 C    1.008    64 H    0.977
                            63 H    0.976
     4   6 C    3.997 --     5 C    1.008     3 C    1.008    65 H    0.975
                            66 H    0.975
     5   6 C    3.997 --     4 C    1.008     6 C    1.008    67 H    0.974
                            68 H    0.974
     6   6 C    3.997 --     5 C    1.008     7 C    1.007    70 H    0.974
                            69 H    0.972
     7   6 C    3.996 --     8 C    1.007     6 C    1.007    72 H    0.974
                            71 H    0.974
     8   6 C    3.995 --     9 C    1.007     7 C    1.007    73 H    0.976
                            74 H    0.972
     9   6 C    3.987 --     8 C    1.007    10 C    0.990    75 H    0.972
                            76 H    0.964
    10   6 C    3.954 --     9 C    0.990    11 N    0.979    78 H    0.963
                            77 H    0.961
    11   7 N    3.572 --    20 C    1.192    12 C    1.145    10 C    0.979
    12   6 C    3.963 --    13 C    1.356    18 C    1.250    11 N    1.145
    13   6 C    3.967 --    14 C    1.414    12 C    1.356    79 H    0.956
    14   6 C    3.915 --    13 C    1.414    16 C    1.323    15 Cl   1.016
    15  17 Cl   1.164 --    14 C    1.016
    16   6 C    3.915 --    17 C    1.414    14 C    1.323    57 Cl   1.015
    17   6 C    3.967 --    16 C    1.414    18 C    1.358    80 H    0.957
    18   6 C    3.962 --    17 C    1.358    12 C    1.250    19 N    1.141
    19   7 N    3.582 --    20 C    1.204    18 C    1.141    51 C    0.981
    20   6 C    3.916 --    21 C    1.312    19 N    1.204    11 N    1.192
    21   6 C    3.932 --    22 C    1.424    20 C    1.312    81 H    0.947
    22   6 C    3.958 --    21 C    1.424    23 C    1.416    82 H    0.949
    23   6 C    3.935 --    22 C    1.416    24 C    1.322    83 H    0.942
    24   6 C    3.914 --    23 C    1.322    25 N    1.197    34 N    1.188
    25   7 N    3.573 --    24 C    1.197    32 C    1.134    26 C    0.983
    26   6 C    3.955 --    27 C    0.992    25 N    0.983    84 H    0.962
                            85 H    0.960
    27   6 C    3.987 --    28 C    1.007    26 C    0.992    86 H    0.973
                            87 H    0.973
    28   6 C    3.993 --    27 C    1.007    29 C    0.976    89 H    0.962
                            88 H    0.944
    29   6 C    3.917 --    30 O    1.692    31 O    1.210    28 C    0.976
    30   8 O    1.993 --    29 C    1.692    31 O    0.181
    31   8 O    2.242 --    29 C    1.210    90 H    0.805    30 O    0.181
    32   6 C    3.961 --    48 C    1.361    33 C    1.256    25 N    1.134
    33   6 C    3.964 --    45 C    1.357    32 C    1.256    34 N    1.145
    34   7 N    3.570 --    24 C    1.188    33 C    1.145    35 C    0.979
    35   6 C    3.954 --    36 C    0.991    34 N    0.979    92 H    0.964
                            91 H    0.956
    36   6 C    3.987 --    37 C    1.008    35 C    0.991    94 H    0.975
                            93 H    0.968
    37   6 C    3.995 --    36 C    1.008    38 C    1.008    96 H    0.974
                            95 H    0.971
    38   6 C    3.997 --    37 C    1.008    39 C    1.007    97 H    0.971
                            98 H    0.970
    39   6 C    3.996 --    40 C    1.008    38 C    1.007    99 H    0.974
                           100 H    0.973
    40   6 C    3.996 --    39 C    1.008    41 C    1.008   101 H    0.974
                           102 H    0.974
    41   6 C    3.997 --    40 C    1.008    42 C    1.007   103 H    0.975
                           104 H    0.973
    42   6 C    3.998 --    43 C    1.007    41 C    1.007   106 H    0.975
                           105 H    0.973
    43   6 C    3.998 --    44 C    1.020    42 C    1.007   107 H    0.978
                           108 H    0.976
    44   6 C    3.996 --    43 C    1.020   109 H    0.987   110 H    0.987
                           111 H    0.986
    45   6 C    3.966 --    46 C    1.413    33 C    1.357   112 H    0.959
    46   6 C    3.917 --    45 C    1.413    47 C    1.325    50 Cl   1.017
    47   6 C    3.915 --    48 C    1.411    46 C    1.325    49 Cl   1.015
    48   6 C    3.967 --    47 C    1.411    32 C    1.361   113 H    0.959
    49  17 Cl   1.163 --    47 C    1.015
    50  17 Cl   1.166 --    46 C    1.017
    51   6 C    3.947 --    52 C    0.990    19 N    0.981   114 H    0.964
                           115 H    0.945
    52   6 C    3.988 --    53 C    1.006    51 C    0.990   117 H    0.975
                           116 H    0.966
    53   6 C    3.992 --    52 C    1.006    54 C    0.979   119 H    0.964
                           118 H    0.939
    54   6 C    3.909 --    55 O    1.719    56 O    1.170    53 C    0.979
    55   8 O    2.034 --    54 C    1.719    56 O    0.174
    56   8 O    2.231 --    54 C    1.170   120 H    0.856    55 O    0.174
    57  17 Cl   1.162 --    16 C    1.015
    58   1 H    0.999 --     1 C    0.986
    59   1 H    0.999 --     1 C    0.987
    60   1 H    0.999 --     1 C    0.988
    61   1 H    0.999 --     2 C    0.976
    62   1 H    0.999 --     2 C    0.978
    63   1 H    0.999 --     3 C    0.976
    64   1 H    0.999 --     3 C    0.977
    65   1 H    0.999 --     4 C    0.975
    66   1 H    0.999 --     4 C    0.975
    67   1 H    0.999 --     5 C    0.974
    68   1 H    0.999 --     5 C    0.974
    69   1 H    0.999 --     6 C    0.972
    70   1 H    0.998 --     6 C    0.974
    71   1 H    0.999 --     7 C    0.974
    72   1 H    0.998 --     7 C    0.974
    73   1 H    0.999 --     8 C    0.976
    74   1 H    0.997 --     8 C    0.972
    75   1 H    0.998 --     9 C    0.972
    76   1 H    0.995 --     9 C    0.964
    77   1 H    0.995 --    10 C    0.961
    78   1 H    0.994 --    10 C    0.963
    79   1 H    0.993 --    13 C    0.956
    80   1 H    0.993 --    17 C    0.957
    81   1 H    0.996 --    21 C    0.947
    82   1 H    0.996 --    22 C    0.949
    83   1 H    0.996 --    23 C    0.942
    84   1 H    0.994 --    26 C    0.962
    85   1 H    0.993 --    26 C    0.960
    86   1 H    0.995 --    27 C    0.973
    87   1 H    0.996 --    27 C    0.973
    88   1 H    0.991 --    28 C    0.944
    89   1 H    0.994 --    28 C    0.962
    90   1 H    0.862 --    31 O    0.805
    91   1 H    0.994 --    35 C    0.956
    92   1 H    0.993 --    35 C    0.964
    93   1 H    0.995 --    36 C    0.968
    94   1 H    0.998 --    36 C    0.975
    95   1 H    0.997 --    37 C    0.971
    96   1 H    0.999 --    37 C    0.974
    97   1 H    0.999 --    38 C    0.971
    98   1 H    1.000 --    38 C    0.970
    99   1 H    0.999 --    39 C    0.974
   100   1 H    0.999 --    39 C    0.973
   101   1 H    0.998 --    40 C    0.974
   102   1 H    0.999 --    40 C    0.974
   103   1 H    0.998 --    41 C    0.975
   104   1 H    1.000 --    41 C    0.973
   105   1 H    0.999 --    42 C    0.973
   106   1 H    1.000 --    42 C    0.975
   107   1 H    0.999 --    43 C    0.978
   108   1 H    0.999 --    43 C    0.976
   109   1 H    0.999 --    44 C    0.987
   110   1 H    0.999 --    44 C    0.987
   111   1 H    0.999 --    44 C    0.986
   112   1 H    0.992 --    45 C    0.959
   113   1 H    0.993 --    48 C    0.959
   114   1 H    0.994 --    51 C    0.964
   115   1 H    0.987 --    51 C    0.945
   116   1 H    0.993 --    52 C    0.966
   117   1 H    0.997 --    52 C    0.975
   118   1 H    0.992 --    53 C    0.939
   119   1 H    0.994 --    53 C    0.964
   120   1 H    0.882 --    56 O    0.856
 ---------------------------------------------------------------------------

molecular dipole:
                 x           y           z       tot (Debye)
 q only:       -5.459      -5.324     -18.081
   full:       -5.342      -5.137     -18.589      50.865

           -------------------------------------------------
          | TOTAL ENERGY             -174.491363866117 Eh   |
          | GRADIENT NORM               0.000489896001 Eh/α |
          | HOMO-LUMO GAP               1.649652158901 eV   |
           -------------------------------------------------

 * finished run on 2024/12/20 at 07:01:33.143
