   * xtb version 6.7.1 (edcfbbe) compiled by 'conda@3ef47c1a292c' on 2024-11-25

   ID    Z sym.   atoms
    1    6 C      1-6, 8-10, 12-14, 16-21
    2    7 N      7, 15
    3   17 Cl     11, 24
    4    8 O      22, 23
    5    1 H      25-49

          program call               : xtb C0852.xyz --opt --namespace C0852 --charge +1
          :  Hamiltonian                  GFN2-xTB          :
 * total energy  :   -74.0682349 Eh     change       -0.3781139E-08 Eh
 * total energy  :   -74.0751295 Eh     change       -0.6894623E-02 Eh
 * total energy  :   -74.0768173 Eh     change       -0.1687750E-02 Eh
 * total energy  :   -74.0772389 Eh     change       -0.4215774E-03 Eh
 * total energy  :   -74.0777223 Eh     change       -0.4834074E-03 Eh
 * total energy  :   -74.0779739 Eh     change       -0.2516481E-03 Eh
 * total energy  :   -74.0783979 Eh     change       -0.4240281E-03 Eh
 * total energy  :   -74.0787388 Eh     change       -0.3408871E-03 Eh
 * total energy  :   -74.0791624 Eh     change       -0.4235356E-03 Eh
 * total energy  :   -74.0793937 Eh     change       -0.2312921E-03 Eh
 * total energy  :   -74.0845900 Eh     change       -0.1755736E-04 Eh
 * total energy  :   -74.0845980 Eh     change       -0.7997258E-05 Eh
 * total energy  :   -74.0846101 Eh     change       -0.1208293E-04 Eh
 * total energy  :   -74.0846283 Eh     change       -0.1819998E-04 Eh
 * total energy  :   -74.0846387 Eh     change       -0.1037079E-04 Eh
 * total energy  :   -74.0846460 Eh     change       -0.7282181E-05 Eh
 * total energy  :   -74.0846528 Eh     change       -0.6854072E-05 Eh
 * total energy  :   -74.0846589 Eh     change       -0.6070436E-05 Eh
 * total energy  :   -74.0846632 Eh     change       -0.4258340E-05 Eh
   *** GEOMETRY OPTIMIZATION CONVERGED AFTER 64 ITERATIONS ***

 final structure:
================
49
 xtb: 6.7.1 (edcfbbe)
C            1.87251164170969       -0.05886468864129        0.18271823731451
C            0.98661521896094       -0.59320901355301        1.30120571621691
C            1.16765606343672        0.14626672406318        2.62924302796740
C            0.85207321757835        1.64409195113249        2.57939247871404
C           -0.59348905467010        1.98259901224795        2.21398720811982
C           -1.61082874700995        1.62553315425458        3.30393563011879
N           -1.49422907455091        2.50525862130948        4.44667704223203
C           -1.90163720930818        3.82329987371665        4.44122106970215
C           -2.53528125479152        4.59346593710652        3.47499855928263
C           -2.82216783087648        5.90794300805401        3.79817352034812
Cl          -3.60528000543602        6.90310365619909        2.64465173752875
C           -2.48182199826619        6.44341056758362        5.06189954488505
C           -1.85992432163537        5.67237975728278        6.02798377313500
C           -1.57503478826140        4.35298214146572        5.70096371430031
N           -0.98943500500501        3.32932264968555        6.41952653214751
C           -0.95376637446766        2.23672769763292        5.64207365158996
C           -0.43587644960199        0.91356533435599        6.04825476838364
C           -0.50502713046824        3.44262700492006        7.77884134303898
C            1.01506844455639        3.63266770135867        7.84319449377651
C            1.47086141637533        5.02942748007975        7.40252733677225
C            0.98482177422265        6.09959876809870        8.35993309760900
O           -0.17685830310159        6.31489073842816        8.60239900119877
O            1.98289605408315        6.76803019314136        8.90730257426127
Cl          -2.85116064860538        8.07942492300542        5.40727146206049
H            1.58123167831061        0.94620394778879       -0.11196772060640
H            1.79190835773216       -0.69924840030055       -0.69139057525377
H            2.91370069831856       -0.04120010491168        0.49604602664686
H           -0.05888418435881       -0.55729441397561        0.98890213958656
H            1.23263499090506       -1.64309650214561        1.47200567335240
H            0.54649606026591       -0.34868191090696        3.38063043453292
H            2.20757202553569        0.03515626236591        2.94423520259538
H            1.09868140486596        2.09857614431895        3.54389404097071
H            1.50405213332038        2.10749576428592        1.83957946037891
H           -0.66379292538504        3.05090729875405        2.00318245792378
H           -0.87201414729846        1.44864140363391        1.30691347413676
H           -2.62404866827167        1.73237559980674        2.90910728294135
H           -1.47212665132267        0.59516999817154        3.62849909095931
H           -2.80811819893255        4.20266319844149        2.50952642982640
H           -1.60641781923267        6.09883978655803        6.98626611129251
H           -0.16158612624075        0.90508724646196        7.09810687347671
H           -1.19220017413136        0.14575518380158        5.88400143061727
H            0.44324165292652        0.64410902246636        5.46272364506362
H           -0.99553998488783        4.30283271704476        8.23680090824000
H           -0.79354101752846        2.54776171431311        8.33414955410760
H            1.33236332087520        3.46419780205365        8.87300339950204
H            1.51087588635816        2.88929925619328        7.21607481354215
H            2.55870005487568        5.07044662234899        7.37276843192799
H            1.08020704062779        5.25950651332910        6.40885198103577
H            1.67208895782937        7.45694265719229        9.51871391249611

          :  Hamiltonian                  GFN2-xTB          :
         :: total energy             -74.084663166150 Eh    ::
         :: gradient norm              0.000417273088 Eh/a0 ::
         :: HOMO-LUMO gap              2.766468568247 eV    ::
         :: SCC energy               -75.008636337785 Eh    ::
         :: -> dispersion             -0.052683265892 Eh    ::
         :: repulsion energy           0.923973171635 Eh    ::

    * Orbital Energies and Occupations

         #    Occupation            Energy/Eh            Energy/eV
      -------------------------------------------------------------
         1        2.0000           -1.1600099             -31.5655
       ...           ...                  ...                  ...
        54        2.0000           -0.5710474             -15.5390
        55        2.0000           -0.5657999             -15.3962
        56        2.0000           -0.5590113             -15.2115
        57        2.0000           -0.5543821             -15.0855
        58        2.0000           -0.5475784             -14.9004
        59        2.0000           -0.5306596             -14.4400
        60        2.0000           -0.5278661             -14.3640
        61        2.0000           -0.5272350             -14.3468
        62        2.0000           -0.5239516             -14.2574
        63        2.0000           -0.5232508             -14.2384
        64        2.0000           -0.5196274             -14.1398
        65        2.0000           -0.5140029             -13.9867
        66        2.0000           -0.5083549             -13.8330 (HOMO)
        67                         -0.4066890             -11.0666 (LUMO)
        68                         -0.3650080              -9.9324
        69                         -0.3542264              -9.6390
        70                         -0.3450515              -9.3893
        71                         -0.2519930              -6.8571
        72                         -0.2455038              -6.6805
        73                         -0.2376823              -6.4677
        74                         -0.1773075              -4.8248
        75                         -0.1272555              -3.4628
        76                         -0.0979689              -2.6659
        77                         -0.0938531              -2.5539
       ...                                ...                  ...
       131                          0.5331924              14.5089
      -------------------------------------------------------------
                  HL-Gap            0.1016658 Eh            2.7665 eV

     #   Z          covCN         q      C6AA      α(0)
     1   6 C        3.751    -0.109    22.638     6.785
     2   6 C        3.799    -0.057    21.602     6.618
     3   6 C        3.800    -0.063    21.701     6.633
     4   6 C        3.800    -0.064    21.723     6.636
     5   6 C        3.801    -0.072    21.873     6.659
     6   6 C        3.740    -0.022    21.048     6.546
     7   7 N        2.828     0.019    20.923     6.794
     8   6 C        3.100     0.034    27.121     8.534
     9   6 C        2.953    -0.052    29.293     8.877
    10   6 C        2.922     0.093    25.929     8.350
    11  17 Cl       1.005    -0.079   101.635    15.424
    12   6 C        2.922     0.094    25.913     8.348
    13   6 C        2.953    -0.057    29.408     8.895
    14   6 C        3.096     0.035    27.107     8.533
    15   7 N        2.828     0.018    20.933     6.795
    16   6 C        3.077     0.118    25.323     8.250
    17   6 C        3.755    -0.137    23.192     6.867
    18   6 C        3.740    -0.032    21.216     6.572
    19   6 C        3.802    -0.064    21.736     6.638
    20   6 C        3.802    -0.100    22.411     6.740
    21   6 C        2.689     0.364    20.821     7.468
    22   8 O        0.856    -0.422    22.129     6.307
    23   8 O        1.660    -0.348    19.863     6.017
    24  17 Cl       1.006    -0.077   101.570    15.419
    25   1 H        0.925     0.036     2.506     2.476
    26   1 H        0.925     0.046     2.374     2.410
    27   1 H        0.925     0.041     2.429     2.437
    28   1 H        0.924     0.031     2.571     2.507
    29   1 H        0.924     0.041     2.432     2.439
    30   1 H        0.924     0.020     2.729     2.584
    31   1 H        0.924     0.042     2.418     2.432
    32   1 H        0.924     0.018     2.761     2.599
    33   1 H        0.925     0.060     2.199     2.319
    34   1 H        0.924     0.051     2.305     2.374
    35   1 H        0.925     0.075     2.034     2.230
    36   1 H        0.924     0.080     1.979     2.200
    37   1 H        0.925     0.083     1.945     2.181
    38   1 H        0.926     0.097     1.814     2.106
    39   1 H        0.926     0.126     1.567     1.957
    40   1 H        0.925     0.093     1.854     2.129
    41   1 H        0.925     0.096     1.818     2.108
    42   1 H        0.925     0.106     1.730     2.057
    43   1 H        0.924     0.117     1.635     2.000
    44   1 H        0.924     0.078     1.995     2.209
    45   1 H        0.924     0.074     2.040     2.234
    46   1 H        0.924     0.061     2.193     2.316
    47   1 H        0.925     0.088     1.901     2.156
    48   1 H        0.924     0.071     2.075     2.252
    49   1 H        0.804     0.347     0.596     1.213

Wiberg/Mayer (AO) data.
largest (>0.10) Wiberg bond orders for each atom

     #   Z sym  total        # sym  WBO       # sym  WBO       # sym  WBO
 ---------------------------------------------------------------------------
     1   6 C    3.995 --     2 C    1.021    27 H    0.987    26 H    0.986
                            25 H    0.986
     2   6 C    3.996 --     1 C    1.021     3 C    1.007    29 H    0.977
                            28 H    0.975
     3   6 C    3.996 --     4 C    1.007     2 C    1.007    31 H    0.976
                            30 H    0.972
     4   6 C    3.994 --     5 C    1.008     3 C    1.007    32 H    0.976
                            33 H    0.970
     5   6 C    3.984 --     4 C    1.008     6 C    0.986    34 H    0.973
                            35 H    0.964
     6   6 C    3.940 --     5 C    0.986     7 N    0.968    36 H    0.962
                            37 H    0.961
     7   7 N    3.664 --    16 C    1.328     8 C    1.130     6 C    0.968
     8   6 C    3.960 --     9 C    1.338    14 C    1.270     7 N    1.130
     9   6 C    3.979 --    10 C    1.443     8 C    1.338    38 H    0.957
                            13 C    0.104
    10   6 C    3.936 --     9 C    1.443    12 C    1.285    11 Cl   1.041
    11  17 Cl   1.206 --    10 C    1.041
    12   6 C    3.937 --    13 C    1.443    10 C    1.285    24 Cl   1.042
    13   6 C    3.972 --    12 C    1.443    14 C    1.338    39 H    0.940
                             9 C    0.104
    14   6 C    3.959 --    13 C    1.338     8 C    1.270    15 N    1.129
    15   7 N    3.661 --    16 C    1.322    14 C    1.129    18 C    0.971
    16   6 C    3.942 --     7 N    1.328    15 N    1.322    17 C    1.046
    17   6 C    3.976 --    16 C    1.046    40 H    0.969    41 H    0.952
                            42 H    0.943
    18   6 C    3.938 --    19 C    0.993    15 N    0.971    44 H    0.959
                            43 H    0.950
    19   6 C    3.989 --    20 C    0.994    18 C    0.993    46 H    0.972
                            45 H    0.971
    20   6 C    3.992 --    19 C    0.994    47 H    0.971    21 C    0.969
                            48 H    0.956
    21   6 C    3.915 --    22 O    1.730    23 O    1.184    20 C    0.969
    22   8 O    2.032 --    21 C    1.730    23 O    0.181
    23   8 O    2.248 --    21 C    1.184    49 H    0.853    22 O    0.181
    24  17 Cl   1.209 --    12 C    1.042
    25   1 H    0.999 --     1 C    0.986
    26   1 H    0.998 --     1 C    0.986
    27   1 H    0.998 --     1 C    0.987
    28   1 H    0.999 --     2 C    0.975
    29   1 H    0.998 --     2 C    0.977
    30   1 H    1.000 --     3 C    0.972
    31   1 H    0.998 --     3 C    0.976
    32   1 H    1.000 --     4 C    0.976
    33   1 H    0.996 --     4 C    0.970
    34   1 H    0.997 --     5 C    0.973
    35   1 H    0.993 --     5 C    0.964
    36   1 H    0.993 --     6 C    0.962
    37   1 H    0.992 --     6 C    0.961
    38   1 H    0.990 --     9 C    0.957
    39   1 H    0.984 --    13 C    0.940
    40   1 H    0.991 --    17 C    0.969
    41   1 H    0.988 --    17 C    0.952
    42   1 H    0.985 --    17 C    0.943
    43   1 H    0.986 --    18 C    0.950
    44   1 H    0.993 --    18 C    0.959
    45   1 H    0.994 --    19 C    0.971
    46   1 H    0.996 --    19 C    0.972
    47   1 H    0.992 --    20 C    0.971
    48   1 H    0.995 --    20 C    0.956
    49   1 H    0.880 --    23 O    0.853
 ---------------------------------------------------------------------------

molecular dipole:
                 x           y           z       tot (Debye)
 q only:       -0.579       4.654      10.316
   full:       -0.875       5.278      10.309      29.522

           -------------------------------------------------
          | TOTAL ENERGY              -74.084663166150 Eh   |
          | GRADIENT NORM               0.000417273088 Eh/α |
          | HOMO-LUMO GAP               2.766468568247 eV   |
           -------------------------------------------------

 * finished run on 2024/12/20 at 07:01:00.471
