   * xtb version 6.7.1 (edcfbbe) compiled by 'conda@3ef47c1a292c' on 2024-11-25

   ID    Z sym.   atoms
    1    6 C      1, 3-12
    2    7 N      2
    3    1 H      13-30

          program call               : xtb C0858.xyz --opt --namespace C0858 --charge +1
          :  Hamiltonian                  GFN2-xTB          :
 * total energy  :   -35.2349247 Eh     change       -0.4634728E-09 Eh
 * total energy  :   -35.2417031 Eh     change       -0.6778405E-02 Eh
 * total energy  :   -35.2433639 Eh     change       -0.1660801E-02 Eh
 * total energy  :   -35.2435362 Eh     change       -0.1722516E-03 Eh
 * total energy  :   -35.2436990 Eh     change       -0.1628076E-03 Eh
 * total energy  :   -35.2436076 Eh     change        0.9136930E-04 Eh
 * total energy  :   -35.2437605 Eh     change       -0.1528445E-03 Eh
 * total energy  :   -35.2438058 Eh     change       -0.4531375E-04 Eh
 * total energy  :   -35.2438978 Eh     change       -0.9201320E-04 Eh
 * total energy  :   -35.2439266 Eh     change       -0.2883918E-04 Eh
 * total energy  :   -35.2439936 Eh     change       -0.2521174E-04 Eh
 * total energy  :   -35.2440177 Eh     change       -0.2413679E-04 Eh
 * total energy  :   -35.2440372 Eh     change       -0.1948069E-04 Eh
 * total energy  :   -35.2440575 Eh     change       -0.2031928E-04 Eh
 * total energy  :   -35.2440825 Eh     change       -0.2495960E-04 Eh
 * total energy  :   -35.2440984 Eh     change       -0.1590169E-04 Eh
 * total energy  :   -35.2441062 Eh     change       -0.7821212E-05 Eh
 * total energy  :   -35.2441115 Eh     change       -0.5362019E-05 Eh
 * total energy  :   -35.2441153 Eh     change       -0.3736249E-05 Eh
   *** GEOMETRY OPTIMIZATION CONVERGED AFTER 21 ITERATIONS ***

 final structure:
================
30
 xtb: 6.7.1 (edcfbbe)
C            1.24382912367623       -0.41055963056834        0.06770571068463
N            0.59288733790456        0.33634136660842       -1.02286156788992
C            0.68578456380688       -0.40823293147329       -2.31898078077639
C            0.25039549783671       -1.87751575059155       -2.31193402608657
C           -1.22396734649340       -2.10911351018337       -2.08934975447032
C           -2.15012483276462       -1.66797242898453       -3.02809006840600
C           -3.50269546944858       -1.88444083880811       -2.83566142879843
C           -3.94618444166507       -2.54841410108646       -1.70369505392150
C           -3.03133828699660       -3.00358187064674       -0.77022615562193
C           -1.67725700565584       -2.78516656753048       -0.96241306255106
C           -0.81177017798373        0.60010082421096       -0.66053839605071
C            1.28455739757168        1.62977820444114       -1.19239462409091
H            0.66891267497620       -1.30052039486033        0.31107637370092
H            1.30469465630192        0.21250614978561        0.95832690356771
H            2.25156797635565       -0.70163294322155       -0.22392969546245
H            0.08421096309684        0.13787738837234       -3.04826244301261
H            1.73038290974886       -0.36725013849760       -2.63619251352735
H            0.50781514190437       -2.25922006044655       -3.30366586763184
H            0.83358690457186       -2.45392009564961       -1.59413181382410
H           -1.81058108262486       -1.17031238733936       -3.92511043475425
H           -4.21023332462106       -1.54531056065771       -3.57587421076468
H           -5.00003978437200       -2.72315713998124       -1.55734408759539
H           -3.36823185870120       -3.53621154441665        0.10504958156619
H           -0.96918605904589       -3.16472666692546       -0.23814577564830
H           -0.85537793661798        1.15339622549170        0.27596001250029
H           -1.29670923099931        1.18775014839627       -1.43773747642450
H           -1.35461535361101       -0.33673839619428       -0.54663738551290
H            1.18360646328205        2.22977430712686       -0.28972006583182
H            2.34397093284151        1.47280948721223       -1.38768172655819
H            0.85372964772531        2.18238385641751       -2.02543016680402

          :  Hamiltonian                  GFN2-xTB          :
         :: total energy             -35.244115283093 Eh    ::
         :: gradient norm              0.000420015100 Eh/a0 ::
         :: HOMO-LUMO gap              4.744750755784 eV    ::
         :: SCC energy               -35.826817585873 Eh    ::
         :: -> dispersion             -0.025169267798 Eh    ::
         :: repulsion energy           0.582702302779 Eh    ::

    * Orbital Energies and Occupations

         #    Occupation            Energy/Eh            Energy/eV
      -------------------------------------------------------------
         1        2.0000           -0.8687581             -23.6401
       ...           ...                  ...                  ...
        21        2.0000           -0.6431003             -17.4996
        22        2.0000           -0.6388866             -17.3850
        23        2.0000           -0.6305404             -17.1579
        24        2.0000           -0.6198739             -16.8676
        25        2.0000           -0.6074403             -16.5293
        26        2.0000           -0.5919408             -16.1075
        27        2.0000           -0.5884555             -16.0127
        28        2.0000           -0.5860241             -15.9465
        29        2.0000           -0.5829430             -15.8627
        30        2.0000           -0.5363596             -14.5951
        31        2.0000           -0.5325399             -14.4911
        32        2.0000           -0.5175138             -14.0823
        33        2.0000           -0.5136266             -13.9765 (HOMO)
        34                         -0.3392602              -9.2317 (LUMO)
        35                         -0.3360068              -9.1432
        36                         -0.2285612              -6.2195
        37                         -0.2091654              -5.6917
        38                         -0.1592487              -4.3334
        39                         -0.1490633              -4.0562
        40                         -0.1436113              -3.9079
        41                         -0.0693191              -1.8863
        42                         -0.0508760              -1.3844
        43                         -0.0297455              -0.8094
        44                         -0.0010350              -0.0282
       ...                                ...                  ...
        66                          0.5506114              14.9829
      -------------------------------------------------------------
                  HL-Gap            0.1743664 Eh            4.7448 eV

     #   Z          covCN         q      C6AA      α(0)
     1   6 C        3.721    -0.097    22.465     6.769
     2   7 N        3.622     0.145    18.784     6.437
     3   6 C        3.760    -0.040    21.329     6.584
     4   6 C        3.806    -0.080    22.023     6.681
     5   6 C        2.968    -0.003    28.100     8.695
     6   6 C        2.924    -0.043    29.057     8.840
     7   6 C        2.919    -0.025    28.625     8.774
     8   6 C        2.920    -0.024    28.614     8.772
     9   6 C        2.919    -0.027    28.669     8.780
    10   6 C        2.923    -0.045    29.128     8.851
    11   6 C        3.722    -0.100    22.526     6.778
    12   6 C        3.730    -0.098    22.478     6.768
    13   1 H        0.925     0.106     1.730     2.057
    14   1 H        0.925     0.098     1.804     2.100
    15   1 H        0.925     0.098     1.800     2.098
    16   1 H        0.924     0.088     1.897     2.154
    17   1 H        0.924     0.084     1.942     2.179
    18   1 H        0.924     0.083     1.953     2.186
    19   1 H        0.925     0.062     2.180     2.309
    20   1 H        0.926     0.034     2.524     2.484
    21   1 H        0.926     0.052     2.301     2.372
    22   1 H        0.926     0.054     2.266     2.354
    23   1 H        0.926     0.051     2.313     2.378
    24   1 H        0.925     0.029     2.607     2.525
    25   1 H        0.925     0.096     1.819     2.109
    26   1 H        0.925     0.096     1.826     2.113
    27   1 H        0.925     0.109     1.706     2.042
    28   1 H        0.925     0.101     1.780     2.087
    29   1 H        0.925     0.099     1.796     2.096
    30   1 H        0.925     0.099     1.795     2.095

Wiberg/Mayer (AO) data.
largest (>0.10) Wiberg bond orders for each atom

     #   Z sym  total        # sym  WBO       # sym  WBO       # sym  WBO
 ---------------------------------------------------------------------------
     1   6 C    3.926 --    15 H    0.975    14 H    0.975    13 H    0.970
                             2 N    0.958
     2   7 N    3.816 --     1 C    0.958    12 C    0.958    11 C    0.957
                             3 C    0.921
     3   6 C    3.928 --     4 C    0.998    17 H    0.968    16 H    0.966
                             2 N    0.921
     4   6 C    3.982 --     5 C    1.004     3 C    0.998    19 H    0.969
                            18 H    0.953
     5   6 C    3.986 --    10 C    1.411     6 C    1.408     4 C    1.004
                             8 C    0.110
     6   6 C    3.992 --     7 C    1.449     5 C    1.408    20 H    0.968
                             9 C    0.112
     7   6 C    3.991 --     6 C    1.449     8 C    1.435    21 H    0.969
                            10 C    0.110
     8   6 C    3.990 --     9 C    1.443     7 C    1.435    22 H    0.969
                             5 C    0.110
     9   6 C    3.991 --     8 C    1.443    10 C    1.438    23 H    0.970
                             6 C    0.112
    10   6 C    3.991 --     9 C    1.438     5 C    1.411    24 H    0.967
                             7 C    0.110
    11   6 C    3.923 --    26 H    0.976    25 H    0.975    27 H    0.961
                             2 N    0.957
    12   6 C    3.928 --    30 H    0.975    29 H    0.975    28 H    0.974
                             2 N    0.958
    13   1 H    0.989 --     1 C    0.970
    14   1 H    0.990 --     1 C    0.975
    15   1 H    0.990 --     1 C    0.975
    16   1 H    0.992 --     3 C    0.966
    17   1 H    0.992 --     3 C    0.968
    18   1 H    0.993 --     4 C    0.953
    19   1 H    0.996 --     4 C    0.969
    20   1 H    0.999 --     6 C    0.968
    21   1 H    0.997 --     7 C    0.969
    22   1 H    0.996 --     8 C    0.969
    23   1 H    0.997 --     9 C    0.970
    24   1 H    0.999 --    10 C    0.967
    25   1 H    0.991 --    11 C    0.975
    26   1 H    0.991 --    11 C    0.976
    27   1 H    0.988 --    11 C    0.961
    28   1 H    0.989 --    12 C    0.974
    29   1 H    0.990 --    12 C    0.975
    30   1 H    0.990 --    12 C    0.975
 ---------------------------------------------------------------------------

molecular dipole:
                 x           y           z       tot (Debye)
 q only:        0.581       0.230      -2.042
   full:        0.644       0.253      -2.087       5.588

           -------------------------------------------------
          | TOTAL ENERGY              -35.244115283093 Eh   |
          | GRADIENT NORM               0.000420015100 Eh/α |
          | HOMO-LUMO GAP               4.744750755784 eV   |
           -------------------------------------------------

 * finished run on 2024/12/20 at 07:01:33.935
