   * xtb version 6.7.1 (edcfbbe) compiled by 'conda@3ef47c1a292c' on 2024-11-25

   ID    Z sym.   atoms
    1    8 O      1, 9, 10
    2    6 C      2-8, 11, 13-15
    3    7 N      12
    4    1 H      16-33

          program call               : xtb C0855.xyz --opt --namespace C0855 --charge +1
          :  Hamiltonian                  GFN2-xTB          :
 * total energy  :   -47.4425949 Eh     change       -0.2430454E-08 Eh
 * total energy  :   -47.4515006 Eh     change       -0.8905711E-02 Eh
 * total energy  :   -47.4539382 Eh     change       -0.2437553E-02 Eh
 * total energy  :   -47.4542024 Eh     change       -0.2641523E-03 Eh
 * total energy  :   -47.4544316 Eh     change       -0.2292344E-03 Eh
 * total energy  :   -47.4545345 Eh     change       -0.1029570E-03 Eh
 * total energy  :   -47.4546732 Eh     change       -0.1386633E-03 Eh
 * total energy  :   -47.4547763 Eh     change       -0.1031178E-03 Eh
 * total energy  :   -47.4548538 Eh     change       -0.7750634E-04 Eh
 * total energy  :   -47.4549265 Eh     change       -0.7262551E-04 Eh
 * total energy  :   -47.4563861 Eh     change       -0.2618917E-04 Eh
 * total energy  :   -47.4564050 Eh     change       -0.1884675E-04 Eh
 * total energy  :   -47.4564174 Eh     change       -0.1242442E-04 Eh
 * total energy  :   -47.4564258 Eh     change       -0.8385504E-05 Eh
 * total energy  :   -47.4564321 Eh     change       -0.6302664E-05 Eh
 * total energy  :   -47.4564378 Eh     change       -0.5703546E-05 Eh
 * total energy  :   -47.4564435 Eh     change       -0.5777114E-05 Eh
 * total energy  :   -47.4564489 Eh     change       -0.5311614E-05 Eh
 * total energy  :   -47.4564531 Eh     change       -0.4266599E-05 Eh
   *** GEOMETRY OPTIMIZATION CONVERGED AFTER 57 ITERATIONS ***

 final structure:
================
33
 xtb: 6.7.1 (edcfbbe)
O            0.55555913893628       -0.11223580468278       -0.15268074018504
C            0.29462223324472       -0.87238297984576        1.01031219343613
C            0.92428366113919       -2.24768121598208        0.96356910654471
C            2.22645286579474       -2.39841203269300        0.50980959375603
C            2.81176803886717       -3.64994139270576        0.45919761676589
C            2.10566233770396       -4.77255456633312        0.86537995352611
C            0.78221033997261       -4.62115589021823        1.32246433596697
C            0.20386571912108       -3.36734432679949        1.36928151697047
O            0.14086729533640       -5.76329620688579        1.69978849941520
O            2.68019128084205       -5.98441282100802        0.81740666165100
C            0.87525887703576       -0.14150595393040        2.23945548917014
N            0.52738145791672        1.30551911910752        2.38488321398407
C           -0.89027102238567        1.54653760778801        2.06454250577906
C            0.78519432538339        1.71037356950156        3.77945249562058
C            1.36948862467675        2.12300273627203        1.48922625700415
H            0.61473090354133       -0.70513099488913       -0.91020474003151
H           -0.79423927552310       -0.98645666585688        1.12974431522930
H            2.78690419412807       -1.53662318027644        0.17931173157112
H            3.82032405064335       -3.77992563879245        0.10434782999227
H           -0.81592661455042       -3.26310857762242        1.71527044008413
H           -0.76666018064262       -5.57840091345899        1.96442736380140
H            2.04805088725005       -6.65162613260958        1.12245767342430
H            0.52318800865274       -0.67530805386267        3.12376265921851
H            1.96322720240194       -0.21859409082384        2.19857514605339
H           -1.52686238001713        0.89265620760811        2.65779827680464
H           -1.14853585272685        2.58059194228302        2.28532226781094
H           -1.06283644378800        1.36174487043303        1.00636342653438
H            1.81102851293998        1.47407900648378        4.05704980562628
H            0.63290035437211        2.78282049533655        3.89003568167092
H            0.11042791746812        1.19151716602965        4.45824852533276
H            2.41400375676870        2.04543150469499        1.78406961658276
H            1.26077198404723        1.76526071889907        0.46721226256272
H            1.06526780145293        3.16628249483787        1.54263901832884

          :  Hamiltonian                  GFN2-xTB          :
         :: total energy             -47.456453127447 Eh    ::
         :: gradient norm              0.000152349383 Eh/a0 ::
         :: HOMO-LUMO gap              3.966820997687 eV    ::
         :: SCC energy               -48.057909120290 Eh    ::
         :: -> dispersion             -0.027858817316 Eh    ::
         :: repulsion energy           0.601455992843 Eh    ::

    * Orbital Energies and Occupations

         #    Occupation            Energy/Eh            Energy/eV
      -------------------------------------------------------------
         1        2.0000           -0.8607905             -23.4233
       ...           ...                  ...                  ...
        30        2.0000           -0.6304765             -17.1561
        31        2.0000           -0.6245868             -16.9959
        32        2.0000           -0.6129941             -16.6804
        33        2.0000           -0.5994657             -16.3123
        34        2.0000           -0.5968258             -16.2405
        35        2.0000           -0.5939870             -16.1632
        36        2.0000           -0.5794427             -15.7674
        37        2.0000           -0.5671953             -15.4342
        38        2.0000           -0.5573215             -15.1655
        39        2.0000           -0.5506670             -14.9844
        40        2.0000           -0.5337272             -14.5235
        41        2.0000           -0.5048960             -13.7389
        42        2.0000           -0.4761658             -12.9571 (HOMO)
        43                         -0.3303878              -8.9903 (LUMO)
        44                         -0.3243445              -8.8259
        45                         -0.2233989              -6.0790
        46                         -0.1977565              -5.3812
        47                         -0.1514266              -4.1205
        48                         -0.1427467              -3.8843
        49                         -0.1365233              -3.7150
        50                         -0.0953658              -2.5950
        51                         -0.0593082              -1.6139
        52                         -0.0438004              -1.1919
        53                         -0.0435318              -1.1846
       ...                                ...                  ...
        78                          0.5485899              14.9279
      -------------------------------------------------------------
                  HL-Gap            0.1457780 Eh            3.9668 eV

     #   Z          covCN         q      C6AA      α(0)
     1   8 O        1.655    -0.451    21.857     6.311
     2   6 C        3.728     0.109    18.882     6.204
     3   6 C        2.975    -0.039    28.973     8.829
     4   6 C        2.922    -0.052    29.296     8.876
     5   6 C        2.918    -0.057    29.428     8.896
     6   6 C        2.845     0.140    24.945     8.185
     7   6 C        2.844     0.114    25.472     8.271
     8   6 C        2.919    -0.084    30.097     8.996
     9   8 O        1.660    -0.389    20.634     6.132
    10   8 O        1.660    -0.356    20.023     6.041
    11   6 C        3.767    -0.047    21.457     6.602
    12   7 N        3.622     0.151    18.684     6.420
    13   6 C        3.721    -0.099    22.514     6.777
    14   6 C        3.727    -0.099    22.503     6.773
    15   6 C        3.723    -0.106    22.647     6.796
    16   1 H        0.805     0.314     0.679     1.295
    17   1 H        0.923     0.038     2.477     2.461
    18   1 H        0.926     0.049     2.338     2.391
    19   1 H        0.926     0.077     2.015     2.220
    20   1 H        0.925     0.035     2.522     2.484
    21   1 H        0.805     0.311     0.688     1.303
    22   1 H        0.805     0.333     0.629     1.245
    23   1 H        0.924     0.084     1.943     2.180
    24   1 H        0.924     0.098     1.807     2.102
    25   1 H        0.925     0.093     1.846     2.125
    26   1 H        0.925     0.097     1.809     2.103
    27   1 H        0.925     0.118     1.633     1.998
    28   1 H        0.925     0.099     1.797     2.097
    29   1 H        0.925     0.102     1.768     2.080
    30   1 H        0.925     0.096     1.818     2.108
    31   1 H        0.925     0.095     1.836     2.119
    32   1 H        0.925     0.134     1.508     1.921
    33   1 H        0.925     0.095     1.833     2.117

Wiberg/Mayer (AO) data.
largest (>0.10) Wiberg bond orders for each atom

     #   Z sym  total        # sym  WBO       # sym  WBO       # sym  WBO
 ---------------------------------------------------------------------------
     1   8 O    1.962 --     2 C    0.988    16 H    0.880
     2   6 C    3.953 --     1 O    0.988     3 C    0.978    11 C    0.977
                            17 H    0.955
     3   6 C    3.976 --     4 C    1.416     8 C    1.382     2 C    0.978
     4   6 C    3.990 --     5 C    1.434     3 C    1.416    18 H    0.967
     5   6 C    3.986 --     4 C    1.434     6 C    1.381    19 H    0.964
     6   6 C    3.950 --     5 C    1.381     7 C    1.271    10 O    1.124
     7   6 C    3.940 --     8 C    1.414     6 C    1.271     9 O    1.069
     8   6 C    3.984 --     7 C    1.414     3 C    1.382    20 H    0.964
     9   8 O    2.124 --     7 C    1.069    21 H    0.882
    10   8 O    2.175 --     6 C    1.124    22 H    0.865
    11   6 C    3.932 --     2 C    0.977    23 H    0.969    24 H    0.964
                            12 N    0.929
    12   7 N    3.818 --    14 C    0.959    13 C    0.957    15 C    0.952
                            11 C    0.929
    13   6 C    3.925 --    25 H    0.976    26 H    0.975    27 H    0.970
                            12 N    0.957
    14   6 C    3.929 --    28 H    0.976    30 H    0.976    29 H    0.974
                            12 N    0.959
    15   6 C    3.915 --    31 H    0.976    33 H    0.976    32 H    0.959
                            12 N    0.952
    16   1 H    0.901 --     1 O    0.880
    17   1 H    0.998 --     2 C    0.955
    18   1 H    0.998 --     4 C    0.967
    19   1 H    0.994 --     5 C    0.964
    20   1 H    0.999 --     8 C    0.964
    21   1 H    0.903 --     9 O    0.882
    22   1 H    0.889 --    10 O    0.865
    23   1 H    0.993 --    11 C    0.969
    24   1 H    0.990 --    11 C    0.964
    25   1 H    0.991 --    13 C    0.976
    26   1 H    0.990 --    13 C    0.975
    27   1 H    0.986 --    13 C    0.970
    28   1 H    0.990 --    14 C    0.976
    29   1 H    0.989 --    14 C    0.974
    30   1 H    0.991 --    14 C    0.976
    31   1 H    0.991 --    15 C    0.976
    32   1 H    0.982 --    15 C    0.959
    33   1 H    0.991 --    15 C    0.976
 ---------------------------------------------------------------------------

molecular dipole:
                 x           y           z       tot (Debye)
 q only:        0.646       0.934       4.340
   full:        0.213       0.787       4.490      11.598

           -------------------------------------------------
          | TOTAL ENERGY              -47.456453127447 Eh   |
          | GRADIENT NORM               0.000152349383 Eh/α |
          | HOMO-LUMO GAP               3.966820997687 eV   |
           -------------------------------------------------

 * finished run on 2024/12/20 at 07:01:04.327
