   * xtb version 6.7.1 (edcfbbe) compiled by 'conda@3ef47c1a292c' on 2024-11-25

   ID    Z sym.   atoms
    1    6 C      1, 2, 4, 6-13
    2    7 N      3, 5
    3    1 H      14-28

          program call               : xtb C0850.xyz --opt --namespace C0850 --charge +1
          :  Hamiltonian                  GFN2-xTB          :
 * total energy  :   -36.6972240 Eh     change       -0.2894680E-09 Eh
 * total energy  :   -36.7006580 Eh     change       -0.3433958E-02 Eh
 * total energy  :   -36.7010989 Eh     change       -0.4409236E-03 Eh
 * total energy  :   -36.7011605 Eh     change       -0.6154981E-04 Eh
 * total energy  :   -36.7012494 Eh     change       -0.8891683E-04 Eh
 * total energy  :   -36.7012938 Eh     change       -0.4441968E-04 Eh
 * total energy  :   -36.7013700 Eh     change       -0.7621290E-04 Eh
 * total energy  :   -36.7015015 Eh     change       -0.1314742E-03 Eh
 * total energy  :   -36.7016650 Eh     change       -0.1634870E-03 Eh
 * total energy  :   -36.7018188 Eh     change       -0.1538134E-03 Eh
 * total energy  :   -36.7027925 Eh     change       -0.4011688E-04 Eh
 * total energy  :   -36.7028232 Eh     change       -0.3065149E-04 Eh
 * total energy  :   -36.7028383 Eh     change       -0.1517006E-04 Eh
 * total energy  :   -36.7028495 Eh     change       -0.1116642E-04 Eh
 * total energy  :   -36.7028560 Eh     change       -0.6508571E-05 Eh
 * total energy  :   -36.7028619 Eh     change       -0.5863757E-05 Eh
 * total energy  :   -36.7028684 Eh     change       -0.6502744E-05 Eh
 * total energy  :   -36.7028735 Eh     change       -0.5173319E-05 Eh
 * total energy  :   -36.7028755 Eh     change       -0.1903362E-05 Eh
   *** GEOMETRY OPTIMIZATION CONVERGED AFTER 33 ITERATIONS ***

 final structure:
================
28
 xtb: 6.7.1 (edcfbbe)
C            1.26682690002522        0.76299118226515        0.20897353120766
C            0.16832247500936        0.85671399830060       -0.84557813374192
N            0.72885355172333        0.83094949762672       -2.17897880933531
C            0.85903324359840       -0.23622765366458       -2.95892322839252
N            1.45967538625852        0.06713616667511       -4.10399580691850
C            1.75819685467632        1.41387292027868       -4.07580778945325
C            1.29039519329713        1.90360656862940       -2.84058313958621
C            1.43067694593659        3.24306921363277       -2.49515007868639
C            2.04711465871951        4.06357335174869       -3.41622885422544
C            2.50965428451419        3.57770511249438       -4.64363822004651
C            2.37541293051006        2.25178575232422       -4.99782680404033
C            1.81122031480441       -0.85599294266032       -5.16081664461866
C            3.26992823332336       -1.28715095953805       -5.04350946047745
H            1.80664168778031       -0.17686165894787        0.12229037606583
H            0.82223492210771        0.81279212687703        1.19811705756548
H            1.97384386733887        1.58236000580449        0.10713915017330
H           -0.52454299508879        0.01871352325689       -0.74729458691007
H           -0.39032100686795        1.78809809075733       -0.73055331455371
H            0.50913012891004       -1.21892633443443       -2.70188167192513
H            1.07512691173040        3.62632881766078       -1.55300633319338
H            2.17675260651686        5.10919393797908       -3.18729918596496
H            2.98287550090523        4.26142370398183       -5.33003540530180
H            2.73209636016045        1.88644042936920       -5.94663498139736
H            1.15247927184920       -1.72371234576402       -5.09260192193977
H            1.63785806922571       -0.35902396381245       -6.11769197233618
H            3.44531261642773       -1.80592426095439       -4.10421168900295
H            3.51323106541758       -1.96205312598104       -5.85835159868638
H            3.93419002119076       -0.42848115390324       -5.09706048427815

          :  Hamiltonian                  GFN2-xTB          :
         :: total energy             -36.702875453396 Eh    ::
         :: gradient norm              0.000225607330 Eh/a0 ::
         :: HOMO-LUMO gap              3.530674574321 eV    ::
         :: SCC energy               -37.311504040468 Eh    ::
         :: -> dispersion             -0.024084274891 Eh    ::
         :: repulsion energy           0.608628587072 Eh    ::

    * Orbital Energies and Occupations

         #    Occupation            Energy/Eh            Energy/eV
      -------------------------------------------------------------
         1        2.0000           -0.8826829             -24.0190
       ...           ...                  ...                  ...
        22        2.0000           -0.6344224             -17.2635
        23        2.0000           -0.6338372             -17.2476
        24        2.0000           -0.6325757             -17.2133
        25        2.0000           -0.6143310             -16.7168
        26        2.0000           -0.6002117             -16.3326
        27        2.0000           -0.5984190             -16.2838
        28        2.0000           -0.5970030             -16.2453
        29        2.0000           -0.5878724             -15.9968
        30        2.0000           -0.5870805             -15.9753
        31        2.0000           -0.5814182             -15.8212
        32        2.0000           -0.5743803             -15.6297
        33        2.0000           -0.5566321             -15.1467
        34        2.0000           -0.5469743             -14.8839 (HOMO)
        35                         -0.4172244             -11.3533 (LUMO)
        36                         -0.3666131              -9.9760
        37                         -0.3582920              -9.7496
        38                         -0.2407950              -6.5524
        39                         -0.1805750              -4.9137
        40                         -0.1331165              -3.6223
        41                         -0.0743130              -2.0222
        42                         -0.0404671              -1.1012
        43                         -0.0330979              -0.9006
        44                         -0.0289482              -0.7877
        45                         -0.0181896              -0.4950
       ...                                ...                  ...
        67                          0.5364100              14.5965
      -------------------------------------------------------------
                  HL-Gap            0.1297499 Eh            3.5307 eV

     #   Z          covCN         q      C6AA      α(0)
     1   6 C        3.753    -0.122    22.904     6.825
     2   6 C        3.740    -0.016    20.931     6.528
     3   7 N        2.827     0.034    20.656     6.750
     4   6 C        3.075     0.065    26.464     8.434
     5   7 N        2.827     0.034    20.655     6.750
     6   6 C        3.122     0.040    26.921     8.497
     7   6 C        3.122     0.040    26.922     8.497
     8   6 C        2.908    -0.032    28.798     8.799
     9   6 C        2.925    -0.017    28.442     8.746
    10   6 C        2.925    -0.017    28.442     8.746
    11   6 C        2.908    -0.032    28.798     8.799
    12   6 C        3.740    -0.015    20.930     6.528
    13   6 C        3.753    -0.122    22.904     6.825
    14   1 H        0.925     0.061     2.188     2.313
    15   1 H        0.925     0.082     1.963     2.191
    16   1 H        0.925     0.065     2.144     2.290
    17   1 H        0.924     0.079     1.985     2.203
    18   1 H        0.924     0.087     1.904     2.158
    19   1 H        0.926     0.104     1.744     2.065
    20   1 H        0.926     0.073     2.053     2.240
    21   1 H        0.926     0.081     1.966     2.193
    22   1 H        0.926     0.081     1.967     2.193
    23   1 H        0.926     0.073     2.052     2.240
    24   1 H        0.924     0.079     1.986     2.204
    25   1 H        0.924     0.087     1.905     2.158
    26   1 H        0.925     0.061     2.188     2.313
    27   1 H        0.925     0.082     1.963     2.191
    28   1 H        0.925     0.065     2.143     2.289

Wiberg/Mayer (AO) data.
largest (>0.10) Wiberg bond orders for each atom

     #   Z sym  total        # sym  WBO       # sym  WBO       # sym  WBO
 ---------------------------------------------------------------------------
     1   6 C    3.982 --     2 C    1.002    14 H    0.985    16 H    0.984
                            15 H    0.977
     2   6 C    3.942 --     1 C    1.002    17 H    0.968     3 N    0.967
                            18 H    0.963
     3   7 N    3.684 --     4 C    1.371     7 C    1.129     2 C    0.967
                             5 N    0.105
     4   6 C    3.955 --     5 N    1.371     3 N    1.371    19 H    0.953
     5   7 N    3.684 --     4 C    1.371     6 C    1.129    12 C    0.967
                             3 N    0.105
     6   6 C    3.953 --    11 C    1.337     7 C    1.273     5 N    1.129
     7   6 C    3.953 --     8 C    1.337     6 C    1.273     3 N    1.129
     8   6 C    3.986 --     9 C    1.498     7 C    1.337    20 H    0.963
                            11 C    0.119
     9   6 C    3.986 --     8 C    1.498    10 C    1.374    21 H    0.966
    10   6 C    3.986 --    11 C    1.498     9 C    1.374    22 H    0.966
    11   6 C    3.986 --    10 C    1.498     6 C    1.337    23 H    0.963
                             8 C    0.119
    12   6 C    3.942 --    13 C    1.002    24 H    0.968     5 N    0.967
                            25 H    0.962
    13   6 C    3.982 --    12 C    1.002    26 H    0.985    28 H    0.984
                            27 H    0.977
    14   1 H    0.996 --     1 C    0.985
    15   1 H    0.992 --     1 C    0.977
    16   1 H    0.996 --     1 C    0.984
    17   1 H    0.993 --     2 C    0.968
    18   1 H    0.992 --     2 C    0.963
    19   1 H    0.988 --     4 C    0.953
    20   1 H    0.994 --     8 C    0.963
    21   1 H    0.993 --     9 C    0.966
    22   1 H    0.993 --    10 C    0.966
    23   1 H    0.994 --    11 C    0.963
    24   1 H    0.993 --    12 C    0.968
    25   1 H    0.992 --    12 C    0.962
    26   1 H    0.996 --    13 C    0.985
    27   1 H    0.992 --    13 C    0.977
    28   1 H    0.996 --    13 C    0.984
 ---------------------------------------------------------------------------

molecular dipole:
                 x           y           z       tot (Debye)
 q only:        2.706       1.494      -5.952
   full:        2.549       1.315      -5.940      16.767

           -------------------------------------------------
          | TOTAL ENERGY              -36.702875453396 Eh   |
          | GRADIENT NORM               0.000225607330 Eh/α |
          | HOMO-LUMO GAP               3.530674574321 eV   |
           -------------------------------------------------

 * finished run on 2024/12/20 at 07:00:56.948
