   * xtb version 6.7.1 (edcfbbe) compiled by 'conda@3ef47c1a292c' on 2024-11-25

   ID    Z sym.   atoms
    1    6 C      1-4, 7-11, 13, 15-18, 20-25
    2    8 O      5, 6, 19
    3    7 N      12, 14
    4    1 H      26-52

          program call               : xtb C0856.xyz --opt --namespace C0856 --charge +1
          :  Hamiltonian                  GFN2-xTB          :
 * total energy  :   -74.2828446 Eh     change       -0.4101963E-09 Eh
 * total energy  :   -74.2908389 Eh     change       -0.7994360E-02 Eh
 * total energy  :   -74.2926655 Eh     change       -0.1826529E-02 Eh
 * total energy  :   -74.2932500 Eh     change       -0.5845775E-03 Eh
 * total energy  :   -74.2937653 Eh     change       -0.5153151E-03 Eh
 * total energy  :   -74.2940668 Eh     change       -0.3014282E-03 Eh
 * total energy  :   -74.2943555 Eh     change       -0.2887012E-03 Eh
 * total energy  :   -74.2946127 Eh     change       -0.2571960E-03 Eh
 * total energy  :   -74.2948473 Eh     change       -0.2346002E-03 Eh
 * total energy  :   -74.2950737 Eh     change       -0.2264276E-03 Eh
 * total energy  :   -74.3043517 Eh     change       -0.7987880E-05 Eh
 * total energy  :   -74.3043591 Eh     change       -0.7422090E-05 Eh
 * total energy  :   -74.3043652 Eh     change       -0.6068727E-05 Eh
 * total energy  :   -74.3043704 Eh     change       -0.5168754E-05 Eh
 * total energy  :   -74.3043759 Eh     change       -0.5560174E-05 Eh
 * total energy  :   -74.3043828 Eh     change       -0.6863074E-05 Eh
 * total energy  :   -74.3043900 Eh     change       -0.7154920E-05 Eh
 * total energy  :   -74.3043956 Eh     change       -0.5612620E-05 Eh
 * total energy  :   -74.3043996 Eh     change       -0.3978549E-05 Eh
   *** GEOMETRY OPTIMIZATION CONVERGED AFTER 89 ITERATIONS ***

 final structure:
================
52
 xtb: 6.7.1 (edcfbbe)
C           -0.47090625538408       -1.06901721274178        0.81343290928270
C           -0.34585179142371       -0.01450400689471       -0.28317026998051
C            0.54219108942301       -0.34968384919477       -1.48861816510845
C            0.39633250510698       -1.75922729748246       -2.05672252840292
O           -0.51647077347540       -2.51611627764325       -1.96477974386542
O            1.54390429797472       -2.07941733475085       -2.71287196519870
C            2.44245524907632       -0.98131360535317       -2.67432870189558
C            2.07356281462377       -0.22776122999754       -1.39197780074385
C            2.62258817715472       -0.93724824496358       -0.13521076934177
C            4.05980976590447       -1.29700896942717       -0.24343912857374
C            5.18122910910685       -0.52652830293197       -0.10309031444606
N            6.26596969301834       -1.32047731083336       -0.32222166521175
C            5.82899459592807       -2.54681779666891       -0.58423607567465
N            4.49880852480254       -2.56410204688664       -0.54432384418575
C            3.67623575296217       -3.72737207418412       -0.75973316030436
C            7.65081913530532       -0.92961280594397       -0.20312352797558
C            8.13493667520281       -0.99707077347967        1.25111320276081
C            7.87124957004028       -2.36799235611205        1.88140302009375
O            8.21456977244165       -3.35483150590164        0.93581201370028
C            8.11546959696309       -4.68344035394153        1.29106511113884
C            7.66683935275304       -5.14477493322910        2.51940711208958
C            7.59127244422238       -6.51069233093368        2.74758435984910
C            7.95068934542519       -7.41346931203618        1.76481949687525
C            8.39630028122082       -6.94818465445932        0.53741285960119
C            8.47638151696939       -5.59129758941017        0.29755047242016
H           -0.70816780533891       -2.03847426236787        0.38549735591882
H           -1.29041169778486       -0.78904149179718        1.47005840490314
H            0.42174387248985       -1.15078200841948        1.42691159515070
H           -1.34834694823988        0.15767584894820       -0.67751867602223
H            0.00243131115266        0.92826825123710        0.14458382333091
H            0.22759996578377        0.31698326432977       -2.30370678047839
H            2.28043903856965       -0.34913770469819       -3.55508808505309
H            3.46077303690052       -1.36934711772510       -2.71238399654173
H            2.42020642918315        0.80485520532848       -1.42252932541182
H            2.48447405454812       -0.27421774156535        0.71928647710234
H            2.04356454273778       -1.84470672239995        0.03217370793109
H            5.26946678587218        0.51458047355330        0.13076099478038
H            6.46005889574136       -3.39238292701434       -0.78032011035548
H            4.30826001751663       -4.56518835690635       -1.04491563624993
H            3.14359108188781       -3.98795532740667        0.15623803785287
H            2.94527918476280       -3.54710417660195       -1.55008459820951
H            8.24896741127680       -1.61471785986788       -0.80508972011635
H            7.76521632478462        0.08614562116711       -0.58508606218094
H            9.20649520165095       -0.80201783618286        1.24203090982240
H            7.64974111157456       -0.23258285914428        1.85809819229425
H            8.47126401568038       -2.46988791314340        2.79292994025550
H            6.80909567006798       -2.46445280295974        2.15827176440985
H            7.38631172139090       -4.46251914073119        3.30648683305513
H            7.24892548641500       -6.86360886376291        3.70819511905739
H            7.89113973102402       -8.47337867827754        1.95378953972424
H            8.68646222143519       -7.64365725810634       -0.23478491920939
H            8.83537889344362       -5.21270544009746       -0.64753768257861

          :  Hamiltonian                  GFN2-xTB          :
         :: total energy             -74.304399551866 Eh    ::
         :: gradient norm              0.000227205844 Eh/a0 ::
         :: HOMO-LUMO gap              2.208148649567 eV    ::
         :: SCC energy               -75.334527309444 Eh    ::
         :: -> dispersion             -0.051658097996 Eh    ::
         :: repulsion energy           1.030127757578 Eh    ::

    * Orbital Energies and Occupations

         #    Occupation            Energy/Eh            Energy/eV
      -------------------------------------------------------------
         1        2.0000           -0.8889764             -24.1903
       ...           ...                  ...                  ...
        55        2.0000           -0.5701209             -15.5138
        56        2.0000           -0.5684519             -15.4684
        57        2.0000           -0.5655566             -15.3896
        58        2.0000           -0.5542686             -15.0824
        59        2.0000           -0.5506737             -14.9846
        60        2.0000           -0.5463572             -14.8671
        61        2.0000           -0.5382878             -14.6476
        62        2.0000           -0.5289093             -14.3924
        63        2.0000           -0.5235861             -14.2475
        64        2.0000           -0.5131580             -13.9637
        65        2.0000           -0.5087337             -13.8433
        66        2.0000           -0.4976596             -13.5420
        67        2.0000           -0.4791767             -13.0391 (HOMO)
        68                         -0.3980287             -10.8309 (LUMO)
        69                         -0.3647680              -9.9258
        70                         -0.3325241              -9.0484
        71                         -0.3162250              -8.6049
        72                         -0.3080917              -8.3836
        73                         -0.1819142              -4.9501
        74                         -0.1786957              -4.8626
        75                         -0.1380529              -3.7566
        76                         -0.1078675              -2.9352
        77                         -0.1019293              -2.7736
        78                         -0.0842674              -2.2930
       ...                                ...                  ...
       127                          0.5900494              16.0561
      -------------------------------------------------------------
                  HL-Gap            0.0811480 Eh            2.2081 eV

     #   Z          covCN         q      C6AA      α(0)
     1   6 C        3.750    -0.117    22.805     6.811
     2   6 C        3.799    -0.060    21.652     6.625
     3   6 C        3.891    -0.056    21.531     6.596
     4   6 C        2.781     0.355    20.981     7.502
     5   8 O        0.856    -0.343    20.583     6.083
     6   8 O        1.706    -0.274    18.538     5.813
     7   6 C        3.785     0.065    19.505     6.291
     8   6 C        3.876    -0.029    21.047     6.523
     9   6 C        3.805    -0.078    21.986     6.675
    10   6 C        3.094     0.041    26.963     8.510
    11   6 C        3.075    -0.027    28.603     8.769
    12   7 N        2.858     0.065    20.115     6.661
    13   6 C        3.083     0.047    26.851     8.495
    14   7 N        2.868     0.052    20.327     6.696
    15   6 C        3.692    -0.084    22.298     6.757
    16   6 C        3.743    -0.025    21.087     6.551
    17   6 C        3.801    -0.075    21.931     6.668
    18   6 C        3.689     0.081    19.413     6.306
    19   8 O        1.705    -0.301    19.019     5.888
    20   6 C        2.863     0.130    25.145     8.219
    21   6 C        2.917    -0.066    29.655     8.930
    22   6 C        2.922    -0.027    28.668     8.780
    23   6 C        2.919    -0.035    28.862     8.810
    24   6 C        2.921    -0.026    28.657     8.779
    25   6 C        2.920    -0.058    29.429     8.896
    26   1 H        0.925     0.059     2.211     2.325
    27   1 H        0.925     0.056     2.241     2.341
    28   1 H        0.925     0.030     2.588     2.516
    29   1 H        0.924     0.065     2.145     2.290
    30   1 H        0.924     0.047     2.357     2.401
    31   1 H        0.923     0.075     2.036     2.231
    32   1 H        0.924     0.061     2.185     2.312
    33   1 H        0.924     0.048     2.342     2.393
    34   1 H        0.925     0.056     2.245     2.343
    35   1 H        0.924     0.086     1.919     2.166
    36   1 H        0.925     0.086     1.921     2.167
    37   1 H        0.926     0.098     1.806     2.102
    38   1 H        0.926     0.123     1.593     1.974
    39   1 H        0.925     0.095     1.835     2.119
    40   1 H        0.924     0.098     1.800     2.098
    41   1 H        0.924     0.120     1.617     1.988
    42   1 H        0.924     0.102     1.763     2.076
    43   1 H        0.924     0.089     1.888     2.149
    44   1 H        0.925     0.088     1.899     2.155
    45   1 H        0.925     0.064     2.155     2.295
    46   1 H        0.924     0.055     2.256     2.349
    47   1 H        0.923     0.020     2.740     2.589
    48   1 H        0.926     0.033     2.544     2.494
    49   1 H        0.926     0.048     2.340     2.392
    50   1 H        0.926     0.051     2.307     2.375
    51   1 H        0.926     0.051     2.312     2.378
    52   1 H        0.926     0.042     2.419     2.432

Wiberg/Mayer (AO) data.
largest (>0.10) Wiberg bond orders for each atom

     #   Z sym  total        # sym  WBO       # sym  WBO       # sym  WBO
 ---------------------------------------------------------------------------
     1   6 C    3.992 --     2 C    1.020    28 H    0.985    27 H    0.984
                            26 H    0.983
     2   6 C    3.989 --     1 C    1.020     3 C    0.989    30 H    0.975
                            29 H    0.974
     3   6 C    3.986 --     2 C    0.989     8 C    0.978     4 C    0.950
                            31 H    0.934
     4   6 C    3.913 --     5 O    1.822     6 O    1.074     3 C    0.950
     5   8 O    2.111 --     4 C    1.822     6 O    0.159
     6   8 O    2.277 --     4 C    1.074     7 C    0.962     5 O    0.159
     7   6 C    3.939 --     8 C    0.988    33 H    0.969    32 H    0.966
                             6 O    0.962
     8   6 C    3.991 --     7 C    0.988     3 C    0.978    34 H    0.969
                             9 C    0.969
     9   6 C    3.984 --    10 C    1.027     8 C    0.969    36 H    0.959
                            35 H    0.957
    10   6 C    3.951 --    11 C    1.550    14 N    1.190     9 C    1.027
    11   6 C    3.943 --    10 C    1.550    12 N    1.218    37 H    0.963
    12   7 N    3.714 --    13 C    1.366    11 C    1.218    16 C    0.971
    13   6 C    3.944 --    12 N    1.366    14 N    1.356    38 H    0.948
    14   7 N    3.703 --    13 C    1.356    10 C    1.190    15 C    0.989
    15   6 C    3.931 --    14 N    0.989    39 H    0.975    40 H    0.961
                            41 H    0.954
    16   6 C    3.940 --    17 C    0.987    12 N    0.971    43 H    0.964
                            42 H    0.963
    17   6 C    3.986 --    18 C    1.001    16 C    0.987    45 H    0.975
                            44 H    0.967
    18   6 C    3.956 --    17 C    1.001    19 O    0.981    47 H    0.967
                            46 H    0.965
    19   8 O    2.187 --    20 C    1.016    18 C    0.981
    20   6 C    3.925 --    21 C    1.393    25 C    1.363    19 O    1.016
    21   6 C    3.988 --    22 C    1.430    20 C    1.393    48 H    0.966
                            24 C    0.107
    22   6 C    3.991 --    23 C    1.451    21 C    1.430    49 H    0.970
                            25 C    0.112
    23   6 C    3.991 --    22 C    1.451    24 C    1.424    50 H    0.970
    24   6 C    3.990 --    25 C    1.462    23 C    1.424    51 H    0.970
                            21 C    0.107
    25   6 C    3.987 --    24 C    1.462    20 C    1.363    52 H    0.968
                            22 C    0.112
    26   1 H    0.997 --     1 C    0.983
    27   1 H    0.996 --     1 C    0.984
    28   1 H    0.999 --     1 C    0.985
    29   1 H    0.995 --     2 C    0.974
    30   1 H    0.998 --     2 C    0.975
    31   1 H    0.993 --     3 C    0.934
    32   1 H    0.996 --     7 C    0.966
    33   1 H    0.997 --     7 C    0.969
    34   1 H    0.997 --     8 C    0.969
    35   1 H    0.993 --     9 C    0.957
    36   1 H    0.992 --     9 C    0.959
    37   1 H    0.990 --    11 C    0.963
    38   1 H    0.985 --    13 C    0.948
    39   1 H    0.991 --    15 C    0.975
    40   1 H    0.990 --    15 C    0.961
    41   1 H    0.985 --    15 C    0.954
    42   1 H    0.989 --    16 C    0.963
    43   1 H    0.992 --    16 C    0.964
    44   1 H    0.991 --    17 C    0.967
    45   1 H    0.995 --    17 C    0.975
    46   1 H    0.997 --    18 C    0.965
    47   1 H    1.000 --    18 C    0.967
    48   1 H    0.999 --    21 C    0.966
    49   1 H    0.998 --    22 C    0.970
    50   1 H    0.997 --    23 C    0.970
    51   1 H    0.997 --    24 C    0.970
    52   1 H    0.998 --    25 C    0.968
 ---------------------------------------------------------------------------

molecular dipole:
                 x           y           z       tot (Debye)
 q only:       10.337      -2.678       0.055
   full:       10.612      -2.458       0.089      27.688

           -------------------------------------------------
          | TOTAL ENERGY              -74.304399551866 Eh   |
          | GRADIENT NORM               0.000227205844 Eh/α |
          | HOMO-LUMO GAP               2.208148649567 eV   |
           -------------------------------------------------

 * finished run on 2024/12/20 at 07:01:08.215
