   * xtb version 6.7.1 (edcfbbe) compiled by 'conda@3ef47c1a292c' on 2024-11-25

   ID    Z sym.   atoms
    1    6 C      1-3, 5-7
    2    7 N      4
    3    1 H      8-23

          program call               : xtb C0851.xyz --opt --namespace C0851 --charge +1
          :  Hamiltonian                  GFN2-xTB          :
 * total energy  :   -23.5115732 Eh     change       -0.5175238E-10 Eh
 * total energy  :   -23.5127293 Eh     change       -0.1156085E-02 Eh
 * total energy  :   -23.5129881 Eh     change       -0.2587683E-03 Eh
 * total energy  :   -23.5130576 Eh     change       -0.6953027E-04 Eh
 * total energy  :   -23.5131152 Eh     change       -0.5756056E-04 Eh
 * total energy  :   -23.5131447 Eh     change       -0.2956662E-04 Eh
 * total energy  :   -23.5131985 Eh     change       -0.5373693E-04 Eh
 * total energy  :   -23.5132714 Eh     change       -0.7294985E-04 Eh
 * total energy  :   -23.5133073 Eh     change       -0.3588998E-04 Eh
 * total energy  :   -23.5133458 Eh     change       -0.3848312E-04 Eh
 * total energy  :   -23.5135099 Eh     change       -0.8212661E-05 Eh
 * total energy  :   -23.5135152 Eh     change       -0.5221404E-05 Eh
 * total energy  :   -23.5135211 Eh     change       -0.5940988E-05 Eh
 * total energy  :   -23.5135284 Eh     change       -0.7261700E-05 Eh
 * total energy  :   -23.5135366 Eh     change       -0.8259496E-05 Eh
 * total energy  :   -23.5135447 Eh     change       -0.8072142E-05 Eh
 * total energy  :   -23.5135515 Eh     change       -0.6776699E-05 Eh
 * total energy  :   -23.5135568 Eh     change       -0.5284410E-05 Eh
 * total energy  :   -23.5135610 Eh     change       -0.4290669E-05 Eh
   *** GEOMETRY OPTIMIZATION CONVERGED AFTER 29 ITERATIONS ***

 final structure:
================
23
 xtb: 6.7.1 (edcfbbe)
C            1.20513197634122       -0.20709455723001        0.00273212757748
C            0.71875902855208        1.23248178787464       -0.13420015213436
C            1.02006230417108        1.82862099303254       -1.50535547024756
N            0.44559261363752        1.00675433960941       -2.60876720734081
C           -1.03979221076368        1.02584223819869       -2.73630254180898
C           -1.55174509366976        2.37277760139205       -3.23620449728818
C           -0.92566171403960        2.78533816866845       -4.56492661937117
H            0.61010723669929       -0.90458703774128       -0.58608040513648
H            1.12170690307032       -0.52049783251311        1.03890521484698
H            2.25089317621528       -0.29521260320440       -0.28335608126525
H           -0.34717276474957        1.28959782000254        0.08703067263703
H            1.22888317551094        1.85335490737603        0.60229059419515
H            0.62589097619610        2.84185205742709       -1.57960962848497
H            2.10163475240137        1.86635201289398       -1.65293901342152
H            0.82162384395778        1.33473867322306       -3.50712141030202
H            0.75999731306383        0.04136128509165       -2.45008689157468
H           -1.31813497389189        0.24657196206276       -3.44923073573830
H           -1.47897479818975        0.78196096729456       -1.76926454256056
H           -2.62991932537636        2.27632685861278       -3.36413529359715
H           -1.38959044167102        3.15002572196328       -2.48920575649777
H           -1.01569161945046        1.99112754791513       -5.30272866602862
H           -1.44500703294095        3.65521907049756       -4.95534143913928
H            0.12249667492626        3.06449801755179       -4.46156225732044

          :  Hamiltonian                  GFN2-xTB          :
         :: total energy             -23.513561044033 Eh    ::
         :: gradient norm              0.000168431995 Eh/a0 ::
         :: HOMO-LUMO gap              9.354170788896 eV    ::
         :: SCC energy               -23.855774944243 Eh    ::
         :: -> dispersion             -0.012642594322 Eh    ::
         :: repulsion energy           0.342213900210 Eh    ::

    * Orbital Energies and Occupations

         #    Occupation            Energy/Eh            Energy/eV
      -------------------------------------------------------------
         1        2.0000           -0.8764930             -23.8506
       ...           ...                  ...                  ...
        10        2.0000           -0.7026159             -19.1192
        11        2.0000           -0.6817696             -18.5519
        12        2.0000           -0.6720354             -18.2870
        13        2.0000           -0.6585206             -17.9193
        14        2.0000           -0.6494779             -17.6732
        15        2.0000           -0.6411683             -17.4471
        16        2.0000           -0.6361740             -17.3112
        17        2.0000           -0.6123212             -16.6621
        18        2.0000           -0.6070135             -16.5177
        19        2.0000           -0.5953577             -16.2005
        20        2.0000           -0.5933149             -16.1449
        21        2.0000           -0.5881519             -16.0044
        22        2.0000           -0.5871403             -15.9769 (HOMO)
        23                         -0.2433809              -6.6227 (LUMO)
        24                         -0.1480587              -4.0289
        25                         -0.1441005              -3.9212
        26                         -0.0954087              -2.5962
        27                         -0.0740977              -2.0163
        28                         -0.0685565              -1.8655
        29                         -0.0513894              -1.3984
        30                         -0.0337160              -0.9175
        31                         -0.0235745              -0.6415
        32                         -0.0117072              -0.3186
        33                         -0.0019613              -0.0534
       ...                                ...                  ...
        44                          0.1497688               4.0754
      -------------------------------------------------------------
                  HL-Gap            0.3437595 Eh            9.3542 eV

     #   Z          covCN         q      C6AA      α(0)
     1   6 C        3.751    -0.125    22.961     6.833
     2   6 C        3.800    -0.075    21.941     6.669
     3   6 C        3.733    -0.034    21.268     6.582
     4   7 N        3.530    -0.044    22.083     6.979
     5   6 C        3.733    -0.034    21.268     6.582
     6   6 C        3.800    -0.075    21.941     6.669
     7   6 C        3.751    -0.125    22.961     6.833
     8   1 H        0.925     0.038     2.472     2.459
     9   1 H        0.925     0.077     2.012     2.218
    10   1 H        0.925     0.054     2.271     2.357
    11   1 H        0.925     0.065     2.146     2.291
    12   1 H        0.925     0.084     1.935     2.176
    13   1 H        0.925     0.099     1.793     2.094
    14   1 H        0.924     0.091     1.873     2.140
    15   1 H        0.859     0.249     0.889     1.477
    16   1 H        0.859     0.249     0.889     1.477
    17   1 H        0.924     0.091     1.873     2.140
    18   1 H        0.925     0.099     1.793     2.094
    19   1 H        0.925     0.084     1.935     2.176
    20   1 H        0.925     0.065     2.146     2.291
    21   1 H        0.925     0.054     2.271     2.357
    22   1 H        0.925     0.077     2.012     2.218
    23   1 H        0.925     0.038     2.472     2.459

Wiberg/Mayer (AO) data.
largest (>0.10) Wiberg bond orders for each atom

     #   Z sym  total        # sym  WBO       # sym  WBO       # sym  WBO
 ---------------------------------------------------------------------------
     1   6 C    3.990 --     2 C    1.019    10 H    0.985     9 H    0.980
                             8 H    0.980
     2   6 C    3.984 --     1 C    1.019     3 C    1.009    11 H    0.971
                            12 H    0.965
     3   6 C    3.915 --     2 C    1.009    14 H    0.968    13 H    0.965
                             4 N    0.932
     4   7 N    3.724 --     5 C    0.932     3 C    0.932    15 H    0.903
                            16 H    0.903
     5   6 C    3.915 --     6 C    1.009    17 H    0.968    18 H    0.965
                             4 N    0.932
     6   6 C    3.984 --     7 C    1.019     5 C    1.009    20 H    0.971
                            19 H    0.965
     7   6 C    3.990 --     6 C    1.019    21 H    0.985    22 H    0.980
                            23 H    0.980
     8   1 H    0.999 --     1 C    0.980
     9   1 H    0.994 --     1 C    0.980
    10   1 H    0.997 --     1 C    0.985
    11   1 H    0.996 --     2 C    0.971
    12   1 H    0.993 --     2 C    0.965
    13   1 H    0.990 --     3 C    0.965
    14   1 H    0.992 --     3 C    0.968
    15   1 H    0.938 --     4 N    0.903
    16   1 H    0.938 --     4 N    0.903
    17   1 H    0.992 --     5 C    0.968
    18   1 H    0.990 --     5 C    0.965
    19   1 H    0.993 --     6 C    0.965
    20   1 H    0.996 --     6 C    0.971
    21   1 H    0.997 --     7 C    0.985
    22   1 H    0.994 --     7 C    0.980
    23   1 H    0.999 --     7 C    0.980
 ---------------------------------------------------------------------------

molecular dipole:
                 x           y           z       tot (Debye)
 q only:        0.431       2.282      -4.489
   full:        0.577       2.148      -4.645      13.090

           -------------------------------------------------
          | TOTAL ENERGY              -23.513561044033 Eh   |
          | GRADIENT NORM               0.000168431995 Eh/α |
          | HOMO-LUMO GAP               9.354170788896 eV   |
           -------------------------------------------------

 * finished run on 2024/12/20 at 07:00:57.396
