   * xtb version 6.7.1 (edcfbbe) compiled by 'conda@3ef47c1a292c' on 2024-11-25

   ID    Z sym.   atoms
    1    6 C      1, 3-6
    2    7 N      2, 7-9
    3    1 H      10-22

          program call               : xtb C0853.xyz --opt --namespace C0853 --charge +1
          :  Hamiltonian                  GFN2-xTB          :
 * total energy  :   -28.5406061 Eh     change       -0.2252705E-09 Eh
 * total energy  :   -28.5513269 Eh     change       -0.1072081E-01 Eh
 * total energy  :   -28.5477402 Eh     change        0.3586721E-02 Eh
 * total energy  :   -28.5548147 Eh     change       -0.7074509E-02 Eh
 * total energy  :   -28.5555466 Eh     change       -0.7318737E-03 Eh
 * total energy  :   -28.5561135 Eh     change       -0.5669467E-03 Eh
 * total energy  :   -28.5567776 Eh     change       -0.6641049E-03 Eh
 * total energy  :   -28.5573338 Eh     change       -0.5561582E-03 Eh
 * total energy  :   -28.5577337 Eh     change       -0.3999527E-03 Eh
 * total energy  :   -28.5581279 Eh     change       -0.3942273E-03 Eh
 * total energy  :   -28.5590620 Eh     change       -0.2542954E-04 Eh
 * total energy  :   -28.5590688 Eh     change       -0.6831882E-05 Eh
 * total energy  :   -28.5588933 Eh     change        0.1754708E-03 Eh
 * total energy  :   -28.5590618 Eh     change       -0.1684485E-03 Eh
 * total energy  :   -28.5590894 Eh     change       -0.2761226E-04 Eh
 * total energy  :   -28.5590959 Eh     change       -0.6482771E-05 Eh
 * total energy  :   -28.5591093 Eh     change       -0.1348186E-04 Eh
 * total energy  :   -28.5591166 Eh     change       -0.7255066E-05 Eh
 * total energy  :   -28.5591184 Eh     change       -0.1821568E-05 Eh
   *** GEOMETRY OPTIMIZATION CONVERGED AFTER 28 ITERATIONS ***

 final structure:
================
22
 xtb: 6.7.1 (edcfbbe)
C            0.99011225234377        0.57042479364148       -0.38564615548308
N            0.45936734800806        1.33926446217199        0.75763601568042
C            0.92393989353421        2.73629064193721        0.64666997715125
C           -1.01384595146017        1.31911601530398        0.71119364585098
C            0.97273442029369        0.77686615409812        2.04367525105573
C            0.30803698841455       -0.51240684379188        2.53740801310921
N            0.39557352953601       -1.55045468606130        1.54950292395355
N            0.40214910609827       -2.72791148360377        1.76105344903079
N            0.41720758286929       -3.84441559077664        1.74225256247772
H            0.57098693503376        0.94870848430912       -1.31573084726270
H            0.72872774230420       -0.48071846399191       -0.27318592831490
H            2.07376336725738        0.66045798321672       -0.42897407710968
H            0.65211596452224        3.14316078974293       -0.32580414098310
H            0.46834409659484        3.35274674838639        1.41987965787486
H            2.00641833382869        2.78527169031253        0.75194092895945
H           -1.37462282435767        0.29504238482613        0.64732203309906
H           -1.42762502214919        1.79613657897204        1.59802726011520
H           -1.36167919777555        1.85996517314109       -0.16716388290477
H            2.04295276605300        0.59974586327760        1.91778847773918
H            0.83530916012171        1.52834829068609        2.82415526616508
H            0.83122028496218       -0.79968215542000        3.45861814201845
H           -0.74229677603303       -0.33439683037735        2.80055142777778

          :  Hamiltonian                  GFN2-xTB          :
         :: total energy             -28.559118418985 Eh    ::
         :: gradient norm              0.000444457361 Eh/a0 ::
         :: HOMO-LUMO gap              4.077959027126 eV    ::
         :: SCC energy               -28.954918590609 Eh    ::
         :: -> dispersion             -0.014635993953 Eh    ::
         :: repulsion energy           0.395800171624 Eh    ::

    * Orbital Energies and Occupations

         #    Occupation            Energy/Eh            Energy/eV
      -------------------------------------------------------------
         1        2.0000           -0.8792830             -23.9265
       ...           ...                  ...                  ...
        14        2.0000           -0.7085604             -19.2809
        15        2.0000           -0.6799608             -18.5027
        16        2.0000           -0.6771560             -18.4264
        17        2.0000           -0.6662161             -18.1287
        18        2.0000           -0.6563038             -17.8589
        19        2.0000           -0.6537720             -17.7900
        20        2.0000           -0.6514033             -17.7256
        21        2.0000           -0.6504610             -17.6999
        22        2.0000           -0.6478287             -17.6283
        23        2.0000           -0.6382730             -17.3683
        24        2.0000           -0.5911624             -16.0863
        25        2.0000           -0.5582010             -15.1894
        26        2.0000           -0.5314676             -14.4620 (HOMO)
        27                         -0.3816053             -10.3840 (LUMO)
        28                         -0.3430100              -9.3338
        29                         -0.2407601              -6.5514
        30                         -0.1718871              -4.6773
        31                         -0.1623724              -4.4184
        32                         -0.1548750              -4.2144
        33                         -0.1193073              -3.2465
        34                         -0.0624892              -1.7004
        35                         -0.0572758              -1.5586
        36                         -0.0154577              -0.4206
        37                         -0.0065327              -0.1778
       ...                                ...                  ...
        49                          0.9682275              26.3468
      -------------------------------------------------------------
                  HL-Gap            0.1498622 Eh            4.0780 eV

     #   Z          covCN         q      C6AA      α(0)
     1   6 C        3.722    -0.108    22.673     6.800
     2   7 N        3.622     0.150    18.699     6.422
     3   6 C        3.728    -0.102    22.547     6.779
     4   6 C        3.720    -0.101    22.548     6.782
     5   6 C        3.763    -0.044    21.401     6.594
     6   6 C        3.743     0.012    20.440     6.450
     7   7 N        1.903    -0.228    26.840     7.681
     8   7 N        1.974     0.310    16.880     6.093
     9   7 N        0.992    -0.168    24.206     7.072
    10   1 H        0.925     0.101     1.774     2.083
    11   1 H        0.925     0.122     1.600     1.978
    12   1 H        0.925     0.099     1.793     2.094
    13   1 H        0.925     0.106     1.734     2.059
    14   1 H        0.925     0.100     1.782     2.088
    15   1 H        0.925     0.101     1.773     2.082
    16   1 H        0.925     0.111     1.690     2.033
    17   1 H        0.925     0.098     1.800     2.098
    18   1 H        0.925     0.103     1.755     2.071
    19   1 H        0.924     0.100     1.789     2.091
    20   1 H        0.924     0.094     1.842     2.122
    21   1 H        0.924     0.075     2.030     2.228
    22   1 H        0.924     0.068     2.113     2.273

Wiberg/Mayer (AO) data.
largest (>0.10) Wiberg bond orders for each atom

     #   Z sym  total        # sym  WBO       # sym  WBO       # sym  WBO
 ---------------------------------------------------------------------------
     1   6 C    3.915 --    12 H    0.975    10 H    0.974    11 H    0.958
                             2 N    0.953
     2   7 N    3.819 --     3 C    0.957     4 C    0.957     1 C    0.953
                             5 C    0.934
     3   6 C    3.925 --    15 H    0.975    14 H    0.975    13 H    0.973
                             2 N    0.957
     4   6 C    3.923 --    17 H    0.975    18 H    0.974    16 H    0.972
                             2 N    0.957
     5   6 C    3.938 --     6 C    1.003    19 H    0.966    20 H    0.966
                             2 N    0.934
     6   6 C    3.975 --     5 C    1.003     7 N    0.981    22 H    0.956
                            21 H    0.955
     7   7 N    3.184 --     8 N    1.540     6 C    0.981     9 N    0.617
     8   7 N    3.833 --     9 N    2.260     7 N    1.540
     9   7 N    2.965 --     8 N    2.260     7 N    0.617
    10   1 H    0.990 --     1 C    0.974
    11   1 H    0.985 --     1 C    0.958
    12   1 H    0.990 --     1 C    0.975
    13   1 H    0.989 --     3 C    0.973
    14   1 H    0.990 --     3 C    0.975
    15   1 H    0.990 --     3 C    0.975
    16   1 H    0.988 --     4 C    0.972
    17   1 H    0.990 --     4 C    0.975
    18   1 H    0.989 --     4 C    0.974
    19   1 H    0.990 --     5 C    0.966
    20   1 H    0.990 --     5 C    0.966
    21   1 H    0.994 --     6 C    0.955
    22   1 H    0.995 --     6 C    0.956
 ---------------------------------------------------------------------------

molecular dipole:
                 x           y           z       tot (Debye)
 q only:        0.809       2.683       1.796
   full:        0.814       2.974       2.025       9.376

           -------------------------------------------------
          | TOTAL ENERGY              -28.559118418985 Eh   |
          | GRADIENT NORM               0.000444457361 Eh/α |
          | HOMO-LUMO GAP               4.077959027126 eV   |
           -------------------------------------------------

 * finished run on 2024/12/20 at 07:01:00.878
