   * xtb version 6.7.1 (edcfbbe) compiled by 'conda@3ef47c1a292c' on 2024-11-25

   ID    Z sym.   atoms
    1    9 F      1, 12, 13
    2    6 C      2-5, 7-11
    3    7 N      6
    4    1 H      14-30

          program call               : xtb C0867.xyz --opt --namespace C0867 --charge +1
          :  Hamiltonian                  GFN2-xTB          :
 * total energy  :   -44.6756380 Eh     change       -0.2356870E-09 Eh
 * total energy  :   -44.6815128 Eh     change       -0.5874868E-02 Eh
 * total energy  :   -44.6828221 Eh     change       -0.1309244E-02 Eh
 * total energy  :   -44.6829308 Eh     change       -0.1087760E-03 Eh
 * total energy  :   -44.6830441 Eh     change       -0.1132534E-03 Eh
 * total energy  :   -44.6830935 Eh     change       -0.4938354E-04 Eh
 * total energy  :   -44.6831522 Eh     change       -0.5868421E-04 Eh
 * total energy  :   -44.6831832 Eh     change       -0.3101312E-04 Eh
 * total energy  :   -44.6832114 Eh     change       -0.2821510E-04 Eh
 * total energy  :   -44.6832308 Eh     change       -0.1939364E-04 Eh
 * total energy  :   -44.6851926 Eh     change       -0.1595284E-03 Eh
 * total energy  :   -44.6854075 Eh     change       -0.2149012E-03 Eh
 * total energy  :   -44.6855237 Eh     change       -0.1162625E-03 Eh
 * total energy  :   -44.6856399 Eh     change       -0.1161713E-03 Eh
 * total energy  :   -44.6856950 Eh     change       -0.5507078E-04 Eh
 * total energy  :   -44.6857310 Eh     change       -0.3601944E-04 Eh
 * total energy  :   -44.6857525 Eh     change       -0.2147274E-04 Eh
 * total energy  :   -44.6857641 Eh     change       -0.1165857E-04 Eh
 * total energy  :   -44.6857671 Eh     change       -0.3019811E-05 Eh
   *** GEOMETRY OPTIMIZATION CONVERGED AFTER 34 ITERATIONS ***

 final structure:
================
30
 xtb: 6.7.1 (edcfbbe)
F            0.99023543779122       -0.17829747915834        0.67409062967451
C            1.98085193221689       -0.11726589732610       -0.22135645336552
C            2.31388288846594        1.31267685887458       -0.62431615649223
C            2.28665148089409        2.29679088700347        0.55410846522868
C            3.06381573974378        1.92325081747816        1.82384771019220
N            4.51403652783899        2.27939137314334        1.90463571892011
C            5.02341090630023        1.72056461791515        3.17307857376446
C            4.71381170885590        3.76878307261273        1.87853839053470
C            5.80737318476899        4.03980380877177        0.84940883191221
C            5.60807648236074        2.90827856554489       -0.15404579526227
C            5.32729921588996        1.73154695465270        0.76913902252859
F            3.04614678998223       -0.71916242542347        0.36257549261682
F            1.64469884679217       -0.86500694074736       -1.26301352150734
H            3.26859967238533        1.28880842935866       -1.15110144360396
H            1.55183410069799        1.62112524378017       -1.34369751225345
H            2.58599751816452        3.27505395655928        0.17834933494005
H            1.24393105162109        2.38591411267526        0.86768334615155
H            2.58419615693139        2.43430486205965        2.66220428416803
H            2.98041997386502        0.85238673634366        2.00993936355197
H            4.41811634508123        2.06227036552102        4.01113343813099
H            4.99139250034013        0.63235457994568        3.14063562406915
H            6.05256412396880        2.03808300936585        3.33067710941683
H            4.97474423370230        4.12705228181772        2.87278786574444
H            3.78389521671657        4.25002487017424        1.57940903990473
H            5.70476102814615        5.02521013776411        0.40293865480849
H            6.79616476819126        3.97361398471557        1.30264578684893
H            4.76984899695878        3.12225344370169       -0.81566368016221
H            6.48841026342777        2.73351756734993       -0.76708711841939
H            4.81803374948240        0.89159645310050        0.30706415393197
H            6.27281915841867        1.36661575242467        1.17230084402730

          :  Hamiltonian                  GFN2-xTB          :
         :: total energy             -44.685767144605 Eh    ::
         :: gradient norm              0.000401253007 Eh/a0 ::
         :: HOMO-LUMO gap              9.506201831879 eV    ::
         :: SCC energy               -45.120424788759 Eh    ::
         :: -> dispersion             -0.023562017339 Eh    ::
         :: repulsion energy           0.434657644154 Eh    ::

    * Orbital Energies and Occupations

         #    Occupation            Energy/Eh            Energy/eV
      -------------------------------------------------------------
         1        2.0000           -0.9985649             -27.1723
       ...           ...                  ...                  ...
        27        2.0000           -0.6534356             -17.7809
        28        2.0000           -0.6522742             -17.7493
        29        2.0000           -0.6507710             -17.7084
        30        2.0000           -0.6492298             -17.6664
        31        2.0000           -0.6462472             -17.5853
        32        2.0000           -0.6399659             -17.4144
        33        2.0000           -0.6304836             -17.1563
        34        2.0000           -0.6282194             -17.0947
        35        2.0000           -0.6232881             -16.9605
        36        2.0000           -0.6195152             -16.8579
        37        2.0000           -0.6105180             -16.6130
        38        2.0000           -0.6074156             -16.5286
        39        2.0000           -0.5952993             -16.1989 (HOMO)
        40                         -0.2459528              -6.6927 (LUMO)
        41                         -0.1917463              -5.2177
        42                         -0.1815131              -4.9392
        43                         -0.1663642              -4.5270
        44                         -0.1237127              -3.3664
        45                         -0.0998204              -2.7163
        46                         -0.0980954              -2.6693
        47                         -0.0897808              -2.4431
        48                         -0.0710790              -1.9342
        49                         -0.0652750              -1.7762
        50                         -0.0491558              -1.3376
       ...                                ...                  ...
        69                          0.1695406               4.6134
      -------------------------------------------------------------
                  HL-Gap            0.3493465 Eh            9.5062 eV

     #   Z          covCN         q      C6AA      α(0)
     1   9 F        0.790    -0.197    11.209     3.955
     2   6 C        3.329     0.486    17.388     6.620
     3   6 C        3.802    -0.099    22.395     6.737
     4   6 C        3.799    -0.074    21.923     6.667
     5   6 C        3.756    -0.042    21.371     6.591
     6   7 N        3.626     0.115    19.262     6.518
     7   6 C        3.721    -0.094    22.422     6.763
     8   6 C        3.781    -0.040    21.303     6.575
     9   6 C        3.832    -0.073    21.876     6.655
    10   6 C        3.826    -0.073    21.873     6.655
    11   6 C        3.789    -0.041    21.314     6.575
    12   9 F        0.790    -0.223    11.471     4.001
    13   9 F        0.791    -0.182    11.051     3.927
    14   1 H        0.924     0.085     1.930     2.172
    15   1 H        0.924     0.103     1.755     2.072
    16   1 H        0.925     0.078     1.997     2.210
    17   1 H        0.924     0.094     1.837     2.120
    18   1 H        0.924     0.089     1.885     2.147
    19   1 H        0.925     0.102     1.765     2.078
    20   1 H        0.925     0.097     1.815     2.107
    21   1 H        0.925     0.102     1.768     2.079
    22   1 H        0.925     0.102     1.766     2.078
    23   1 H        0.925     0.092     1.857     2.131
    24   1 H        0.925     0.090     1.875     2.141
    25   1 H        0.925     0.085     1.930     2.173
    26   1 H        0.925     0.072     2.067     2.248
    27   1 H        0.925     0.066     2.131     2.283
    28   1 H        0.925     0.086     1.916     2.165
    29   1 H        0.925     0.098     1.804     2.100
    30   1 H        0.924     0.095     1.833     2.117

Wiberg/Mayer (AO) data.
largest (>0.10) Wiberg bond orders for each atom

     #   Z sym  total        # sym  WBO       # sym  WBO       # sym  WBO
 ---------------------------------------------------------------------------
     1   9 F    1.083 --     2 C    0.956
     2   6 C    3.834 --    13 F    0.975     3 C    0.957     1 F    0.956
                            12 F    0.924
     3   6 C    3.979 --     4 C    1.006    14 H    0.963    15 H    0.962
                             2 C    0.957
     4   6 C    3.985 --     5 C    1.009     3 C    1.006    17 H    0.965
                            16 H    0.962
     5   6 C    3.936 --     4 C    1.009    18 H    0.967    19 H    0.962
                             6 N    0.936
     6   7 N    3.803 --     7 C    0.963     5 C    0.936     8 C    0.926
                            11 C    0.924
     7   6 C    3.927 --    20 H    0.975    21 H    0.974    22 H    0.974
                             6 N    0.963
     8   6 C    3.932 --     9 C    1.008    23 H    0.969    24 H    0.965
                             6 N    0.926
     9   6 C    3.985 --     8 C    1.008    10 C    1.004    26 H    0.975
                            25 H    0.970
    10   6 C    3.987 --    11 C    1.011     9 C    1.004    27 H    0.972
                            28 H    0.969
    11   6 C    3.928 --    10 C    1.011    30 H    0.967    29 H    0.962
                             6 N    0.924
    12   9 F    1.055 --     2 C    0.924
    13   9 F    1.102 --     2 C    0.975
    14   1 H    0.993 --     3 C    0.963
    15   1 H    0.989 --     3 C    0.962
    16   1 H    0.994 --     4 C    0.962
    17   1 H    0.991 --     4 C    0.965
    18   1 H    0.992 --     5 C    0.967
    19   1 H    0.990 --     5 C    0.962
    20   1 H    0.991 --     7 C    0.975
    21   1 H    0.990 --     7 C    0.974
    22   1 H    0.989 --     7 C    0.974
    23   1 H    0.991 --     8 C    0.969
    24   1 H    0.992 --     8 C    0.965
    25   1 H    0.993 --     9 C    0.970
    26   1 H    0.995 --     9 C    0.975
    27   1 H    0.996 --    10 C    0.972
    28   1 H    0.993 --    10 C    0.969
    29   1 H    0.990 --    11 C    0.962
    30   1 H    0.991 --    11 C    0.967
 ---------------------------------------------------------------------------

molecular dipole:
                 x           y           z       tot (Debye)
 q only:        8.748       5.586       2.880
   full:        8.689       5.546       2.949      27.252

           -------------------------------------------------
          | TOTAL ENERGY              -44.685767144605 Eh   |
          | GRADIENT NORM               0.000401253007 Eh/α |
          | HOMO-LUMO GAP               9.506201831879 eV   |
           -------------------------------------------------

 * finished run on 2024/12/20 at 07:02:05.999
