   * xtb version 6.7.1 (edcfbbe) compiled by 'conda@3ef47c1a292c' on 2024-11-25

   ID    Z sym.   atoms
    1    6 C      1-5, 7-14
    2    7 N      6
    3    1 H      15-28

          program call               : xtb C0862.xyz --opt --namespace C0862 --charge +1
          :  Hamiltonian                  GFN2-xTB          :
 * total energy  :   -37.4857869 Eh     change       -0.6665104E-09 Eh
 * total energy  :   -37.4887569 Eh     change       -0.2970050E-02 Eh
 * total energy  :   -37.4891802 Eh     change       -0.4232429E-03 Eh
 * total energy  :   -37.4892485 Eh     change       -0.6833828E-04 Eh
 * total energy  :   -37.4892926 Eh     change       -0.4409069E-04 Eh
 * total energy  :   -37.4893209 Eh     change       -0.2829013E-04 Eh
 * total energy  :   -37.4893434 Eh     change       -0.2249519E-04 Eh
 * total energy  :   -37.4893935 Eh     change       -0.5014165E-04 Eh
 * total energy  :   -37.4894256 Eh     change       -0.3209038E-04 Eh
 * total energy  :   -37.4894492 Eh     change       -0.2360016E-04 Eh
 * total energy  :   -37.4894588 Eh     change       -0.9542672E-05 Eh
 * total energy  :   -37.4894638 Eh     change       -0.5032532E-05 Eh
 * total energy  :   -37.4894705 Eh     change       -0.6694860E-05 Eh
 * total energy  :   -37.4894840 Eh     change       -0.1346017E-04 Eh
 * total energy  :   -37.4895025 Eh     change       -0.1857143E-04 Eh
 * total energy  :   -37.4895220 Eh     change       -0.1951702E-04 Eh
 * total energy  :   -37.4895065 Eh     change        0.1559105E-04 Eh
 * total energy  :   -37.4895370 Eh     change       -0.3057311E-04 Eh
 * total energy  :   -37.4895420 Eh     change       -0.4998607E-05 Eh
   *** GEOMETRY OPTIMIZATION CONVERGED AFTER 19 ITERATIONS ***

 final structure:
================
28
 xtb: 6.7.1 (edcfbbe)
C            1.39458014174222        0.38892588990134       -0.17120349133032
C            0.73918593480204        0.60012354311604       -1.48904529599382
C            0.12005985328958       -0.44615892747265       -2.17799983283693
C           -0.46367854165482       -0.20397163842746       -3.41006693308704
C           -0.42496197600246        1.06973069507059       -3.94236075824376
N            0.16630800613407        2.06715085058501       -3.28012108920178
C            0.73474960475528        1.84976055105609       -2.08989335690960
C            0.27525942823010        3.38723225419817       -3.89105456314518
C            1.61235092633007        3.50245622518109       -4.59547947018264
C            1.75307600954876        3.04438442797238       -5.89906566374359
C            2.97732321227880        3.13348687411645       -6.53825116114547
C            4.06813490151313        3.67217919778538       -5.87648788404510
C            3.93207168810880        4.12782902361277       -4.57605463227234
C            2.70852499291130        4.04082666143252       -3.93465668590377
H            0.86141733513001       -0.35801380929101        0.41104577201585
H            1.45328836844303        1.31241882612239        0.39716589548509
H            2.41039053189265        0.02217601298635       -0.32328509415682
H            0.09575755652023       -1.43482120395254       -1.74654943457621
H           -0.95139302764512       -0.99438592147705       -3.95725093437514
H           -0.87225680424953        1.29870321755747       -4.89721940099533
H            1.19802517801787        2.69684518273639       -1.60608375766167
H           -0.54114369573626        3.51641118145830       -4.60313454387470
H            0.19173579965743        4.14709112616408       -3.11215113548552
H            0.90413804274053        2.63361245471483       -6.42599305529973
H            3.07625552448625        2.78640078014465       -7.55465749441264
H            5.02130901793871        3.74316528987038       -6.37617626455101
H            4.77667512869847        4.55646920279395       -4.05989001365081
H            2.60746686211884        4.41543203204376       -2.92634972041989

          :  Hamiltonian                  GFN2-xTB          :
         :: total energy             -37.489542024479 Eh    ::
         :: gradient norm              0.000359331609 Eh/a0 ::
         :: HOMO-LUMO gap              2.127202978113 eV    ::
         :: SCC energy               -38.178137532669 Eh    ::
         :: -> dispersion             -0.024721280535 Eh    ::
         :: repulsion energy           0.688595508190 Eh    ::

    * Orbital Energies and Occupations

         #    Occupation            Energy/Eh            Energy/eV
      -------------------------------------------------------------
         1        2.0000           -0.8700937             -23.6765
       ...           ...                  ...                  ...
        23        2.0000           -0.6206868             -16.8897
        24        2.0000           -0.6146934             -16.7267
        25        2.0000           -0.6110748             -16.6282
        26        2.0000           -0.6055309             -16.4773
        27        2.0000           -0.6023051             -16.3896
        28        2.0000           -0.5978527             -16.2684
        29        2.0000           -0.5971742             -16.2499
        30        2.0000           -0.5965921             -16.2341
        31        2.0000           -0.5828137             -15.8592
        32        2.0000           -0.5456988             -14.8492
        33        2.0000           -0.5413498             -14.7309
        34        2.0000           -0.5268473             -14.3362
        35        2.0000           -0.5260920             -14.3157 (HOMO)
        36                         -0.4479187             -12.1885 (LUMO)
        37                         -0.4153606             -11.3025
        38                         -0.3515268              -9.5655
        39                         -0.3442267              -9.3669
        40                         -0.2977021              -8.1009
        41                         -0.2215972              -6.0300
        42                         -0.1500178              -4.0822
        43                         -0.0706296              -1.9219
        44                         -0.0487695              -1.3271
        45                         -0.0429302              -1.1682
        46                         -0.0351453              -0.9564
       ...                                ...                  ...
        70                          0.5424961              14.7621
      -------------------------------------------------------------
                  HL-Gap            0.0781733 Eh            2.1272 eV

     #   Z          covCN         q      C6AA      α(0)
     1   6 C        3.759    -0.133    23.108     6.853
     2   6 C        2.961     0.049    26.901     8.507
     3   6 C        2.930    -0.003    28.110     8.695
     4   6 C        2.913    -0.014    28.368     8.734
     5   6 C        2.892     0.027    27.409     8.583
     6   7 N        2.750     0.106    19.411     6.544
     7   6 C        2.900     0.018    27.612     8.616
     8   6 C        3.764    -0.036    21.252     6.571
     9   6 C        2.973    -0.002    28.070     8.691
    10   6 C        2.923    -0.036    28.894     8.815
    11   6 C        2.920    -0.021    28.522     8.758
    12   6 C        2.920    -0.018    28.467     8.749
    13   6 C        2.920    -0.021    28.531     8.759
    14   6 C        2.922    -0.036    28.896     8.815
    15   1 H        0.925     0.091     1.874     2.141
    16   1 H        0.925     0.081     1.973     2.197
    17   1 H        0.924     0.098     1.803     2.100
    18   1 H        0.926     0.100     1.785     2.089
    19   1 H        0.926     0.103     1.758     2.073
    20   1 H        0.926     0.103     1.754     2.071
    21   1 H        0.926     0.103     1.762     2.076
    22   1 H        0.924     0.090     1.878     2.143
    23   1 H        0.924     0.091     1.868     2.137
    24   1 H        0.926     0.040     2.455     2.450
    25   1 H        0.926     0.060     2.204     2.321
    26   1 H        0.926     0.063     2.167     2.302
    27   1 H        0.926     0.059     2.205     2.322
    28   1 H        0.926     0.040     2.452     2.449

Wiberg/Mayer (AO) data.
largest (>0.10) Wiberg bond orders for each atom

     #   Z sym  total        # sym  WBO       # sym  WBO       # sym  WBO
 ---------------------------------------------------------------------------
     1   6 C    3.982 --     2 C    1.045    16 H    0.975    15 H    0.968
                            17 H    0.943
     2   6 C    3.981 --     7 C    1.418     3 C    1.371     1 C    1.045
     3   6 C    3.972 --     4 C    1.444     2 C    1.371    18 H    0.961
     4   6 C    3.982 --     5 C    1.444     3 C    1.444    19 H    0.960
     5   6 C    3.957 --     4 C    1.444     6 N    1.330    20 H    0.955
     6   7 N    3.765 --     5 C    1.330     7 C    1.325     8 C    0.952
     7   6 C    3.957 --     2 C    1.418     6 N    1.325    21 H    0.953
     8   6 C    3.932 --     9 C    0.969    22 H    0.962    23 H    0.960
                             6 N    0.952
     9   6 C    3.975 --    14 C    1.414    10 C    1.413     8 C    0.969
                            12 C    0.108
    10   6 C    3.990 --    11 C    1.443     9 C    1.413    24 H    0.968
                            13 C    0.111
    11   6 C    3.989 --    10 C    1.443    12 C    1.438    25 H    0.968
                            14 C    0.110
    12   6 C    3.986 --    13 C    1.439    11 C    1.438    26 H    0.968
                             9 C    0.108
    13   6 C    3.988 --    14 C    1.441    12 C    1.439    27 H    0.968
                            10 C    0.111
    14   6 C    3.990 --    13 C    1.441     9 C    1.414    28 H    0.967
                            11 C    0.110
    15   1 H    0.991 --     1 C    0.968
    16   1 H    0.993 --     1 C    0.975
    17   1 H    0.990 --     1 C    0.943
    18   1 H    0.990 --     3 C    0.961
    19   1 H    0.989 --     4 C    0.960
    20   1 H    0.989 --     5 C    0.955
    21   1 H    0.989 --     7 C    0.953
    22   1 H    0.991 --     8 C    0.962
    23   1 H    0.991 --     8 C    0.960
    24   1 H    0.998 --    10 C    0.968
    25   1 H    0.996 --    11 C    0.968
    26   1 H    0.995 --    12 C    0.968
    27   1 H    0.996 --    13 C    0.968
    28   1 H    0.998 --    14 C    0.967
 ---------------------------------------------------------------------------

molecular dipole:
                 x           y           z       tot (Debye)
 q only:        1.417       2.928      -5.710
   full:        1.311       2.957      -5.748      16.765

           -------------------------------------------------
          | TOTAL ENERGY              -37.489542024479 Eh   |
          | GRADIENT NORM               0.000359331609 Eh/α |
          | HOMO-LUMO GAP               2.127202978113 eV   |
           -------------------------------------------------

 * finished run on 2024/12/20 at 07:01:56.183
