   * xtb version 6.7.1 (edcfbbe) compiled by 'conda@3ef47c1a292c' on 2024-11-25

   ID    Z sym.   atoms
    1    6 C      1, 2, 4-8, 10-13, 15-17, 19-21, 26-28, 30, 32, 33, 36, 37
    2    7 N      3, 9, 14, 25
    3   35 Br     18, 22-24, 29, 31, 34, 35
    4    1 H      38-60

          program call               : xtb C0861.xyz --opt --namespace C0861 --charge +1
          :  Hamiltonian                  GFN2-xTB          :
 * total energy  :  -109.2512361 Eh     change       -0.2636057E-08 Eh
 * total energy  :  -109.2774357 Eh     change       -0.2619957E-01 Eh
 * total energy  :  -109.2873815 Eh     change       -0.9945774E-02 Eh
 * total energy  :  -109.2897047 Eh     change       -0.2323201E-02 Eh
 * total energy  :  -109.2923200 Eh     change       -0.2615328E-02 Eh
 * total energy  :  -109.2936020 Eh     change       -0.1282010E-02 Eh
 * total energy  :  -109.2948067 Eh     change       -0.1204726E-02 Eh
 * total energy  :  -109.2955501 Eh     change       -0.7433967E-03 Eh
 * total energy  :  -109.2966358 Eh     change       -0.1085708E-02 Eh
 * total energy  :  -109.2974278 Eh     change       -0.7919279E-03 Eh
 * total energy  :  -109.3187289 Eh     change       -0.7004961E-05 Eh
 * total energy  :  -109.3187371 Eh     change       -0.8271035E-05 Eh
 * total energy  :  -109.3187443 Eh     change       -0.7193677E-05 Eh
 * total energy  :  -109.3187511 Eh     change       -0.6748435E-05 Eh
 * total energy  :  -109.3187568 Eh     change       -0.5731883E-05 Eh
 * total energy  :  -109.3187619 Eh     change       -0.5145501E-05 Eh
 * total energy  :  -109.3187674 Eh     change       -0.5442658E-05 Eh
 * total energy  :  -109.3187727 Eh     change       -0.5324464E-05 Eh
 * total energy  :  -109.3187770 Eh     change       -0.4334049E-05 Eh
   *** GEOMETRY OPTIMIZATION CONVERGED AFTER 91 ITERATIONS ***

 final structure:
================
60
 xtb: 6.7.1 (edcfbbe)
C            1.37249528669305       -2.03722477327709       -1.38424092409306
C            0.26801363994729       -1.91641321671070       -0.33957098331447
N            0.59574475028404       -2.62336236309081        0.87923995934097
C            1.12548613247902       -2.04019691195140        1.99339372734462
C            1.58103643180860       -0.73469091314645        2.18606041911275
C            1.90062208906928        0.26920104037872        1.28324507502475
C            2.29235064803977        1.51917499222650        1.74234468523384
C            2.75268337861370        2.65195459666376        1.06964295566734
N            3.18586785416675        2.78480149090802       -0.21783014557180
C            3.36070054953470        1.68702768443500       -1.14305140818978
C            2.14708455516411        1.50874254546232       -2.04914491754742
C            3.51880897128553        4.10370186304888       -0.44593147359787
C            3.29311271314562        4.80028671238284        0.76839611607701
N            2.86437424327293        3.87009888660351        1.68670108312302
C            2.58818019176824        4.10254657852123        3.09007394608913
C            1.11326437497088        4.39554266945184        3.33789331512513
C            3.49112537452308        6.18008319037383        0.84505539974171
Br           3.08768549673628        7.24683770561077        2.36045901380760
C            3.97553424244250        6.83984602006610       -0.28555056975059
C            4.23016776623455        6.14737345909059       -1.47271719431988
C            3.98766945673723        4.77628575019070       -1.57493508017478
Br           4.30891730939464        3.97251885702692       -3.26229551125322
Br           4.88890209940287        7.09524317396585       -2.96354676897082
Br           4.27979673086731        8.69947710950479       -0.22550978602744
N            1.14439709355545       -2.97177407685469        2.99735393964543
C            0.70882978794289       -4.17712147512936        2.49794942085038
C            0.33373977108152       -3.95054949036349        1.14928917885092
C           -0.18270769130317       -4.98770053155129        0.37183163823614
Br          -0.72298542248653       -4.82129899691288       -1.43812493382519
C           -0.30892572784515       -6.24991788615372        0.95513547583985
Br          -1.01569017563712       -7.67943102870437       -0.05094019373273
C            0.09949807855782       -6.48215769010979        2.27163579728912
C            0.62239467110095       -5.45345708675358        3.05672599972001
Br           1.23046205516149       -5.91469941191453        4.79287158383230
Br          -0.04940219661040       -8.22083822408648        2.98513037781279
C            1.54662212540521       -2.69116224671970        4.36095550002327
C            3.05456487232371       -2.81286962009991        4.54554077624889
H            1.09911064799297       -1.46480678623105       -2.26483051817918
H            1.50235270637958       -3.07212029823303       -1.68522008821032
H            2.32380982398990       -1.67692810948253       -1.00064503564694
H            0.08137034030531       -0.87525251921010       -0.07207406864587
H           -0.66260628608848       -2.32065292890914       -0.73658932793009
H            1.77347613664005       -0.48159811696537        3.21766304628984
H            1.84919396159448        0.07622715416779        0.22876171250054
H            2.18943923513146        1.65067230610293        2.80889126921573
H            4.24776464056037        1.87807191531202       -1.74567516843359
H            3.55777836968869        0.79085345393968       -0.55295120981853
H            1.99713412346711        2.39202717381772       -2.66233745556446
H            2.31213939177361        0.66562741099858       -2.71215792232981
H            1.24108838991001        1.34205325776134       -1.47177960404925
H            2.90628753994428        3.22340032015253        3.65350267798403
H            3.20192379624214        4.93375504085704        3.42970420938610
H            0.49160343737757        3.56870734615308        3.00325471936335
H            0.94963866652167        4.55105807920747        4.39954016921906
H            0.80857877312089        5.29609617699507        2.81243641303840
H            1.20610727793612       -1.68655424986766        4.61912400290498
H            1.02733093545994       -3.38026544032450        5.02302338221405
H            3.58306359048922       -2.12674733906181        3.88823072203512
H            3.31187027463120       -2.58228356732834        5.57446045917817
H            3.38553269897346       -3.82513866217508        4.33186212184835

          :  Hamiltonian                  GFN2-xTB          :
         :: total energy            -109.318777048543 Eh    ::
         :: gradient norm              0.000163766727 Eh/a0 ::
         :: HOMO-LUMO gap              1.635848187147 eV    ::
         :: SCC energy              -110.552170814924 Eh    ::
         :: -> dispersion             -0.096141254999 Eh    ::
         :: repulsion energy           1.233393766381 Eh    ::

    * Orbital Energies and Occupations

         #    Occupation            Energy/Eh            Energy/eV
      -------------------------------------------------------------
         1        2.0000           -0.9507499             -25.8712
       ...           ...                  ...                  ...
        87        2.0000           -0.5278374             -14.3632
        88        2.0000           -0.5273869             -14.3509
        89        2.0000           -0.5264517             -14.3255
        90        2.0000           -0.5261904             -14.3184
        91        2.0000           -0.5159357             -14.0393
        92        2.0000           -0.5157036             -14.0330
        93        2.0000           -0.5055863             -13.7577
        94        2.0000           -0.5017837             -13.6542
        95        2.0000           -0.5012469             -13.6396
        96        2.0000           -0.5009918             -13.6327
        97        2.0000           -0.5000892             -13.6081
        98        2.0000           -0.4998576             -13.6018
        99        2.0000           -0.4766094             -12.9692 (HOMO)
       100                         -0.4164931             -11.3334 (LUMO)
       101                         -0.3855889             -10.4924
       102                         -0.3718797             -10.1194
       103                         -0.3715569             -10.1106
       104                         -0.3689677             -10.0401
       105                         -0.3451073              -9.3908
       106                         -0.3447740              -9.3818
       107                         -0.3281477              -8.9294
       108                         -0.3280226              -8.9259
       109                         -0.3173411              -8.6353
       110                         -0.3004960              -8.1769
       ...                                ...                  ...
       211                          0.5330536              14.5051
      -------------------------------------------------------------
                  HL-Gap            0.0601163 Eh            1.6358 eV

     #   Z          covCN         q      C6AA      α(0)
     1   6 C        3.752    -0.125    22.957     6.833
     2   6 C        3.740    -0.017    20.955     6.531
     3   7 N        2.812    -0.010    21.449     6.879
     4   6 C        3.021     0.110    25.540     8.290
     5   6 C        2.908    -0.097    30.432     9.046
     6   6 C        2.891    -0.025    28.617     8.771
     7   6 C        2.907    -0.097    30.434     9.046
     8   6 C        3.020     0.110    25.543     8.290
     9   7 N        2.813    -0.010    21.452     6.879
    10   6 C        3.740    -0.017    20.958     6.532
    11   6 C        3.752    -0.125    22.954     6.832
    12   6 C        3.092     0.033    27.149     8.540
    13   6 C        3.090     0.035    27.109     8.534
    14   7 N        2.817    -0.013    21.500     6.887
    15   6 C        3.740    -0.017    20.954     6.531
    16   6 C        3.752    -0.123    22.919     6.827
    17   6 C        2.975     0.045    26.975     8.519
    18  35 Br       1.341    -0.081   187.269    22.065
    19   6 C        3.083     0.057    26.633     8.460
    20   6 C        3.085     0.056    26.642     8.461
    21   6 C        2.975     0.046    26.972     8.519
    22  35 Br       1.350    -0.084   187.351    22.070
    23  35 Br       1.618    -0.055   186.540    22.022
    24  35 Br       1.611    -0.054   186.517    22.020
    25   7 N        2.818    -0.013    21.497     6.886
    26   6 C        3.091     0.035    27.108     8.534
    27   6 C        3.093     0.033    27.148     8.540
    28   6 C        2.975     0.046    26.967     8.518
    29  35 Br       1.350    -0.084   187.344    22.069
    30   6 C        3.085     0.056    26.643     8.461
    31  35 Br       1.617    -0.055   186.536    22.021
    32   6 C        3.083     0.057    26.632     8.460
    33   6 C        2.975     0.046    26.974     8.519
    34  35 Br       1.340    -0.081   187.266    22.065
    35  35 Br       1.609    -0.054   186.512    22.020
    36   6 C        3.740    -0.017    20.953     6.531
    37   6 C        3.752    -0.123    22.921     6.827
    38   1 H        0.925     0.071     2.080     2.255
    39   1 H        0.925     0.071     2.072     2.251
    40   1 H        0.925     0.051     2.311     2.377
    41   1 H        0.924     0.071     2.072     2.251
    42   1 H        0.925     0.091     1.874     2.141
    43   1 H        0.926     0.061     2.185     2.311
    44   1 H        0.926     0.063     2.164     2.300
    45   1 H        0.926     0.061     2.186     2.312
    46   1 H        0.925     0.091     1.873     2.140
    47   1 H        0.924     0.071     2.080     2.255
    48   1 H        0.925     0.071     2.077     2.254
    49   1 H        0.925     0.070     2.081     2.256
    50   1 H        0.925     0.051     2.305     2.374
    51   1 H        0.924     0.069     2.091     2.261
    52   1 H        0.925     0.093     1.848     2.126
    53   1 H        0.925     0.054     2.271     2.357
    54   1 H        0.925     0.073     2.048     2.238
    55   1 H        0.925     0.067     2.123     2.279
    56   1 H        0.924     0.070     2.089     2.260
    57   1 H        0.925     0.093     1.846     2.125
    58   1 H        0.925     0.054     2.274     2.358
    59   1 H        0.925     0.074     2.047     2.238
    60   1 H        0.925     0.067     2.122     2.278

Wiberg/Mayer (AO) data.
largest (>0.10) Wiberg bond orders for each atom

     #   Z sym  total        # sym  WBO       # sym  WBO       # sym  WBO
 ---------------------------------------------------------------------------
     1   6 C    3.984 --     2 C    1.006    40 H    0.981    38 H    0.978
                            39 H    0.978
     2   6 C    3.946 --     1 C    1.006     3 N    0.973    41 H    0.958
                            42 H    0.954
     3   7 N    3.579 --     4 C    1.203    27 C    1.147     2 C    0.973
     4   6 C    3.917 --     5 C    1.313     3 N    1.203    25 N    1.195
     5   6 C    3.930 --     6 C    1.422     4 C    1.313    43 H    0.944
     6   6 C    3.961 --     5 C    1.422     7 C    1.419    44 H    0.945
     7   6 C    3.930 --     6 C    1.419     8 C    1.316    45 H    0.944
     8   6 C    3.917 --     7 C    1.316     9 N    1.202    14 N    1.194
     9   7 N    3.579 --     8 C    1.202    12 C    1.148    10 C    0.973
    10   6 C    3.946 --    11 C    1.006     9 N    0.973    47 H    0.957
                            46 H    0.954
    11   6 C    3.983 --    10 C    1.006    50 H    0.982    48 H    0.979
                            49 H    0.978
    12   6 C    3.962 --    21 C    1.324    13 C    1.240     9 N    1.148
    13   6 C    3.964 --    17 C    1.319    12 C    1.240    14 N    1.158
    14   7 N    3.579 --     8 C    1.194    13 C    1.158    15 C    0.971
    15   6 C    3.945 --    16 C    1.006    14 N    0.971    51 H    0.956
                            52 H    0.953
    16   6 C    3.983 --    15 C    1.006    53 H    0.984    55 H    0.982
                            54 H    0.979
    17   6 C    3.934 --    19 C    1.362    13 C    1.319    18 Br   1.020
    18  35 Br   1.233 --    17 C    1.020
    19   6 C    3.944 --    17 C    1.362    20 C    1.333    24 Br   1.049
    20   6 C    3.942 --    21 C    1.360    19 C    1.333    23 Br   1.048
    21   6 C    3.934 --    20 C    1.360    12 C    1.324    22 Br   1.018
    22  35 Br   1.231 --    21 C    1.018
    23  35 Br   1.268 --    20 C    1.048
    24  35 Br   1.269 --    19 C    1.049
    25   7 N    3.579 --     4 C    1.195    26 C    1.157    36 C    0.971
    26   6 C    3.964 --    33 C    1.318    27 C    1.240    25 N    1.157
    27   6 C    3.962 --    28 C    1.324    26 C    1.240     3 N    1.147
    28   6 C    3.935 --    30 C    1.360    27 C    1.324    29 Br   1.018
    29  35 Br   1.231 --    28 C    1.018
    30   6 C    3.942 --    28 C    1.360    32 C    1.333    31 Br   1.048
    31  35 Br   1.268 --    30 C    1.048
    32   6 C    3.944 --    33 C    1.362    30 C    1.333    35 Br   1.049
    33   6 C    3.934 --    32 C    1.362    26 C    1.318    34 Br   1.020
    34  35 Br   1.233 --    33 C    1.020
    35  35 Br   1.269 --    32 C    1.049
    36   6 C    3.945 --    37 C    1.006    25 N    0.971    56 H    0.957
                            57 H    0.953
    37   6 C    3.983 --    36 C    1.006    58 H    0.984    60 H    0.982
                            59 H    0.979
    38   1 H    0.994 --     1 C    0.978
    39   1 H    0.995 --     1 C    0.978
    40   1 H    0.997 --     1 C    0.981
    41   1 H    0.994 --     2 C    0.958
    42   1 H    0.991 --     2 C    0.954
    43   1 H    0.995 --     5 C    0.944
    44   1 H    0.996 --     6 C    0.945
    45   1 H    0.995 --     7 C    0.944
    46   1 H    0.991 --    10 C    0.954
    47   1 H    0.994 --    10 C    0.957
    48   1 H    0.995 --    11 C    0.979
    49   1 H    0.994 --    11 C    0.978
    50   1 H    0.997 --    11 C    0.982
    51   1 H    0.994 --    15 C    0.956
    52   1 H    0.990 --    15 C    0.953
    53   1 H    0.997 --    16 C    0.984
    54   1 H    0.994 --    16 C    0.979
    55   1 H    0.996 --    16 C    0.982
    56   1 H    0.994 --    36 C    0.957
    57   1 H    0.990 --    36 C    0.953
    58   1 H    0.997 --    37 C    0.984
    59   1 H    0.994 --    37 C    0.979
    60   1 H    0.996 --    37 C    0.982
 ---------------------------------------------------------------------------

molecular dipole:
                 x           y           z       tot (Debye)
 q only:        3.643       0.622       3.155
   full:        3.656       0.608       3.151      12.364

           -------------------------------------------------
          | TOTAL ENERGY             -109.318777048543 Eh   |
          | GRADIENT NORM               0.000163766727 Eh/α |
          | HOMO-LUMO GAP               1.635848187147 eV   |
           -------------------------------------------------

 * finished run on 2024/12/20 at 07:01:55.456
