   * xtb version 6.7.1 (edcfbbe) compiled by 'conda@3ef47c1a292c' on 2024-11-25

   ID    Z sym.   atoms
    1    6 C      1-14, 16-33
    2   15 P      15
    3    1 H      34-101

          program call               : xtb C0860.xyz --opt --namespace C0860 --charge +1
          :  Hamiltonian                  GFN2-xTB          :
 * total energy  :  -105.3792474 Eh     change       -0.1830358E-09 Eh
 * total energy  :  -105.3858658 Eh     change       -0.6618397E-02 Eh
 * total energy  :  -105.3875519 Eh     change       -0.1686133E-02 Eh
 * total energy  :  -105.3878211 Eh     change       -0.2691472E-03 Eh
 * total energy  :  -105.3879973 Eh     change       -0.1762109E-03 Eh
 * total energy  :  -105.3881160 Eh     change       -0.1187561E-03 Eh
 * total energy  :  -105.3882588 Eh     change       -0.1427540E-03 Eh
 * total energy  :  -105.3884043 Eh     change       -0.1454979E-03 Eh
 * total energy  :  -105.3885424 Eh     change       -0.1381697E-03 Eh
 * total energy  :  -105.3886790 Eh     change       -0.1365706E-03 Eh
 * total energy  :  -105.3915822 Eh     change       -0.7879478E-05 Eh
 * total energy  :  -105.3915913 Eh     change       -0.9051027E-05 Eh
 * total energy  :  -105.3916017 Eh     change       -0.1041602E-04 Eh
 * total energy  :  -105.3916134 Eh     change       -0.1167726E-04 Eh
 * total energy  :  -105.3916259 Eh     change       -0.1251965E-04 Eh
 * total energy  :  -105.3916397 Eh     change       -0.1385700E-04 Eh
 * total energy  :  -105.3916561 Eh     change       -0.1639744E-04 Eh
 * total energy  :  -105.3916765 Eh     change       -0.2041480E-04 Eh
 * total energy  :  -105.3916809 Eh     change       -0.4389967E-05 Eh
   *** GEOMETRY OPTIMIZATION CONVERGED AFTER 94 ITERATIONS ***

 final structure:
================
101
 xtb: 6.7.1 (edcfbbe)
C            1.02056678490907       -0.27553453233798       -0.80012168718871
C            0.76929041979630       -0.79300427443467        0.61101866602273
C            0.87146419492898        0.29666068132077        1.67904244610460
C           -0.16558994918674        1.41544653450923        1.56020966356657
C           -1.62349489382396        0.96310019027204        1.66801397726548
C           -1.98056536103924        0.22830554783740        2.96198639880651
C           -1.66337881010836        0.99335903186084        4.24800908950471
C           -2.36793179612171        2.34446868303559        4.38114935241114
C           -3.89286423373787        2.27177924741707        4.48195382250220
C           -4.43202290254090        1.45851479161148        5.66349031520029
C           -3.80627601033180        1.79650390242741        7.01862000083359
C           -4.03911979711273        3.24279667566271        7.46893626264849
C           -5.32575477564240        3.43629205585654        8.27055381405334
C           -5.26445299920567        2.86098748280872        9.69166946051590
P           -4.53126846221056        3.96031189133162       10.96292543953783
C           -5.41303789365000        5.56728843706524       10.90532305731821
C           -6.93067595416295        5.52725127884076       10.70752067045274
C           -7.71836276066923        4.89096597701862       11.85224904761807
C           -7.64666817788420        5.64171512392346       13.18462996521299
C           -8.20017964599215        7.06822988685973       13.14872685965189
C           -9.67569124219803        7.13544097423285       12.77470246766612
C           -4.70065295161127        3.25221707216085       12.65423802655728
C           -5.12068691354989        1.78381829229738       12.74115702545379
C           -4.00186886874664        0.81171412129399       12.36407609751091
C           -2.96948889267965        0.60139215082823       13.47547496631563
C           -3.46939505401355       -0.25019232892620       14.64473371369805
C           -3.68820638413526       -1.71198142452858       14.27436859257407
C           -2.78080021612448        4.48301045916295       10.74985316045987
C           -1.68102627439744        3.47158852780363       11.08176852453911
C           -1.38975561309901        2.46309818888845        9.96865880690804
C           -0.52590408060924        3.03672702242548        8.84118164328248
C            0.95909118396216        3.14404964882017        9.19608921548730
C            1.65956422238177        1.79141252011595        9.24097705622513
H            0.24315970502846        0.41861170830115       -1.10873100341490
H            1.03427488471830       -1.10177211802538       -1.50701768450183
H            1.97978143213284        0.23518838812311       -0.85263935990139
H           -0.21269778296814       -1.26699910337747        0.65586210216839
H            1.51129332512070       -1.56186625535603        0.84061561193947
H            0.78963417349566       -0.17005018304439        2.66310635859319
H            1.86470863433285        0.74940643193539        1.61791427862350
H            0.04101471864321        2.15632909354968        2.33616881066427
H           -0.03710994027387        1.91945530265250        0.60071780011418
H           -2.26235741039145        1.84319499089604        1.56306361345980
H           -1.85689034012594        0.30335956280373        0.83051631043023
H           -3.04603053060420       -0.01141153330282        2.93661693701660
H           -1.44200810770466       -0.72081565585928        2.99315818221651
H           -1.92713209538655        0.35727160886413        5.09630487470983
H           -0.58670966374772        1.16587810813875        4.30131562429790
H           -1.97198073770956        2.85958493267632        5.26024878233677
H           -2.11686086050800        2.96155369365910        3.51751333538984
H           -4.27805737801295        3.29355701078081        4.53312236156971
H           -4.29282122730356        1.83507122710424        3.56614880169166
H           -5.51400806749648        1.60386373888791        5.71430491904347
H           -4.25956070346737        0.39834530544337        5.47195379786889
H           -4.21143422205249        1.10297179586853        7.76020745268397
H           -2.73461732051866        1.60899894530827        6.96169830151331
H           -3.19232963474411        3.58074631407390        8.06427088785031
H           -4.08560140509203        3.88192651121012        6.58821016735951
H           -5.56578732782852        4.50055620726108        8.30600823922870
H           -6.14061481715921        2.93735673206090        7.74258331021215
H           -6.27950971724553        2.67095365166882       10.05583609913690
H           -4.73263630446202        1.90852891255032        9.69598764557879
H           -5.16529755243263        6.09297534466551       11.83195190720112
H           -4.95898689506189        6.13158993831844       10.08360665781534
H           -7.27022950922352        6.55543173097773       10.57416254206200
H           -7.16874937104704        4.99381406884603        9.78590445206115
H           -8.76347380499166        4.83478480549771       11.54675002035214
H           -7.37597467676015        3.86232263384314       12.00093203340869
H           -8.21734925873618        5.06991795921593       13.91949404772862
H           -6.61382834742283        5.68491667801615       13.54241725078424
H           -8.07120347361943        7.49811904408864       14.14397376788750
H           -7.61885524453993        7.68183240177969       12.45739764111051
H          -10.26257277656247        6.48925734649217       13.42300007239959
H          -10.04108697057682        8.15241814372338       12.88819089659047
H           -9.84078575468830        6.83450382254529       11.74318590976845
H           -3.73943994961414        3.39475087602785       13.15468780569639
H           -5.43047524220456        3.87424659634486       13.17600861487433
H           -5.43125154601369        1.58619045799939       13.76804238424683
H           -5.99266771752424        1.60852954698515       12.10829658410641
H           -4.44029100590133       -0.15290952124491       12.11002722951094
H           -3.49098535006822        1.18498024636844       11.47236233981921
H           -2.09356795025229        0.11167693326005       13.04539691180406
H           -2.64284237748638        1.56894637280568       13.86570733888433
H           -2.72363702742276       -0.20014670457793       15.44016889504605
H           -4.39644612964587        0.16514896867801       15.04478608861686
H           -2.78037274893765       -2.13926805458960       13.85515978116942
H           -3.95585192541664       -2.28305000376206       15.15912903711996
H           -4.49039136513874       -1.82567201600900       13.54940378076202
H           -2.66197895382483        4.86497703064783        9.73367061043463
H           -2.69516307030628        5.34008678285706       11.42958627380861
H           -0.76839120005471        4.03377531441042       11.28679651092524
H           -1.93456379265784        2.93636974229287       11.99762093989339
H           -0.87146353343316        1.60758139974958       10.40159199181923
H           -2.33088990318131        2.09503052662681        9.55594428298653
H           -0.61990310980241        2.39538175051892        7.96283016669842
H           -0.89245056620617        4.02786149193519        8.56204447806208
H            1.44697558273837        3.76321012657958        8.44121737185691
H            1.08042093946778        3.64778846683249       10.15722792687195
H            1.56186518092131        1.28034615161302        8.28608706324602
H            2.71762290295031        1.92601710284596        9.44827021845893
H            1.24573632414860        1.15193733445788       10.01685569698455

          :  Hamiltonian                  GFN2-xTB          :
         :: total energy            -105.391680932433 Eh    ::
         :: gradient norm              0.000213014289 Eh/a0 ::
         :: HOMO-LUMO gap              4.427542307811 eV    ::
         :: SCC energy              -106.947761715214 Eh    ::
         :: -> dispersion             -0.094064212458 Eh    ::
         :: repulsion energy           1.556080782781 Eh    ::

    * Orbital Energies and Occupations

         #    Occupation            Energy/Eh            Energy/eV
      -------------------------------------------------------------
         1        2.0000           -0.8365137             -22.7627
       ...           ...                  ...                  ...
        88        2.0000           -0.5125168             -13.9463
        89        2.0000           -0.5106530             -13.8956
        90        2.0000           -0.5088571             -13.8467
        91        2.0000           -0.5061750             -13.7737
        92        2.0000           -0.5001441             -13.6096
        93        2.0000           -0.4966395             -13.5142
        94        2.0000           -0.4909508             -13.3595
        95        2.0000           -0.4826592             -13.1338
        96        2.0000           -0.4802913             -13.0694
        97        2.0000           -0.4757709             -12.9464
        98        2.0000           -0.4657398             -12.6734
        99        2.0000           -0.4606386             -12.5346
       100        2.0000           -0.4588197             -12.4851 (HOMO)
       101                         -0.2961105              -8.0576 (LUMO)
       102                         -0.2792363              -7.5984
       103                         -0.2597884              -7.0692
       104                         -0.1914905              -5.2107
       105                         -0.1121726              -3.0524
       106                         -0.0715840              -1.9479
       107                         -0.0529818              -1.4417
       108                         -0.0480488              -1.3075
       109                         -0.0459571              -1.2506
       110                         -0.0399445              -1.0869
       111                         -0.0335985              -0.9143
       ...                                ...                  ...
       205                          0.8221446              22.3717
      -------------------------------------------------------------
                  HL-Gap            0.1627092 Eh            4.4275 eV

     #   Z          covCN         q      C6AA      α(0)
     1   6 C        3.751    -0.102    22.513     6.766
     2   6 C        3.799    -0.052    21.513     6.604
     3   6 C        3.800    -0.057    21.597     6.617
     4   6 C        3.800    -0.057    21.601     6.617
     5   6 C        3.800    -0.057    21.601     6.617
     6   6 C        3.800    -0.057    21.603     6.618
     7   6 C        3.800    -0.057    21.592     6.616
     8   6 C        3.800    -0.058    21.624     6.621
     9   6 C        3.800    -0.059    21.635     6.623
    10   6 C        3.800    -0.060    21.654     6.625
    11   6 C        3.800    -0.061    21.666     6.627
    12   6 C        3.801    -0.069    21.822     6.651
    13   6 C        3.843    -0.062    21.665     6.621
    14   6 C        3.750    -0.066    21.833     6.664
    15  15 P        3.876     0.180   152.500    22.183
    16   6 C        3.749    -0.078    22.054     6.698
    17   6 C        3.835    -0.064    21.709     6.629
    18   6 C        3.800    -0.065    21.747     6.640
    19   6 C        3.800    -0.060    21.657     6.626
    20   6 C        3.799    -0.056    21.579     6.614
    21   6 C        3.751    -0.108    22.629     6.784
    22   6 C        3.750    -0.077    22.040     6.695
    23   6 C        3.837    -0.063    21.683     6.625
    24   6 C        3.801    -0.066    21.768     6.643
    25   6 C        3.801    -0.060    21.662     6.626
    26   6 C        3.800    -0.057    21.591     6.616
    27   6 C        3.752    -0.107    22.615     6.782
    28   6 C        3.749    -0.073    21.968     6.685
    29   6 C        3.830    -0.064    21.713     6.630
    30   6 C        3.800    -0.064    21.732     6.637
    31   6 C        3.801    -0.060    21.657     6.626
    32   6 C        3.800    -0.057    21.592     6.616
    33   6 C        3.752    -0.107    22.604     6.780
    34   1 H        0.925     0.034     2.524     2.484
    35   1 H        0.925     0.033     2.541     2.493
    36   1 H        0.925     0.034     2.530     2.487
    37   1 H        0.924     0.031     2.576     2.510
    38   1 H        0.924     0.027     2.625     2.534
    39   1 H        0.924     0.026     2.639     2.541
    40   1 H        0.924     0.029     2.607     2.525
    41   1 H        0.924     0.025     2.654     2.548
    42   1 H        0.924     0.034     2.535     2.490
    43   1 H        0.924     0.026     2.642     2.542
    44   1 H        0.924     0.035     2.523     2.484
    45   1 H        0.924     0.027     2.629     2.536
    46   1 H        0.924     0.033     2.540     2.492
    47   1 H        0.924     0.024     2.680     2.560
    48   1 H        0.924     0.032     2.552     2.498
    49   1 H        0.924     0.021     2.712     2.575
    50   1 H        0.924     0.039     2.464     2.455
    51   1 H        0.924     0.023     2.687     2.564
    52   1 H        0.924     0.042     2.426     2.436
    53   1 H        0.924     0.027     2.626     2.534
    54   1 H        0.924     0.041     2.441     2.443
    55   1 H        0.924     0.022     2.698     2.569
    56   1 H        0.925     0.044     2.390     2.418
    57   1 H        0.925     0.036     2.507     2.476
    58   1 H        0.925     0.058     2.228     2.334
    59   1 H        0.924     0.046     2.364     2.405
    60   1 H        0.924     0.065     2.145     2.290
    61   1 H        0.929     0.089     1.892     2.151
    62   1 H        0.926     0.095     1.834     2.118
    63   1 H        0.927     0.085     1.927     2.171
    64   1 H        0.927     0.079     1.986     2.203
    65   1 H        0.924     0.067     2.114     2.274
    66   1 H        0.924     0.049     2.332     2.388
    67   1 H        0.924     0.058     2.218     2.329
    68   1 H        0.924     0.029     2.606     2.525
    69   1 H        0.924     0.044     2.400     2.423
    70   1 H        0.924     0.018     2.763     2.600
    71   1 H        0.924     0.040     2.445     2.445
    72   1 H        0.924     0.029     2.595     2.519
    73   1 H        0.925     0.042     2.422     2.434
    74   1 H        0.925     0.045     2.383     2.414
    75   1 H        0.925     0.035     2.514     2.479
    76   1 H        0.926     0.087     1.904     2.158
    77   1 H        0.927     0.091     1.874     2.140
    78   1 H        0.924     0.068     2.109     2.271
    79   1 H        0.924     0.044     2.403     2.424
    80   1 H        0.925     0.055     2.258     2.350
    81   1 H        0.924     0.034     2.533     2.489
    82   1 H        0.924     0.042     2.416     2.431
    83   1 H        0.924     0.023     2.686     2.563
    84   1 H        0.924     0.040     2.443     2.444
    85   1 H        0.924     0.031     2.571     2.507
    86   1 H        0.925     0.041     2.441     2.443
    87   1 H        0.925     0.045     2.387     2.416
    88   1 H        0.925     0.034     2.527     2.486
    89   1 H        0.926     0.089     1.890     2.150
    90   1 H        0.929     0.081     1.967     2.193
    91   1 H        0.924     0.065     2.142     2.289
    92   1 H        0.924     0.051     2.309     2.376
    93   1 H        0.925     0.053     2.278     2.360
    94   1 H        0.924     0.034     2.529     2.487
    95   1 H        0.924     0.043     2.414     2.430
    96   1 H        0.924     0.024     2.674     2.557
    97   1 H        0.924     0.040     2.455     2.450
    98   1 H        0.924     0.031     2.578     2.511
    99   1 H        0.925     0.041     2.442     2.444
   100   1 H        0.925     0.044     2.398     2.422
   101   1 H        0.925     0.034     2.535     2.490

Wiberg/Mayer (AO) data.
largest (>0.10) Wiberg bond orders for each atom

     #   Z sym  total        # sym  WBO       # sym  WBO       # sym  WBO
 ---------------------------------------------------------------------------
     1   6 C    3.997 --     2 C    1.020    36 H    0.988    35 H    0.987
                            34 H    0.986
     2   6 C    3.998 --     1 C    1.020     3 C    1.008    38 H    0.978
                            37 H    0.976
     3   6 C    3.998 --     2 C    1.008     4 C    1.008    40 H    0.977
                            39 H    0.975
     4   6 C    3.997 --     5 C    1.008     3 C    1.008    41 H    0.975
                            42 H    0.975
     5   6 C    3.997 --     4 C    1.008     6 C    1.008    43 H    0.975
                            44 H    0.975
     6   6 C    3.997 --     7 C    1.008     5 C    1.008    45 H    0.976
                            46 H    0.975
     7   6 C    3.998 --     8 C    1.008     6 C    1.008    47 H    0.975
                            48 H    0.974
     8   6 C    3.997 --     9 C    1.008     7 C    1.008    49 H    0.975
                            50 H    0.973
     9   6 C    3.996 --     8 C    1.008    10 C    1.007    51 H    0.974
                            52 H    0.974
    10   6 C    3.996 --    11 C    1.007     9 C    1.007    53 H    0.977
                            54 H    0.975
    11   6 C    3.996 --    10 C    1.007    12 C    1.005    55 H    0.972
                            56 H    0.971
    12   6 C    3.993 --    13 C    1.007    11 C    1.005    58 H    0.968
                            57 H    0.964
    13   6 C    3.987 --    12 C    1.007    14 C    0.984    60 H    0.968
                            59 H    0.965
    14   6 C    3.984 --    15 P    0.998    13 C    0.984    62 H    0.929
                            61 H    0.925
    15  15 P    4.543 --    16 C    1.010    28 C    1.000    14 C    0.998
                            22 C    0.992
    16   6 C    3.989 --    15 P    1.010    17 C    0.991    64 H    0.935
                            63 H    0.933
    17   6 C    3.986 --    18 C    1.008    16 C    0.991    66 H    0.968
                            65 H    0.965
    18   6 C    3.994 --    17 C    1.008    19 C    1.007    67 H    0.971
                            68 H    0.963
    19   6 C    3.996 --    18 C    1.007    20 C    1.007    69 H    0.976
                            70 H    0.970
    20   6 C    3.997 --    21 C    1.021    19 C    1.007    71 H    0.977
                            72 H    0.975
    21   6 C    3.995 --    20 C    1.021    73 H    0.987    74 H    0.986
                            75 H    0.986
    22   6 C    3.985 --    15 P    0.992    23 C    0.992    77 H    0.931
                            76 H    0.931
    23   6 C    3.988 --    24 C    1.007    22 C    0.992    79 H    0.969
                            78 H    0.964
    24   6 C    3.994 --    23 C    1.007    25 C    1.007    80 H    0.971
                            81 H    0.960
    25   6 C    3.996 --    26 C    1.007    24 C    1.007    82 H    0.976
                            83 H    0.973
    26   6 C    3.996 --    27 C    1.021    25 C    1.007    84 H    0.977
                            85 H    0.974
    27   6 C    3.995 --    26 C    1.021    86 H    0.987    87 H    0.986
                            88 H    0.985
    28   6 C    3.986 --    15 P    1.000    29 C    0.992    89 H    0.931
                            90 H    0.929
    29   6 C    3.985 --    30 C    1.007    28 C    0.992    91 H    0.964
                            92 H    0.962
    30   6 C    3.994 --    31 C    1.007    29 C    1.007    93 H    0.971
                            94 H    0.965
    31   6 C    3.996 --    32 C    1.007    30 C    1.007    95 H    0.974
                            96 H    0.973
    32   6 C    3.996 --    33 C    1.021    31 C    1.007    97 H    0.977
                            98 H    0.974
    33   6 C    3.995 --    32 C    1.021    99 H    0.987   100 H    0.986
                           101 H    0.984
    34   1 H    0.999 --     1 C    0.986
    35   1 H    0.999 --     1 C    0.987
    36   1 H    0.999 --     1 C    0.988
    37   1 H    0.999 --     2 C    0.976
    38   1 H    0.999 --     2 C    0.978
    39   1 H    0.999 --     3 C    0.975
    40   1 H    0.999 --     3 C    0.977
    41   1 H    0.999 --     4 C    0.975
    42   1 H    0.999 --     4 C    0.975
    43   1 H    0.999 --     5 C    0.975
    44   1 H    0.999 --     5 C    0.975
    45   1 H    0.999 --     6 C    0.976
    46   1 H    0.999 --     6 C    0.975
    47   1 H    0.999 --     7 C    0.975
    48   1 H    0.999 --     7 C    0.974
    49   1 H    1.000 --     8 C    0.975
    50   1 H    0.998 --     8 C    0.973
    51   1 H    0.999 --     9 C    0.974
    52   1 H    0.998 --     9 C    0.974
    53   1 H    0.999 --    10 C    0.977
    54   1 H    0.998 --    10 C    0.975
    55   1 H    0.999 --    11 C    0.972
    56   1 H    0.998 --    11 C    0.971
    57   1 H    0.999 --    12 C    0.964
    58   1 H    0.996 --    12 C    0.968
    59   1 H    0.998 --    13 C    0.965
    60   1 H    0.995 --    13 C    0.968
    61   1 H    0.992 --    14 C    0.925
    62   1 H    0.991 --    14 C    0.929
    63   1 H    0.993 --    16 C    0.933
    64   1 H    0.993 --    16 C    0.935
    65   1 H    0.995 --    17 C    0.965
    66   1 H    0.998 --    17 C    0.968
    67   1 H    0.996 --    18 C    0.971
    68   1 H    0.999 --    18 C    0.963
    69   1 H    0.998 --    19 C    0.976
    70   1 H    1.000 --    19 C    0.970
    71   1 H    0.998 --    20 C    0.977
    72   1 H    0.999 --    20 C    0.975
    73   1 H    0.998 --    21 C    0.987
    74   1 H    0.998 --    21 C    0.986
    75   1 H    0.999 --    21 C    0.986
    76   1 H    0.992 --    22 C    0.931
    77   1 H    0.992 --    22 C    0.931
    78   1 H    0.995 --    23 C    0.964
    79   1 H    0.998 --    23 C    0.969
    80   1 H    0.997 --    24 C    0.971
    81   1 H    0.999 --    24 C    0.960
    82   1 H    0.998 --    25 C    0.976
    83   1 H    0.999 --    25 C    0.973
    84   1 H    0.998 --    26 C    0.977
    85   1 H    0.999 --    26 C    0.974
    86   1 H    0.998 --    27 C    0.987
    87   1 H    0.998 --    27 C    0.986
    88   1 H    0.999 --    27 C    0.985
    89   1 H    0.992 --    28 C    0.931
    90   1 H    0.993 --    28 C    0.929
    91   1 H    0.995 --    29 C    0.964
    92   1 H    0.997 --    29 C    0.962
    93   1 H    0.997 --    30 C    0.971
    94   1 H    0.999 --    30 C    0.965
    95   1 H    0.998 --    31 C    0.974
    96   1 H    0.999 --    31 C    0.973
    97   1 H    0.998 --    32 C    0.977
    98   1 H    0.999 --    32 C    0.974
    99   1 H    0.998 --    33 C    0.987
   100   1 H    0.998 --    33 C    0.986
   101   1 H    0.999 --    33 C    0.984
 ---------------------------------------------------------------------------

molecular dipole:
                 x           y           z       tot (Debye)
 q only:       -8.383       6.869      20.299
   full:       -8.428       7.056      20.404      58.907

           -------------------------------------------------
          | TOTAL ENERGY             -105.391680932433 Eh   |
          | GRADIENT NORM               0.000213014289 Eh/α |
          | HOMO-LUMO GAP               4.427542307811 eV   |
           -------------------------------------------------

 * finished run on 2024/12/20 at 07:01:46.457
