   * xtb version 6.7.1 (edcfbbe) compiled by 'conda@3ef47c1a292c' on 2024-11-25

   ID    Z sym.   atoms
    1    6 C      1, 2, 4, 5, 7-9
    2    8 O      3
    3    7 N      6
    4    1 H      10-25

          program call               : xtb C0863.xyz --opt --namespace C0863 --charge +1
          :  Hamiltonian                  GFN2-xTB          :
 * total energy  :   -29.6900492 Eh     change       -0.1285301E-09 Eh
 * total energy  :   -29.6944510 Eh     change       -0.4401748E-02 Eh
 * total energy  :   -29.6955657 Eh     change       -0.1114744E-02 Eh
 * total energy  :   -29.6957244 Eh     change       -0.1586689E-03 Eh
 * total energy  :   -29.6958187 Eh     change       -0.9431841E-04 Eh
 * total energy  :   -29.6958777 Eh     change       -0.5899817E-04 Eh
 * total energy  :   -29.6959441 Eh     change       -0.6645561E-04 Eh
 * total energy  :   -29.6959876 Eh     change       -0.4344363E-04 Eh
 * total energy  :   -29.6960062 Eh     change       -0.1859139E-04 Eh
 * total energy  :   -29.6960181 Eh     change       -0.1191898E-04 Eh
 * total energy  :   -29.6960132 Eh     change        0.4893912E-05 Eh
 * total energy  :   -29.6960219 Eh     change       -0.8698675E-05 Eh
 * total energy  :   -29.6960282 Eh     change       -0.6332009E-05 Eh
 * total energy  :   -29.6960320 Eh     change       -0.3747577E-05 Eh
   *** GEOMETRY OPTIMIZATION CONVERGED AFTER 14 ITERATIONS ***

 final structure:
================
25
 xtb: 6.7.1 (edcfbbe)
C            0.26722054319154       -0.44244152658740       -0.51755125604314
C            0.51857909151170        0.98190225540708       -0.99422454380419
O            1.29783566446261        1.00989270014250       -2.18954930715162
C            2.61616200748399        0.97617242062914       -2.22523635296088
C            3.58946568383692        0.97182563957928       -1.29952750288729
N            4.97020981942522        0.98059365343726       -1.84341203212344
C            5.67446620532615       -0.30192367938919       -1.63162259324558
C            5.76581738575669        2.12221077405574       -1.34712393733646
C            3.51160612605331        1.00307345243837        0.19675508267168
H           -0.24395519673363       -1.00672390515728       -1.29276227365363
H           -0.36237750345109       -0.42048551374014        0.36682918781262
H            1.19498368395557       -0.95751426604556       -0.27731841876575
H           -0.42841929438112        1.44005985798783       -1.28964319397212
H            0.97831157121689        1.59976763888598       -0.21998738665859
H            2.91487419857482        0.96838885844900       -3.27371662905093
H            4.87327896873071        1.09947045827532       -2.85842637980052
H            6.64052392388949       -0.28432324902104       -2.13255202659679
H            5.83693132316731       -0.47378007001244       -0.57014744766012
H            5.07743946408957       -1.11844241537069       -2.03304787615761
H            5.95451873314806        2.01430590199342       -0.28166061171813
H            6.71982776775027        2.16604137028391       -1.86901075290103
H            5.22306251973365        3.04964462573460       -1.51931135187516
H            3.44245807126411        2.02465180718506        0.57208703321003
H            2.64783252776069        0.45460519991172        0.55719832105773
H            4.38763671423671        0.54131801092752        0.64481224961067

          :  Hamiltonian                  GFN2-xTB          :
         :: total energy             -29.696031979928 Eh    ::
         :: gradient norm              0.000344896712 Eh/a0 ::
         :: HOMO-LUMO gap              4.611341259088 eV    ::
         :: SCC energy               -30.093737214623 Eh    ::
         :: -> dispersion             -0.015990593508 Eh    ::
         :: repulsion energy           0.397705234695 Eh    ::

    * Orbital Energies and Occupations

         #    Occupation            Energy/Eh            Energy/eV
      -------------------------------------------------------------
         1        2.0000           -0.8700875             -23.6763
       ...           ...                  ...                  ...
        15        2.0000           -0.6637585             -18.0618
        16        2.0000           -0.6626812             -18.0325
        17        2.0000           -0.6569423             -17.8763
        18        2.0000           -0.6494759             -17.6731
        19        2.0000           -0.6409504             -17.4411
        20        2.0000           -0.6374969             -17.3472
        21        2.0000           -0.6291416             -17.1198
        22        2.0000           -0.6198042             -16.8657
        23        2.0000           -0.5999108             -16.3244
        24        2.0000           -0.5936118             -16.1530
        25        2.0000           -0.5786374             -15.7455
        26        2.0000           -0.5605110             -15.2523
        27        2.0000           -0.5296357             -14.4121 (HOMO)
        28                         -0.3601720              -9.8008 (LUMO)
        29                         -0.2358209              -6.4170
        30                         -0.1569662              -4.2713
        31                         -0.1375056              -3.7417
        32                         -0.1203507              -3.2749
        33                         -0.1013195              -2.7570
        34                         -0.0613283              -1.6688
        35                         -0.0418710              -1.1394
        36                         -0.0099764              -0.2715
        37                         -0.0028118              -0.0765
        38                          0.0102246               0.2782
       ...                                ...                  ...
        52                          0.4920701              13.3899
      -------------------------------------------------------------
                  HL-Gap            0.1694637 Eh            4.6113 eV

     #   Z          covCN         q      C6AA      α(0)
     1   6 C        3.750    -0.123    22.932     6.829
     2   6 C        3.683     0.060    19.770     6.367
     3   8 O        1.703    -0.208    17.458     5.641
     4   6 C        2.779     0.095    25.883     8.333
     5   6 C        2.877    -0.026    28.646     8.774
     6   7 N        3.584     0.052    20.326     6.696
     7   6 C        3.696    -0.092    22.431     6.775
     8   6 C        3.696    -0.092    22.444     6.777
     9   6 C        3.753    -0.125    22.954     6.832
    10   1 H        0.925     0.071     2.076     2.253
    11   1 H        0.925     0.068     2.108     2.270
    12   1 H        0.925     0.048     2.349     2.397
    13   1 H        0.924     0.083     1.944     2.180
    14   1 H        0.924     0.052     2.293     2.368
    15   1 H        0.924     0.068     2.105     2.269
    16   1 H        0.859     0.222     1.002     1.568
    17   1 H        0.925     0.101     1.778     2.085
    18   1 H        0.925     0.107     1.723     2.053
    19   1 H        0.925     0.102     1.771     2.081
    20   1 H        0.925     0.111     1.688     2.032
    21   1 H        0.925     0.100     1.784     2.089
    22   1 H        0.925     0.102     1.764     2.077
    23   1 H        0.924     0.073     2.053     2.240
    24   1 H        0.925     0.088     1.902     2.157
    25   1 H        0.925     0.064     2.153     2.294

Wiberg/Mayer (AO) data.
largest (>0.10) Wiberg bond orders for each atom

     #   Z sym  total        # sym  WBO       # sym  WBO       # sym  WBO
 ---------------------------------------------------------------------------
     1   6 C    3.988 --     2 C    1.011    10 H    0.983    12 H    0.981
                            11 H    0.980
     2   6 C    3.919 --     1 C    1.011    14 H    0.967    13 H    0.966
                             3 O    0.933
     3   8 O    2.353 --     4 C    1.184     2 C    0.933     5 C    0.168
     4   6 C    3.950 --     5 C    1.707     3 O    1.184    15 H    0.938
     5   6 C    3.863 --     4 C    1.707     9 C    1.027     6 N    0.906
                             3 O    0.168
     6   7 N    3.771 --     8 C    0.955     7 C    0.954    16 H    0.910
                             5 C    0.906
     7   6 C    3.921 --    19 H    0.977    17 H    0.975    18 H    0.972
                             6 N    0.954
     8   6 C    3.919 --    22 H    0.976    21 H    0.975    20 H    0.973
                             6 N    0.955
     9   6 C    3.985 --     5 C    1.027    25 H    0.970    23 H    0.963
                            24 H    0.962
    10   1 H    0.995 --     1 C    0.983
    11   1 H    0.995 --     1 C    0.980
    12   1 H    0.998 --     1 C    0.981
    13   1 H    0.993 --     2 C    0.966
    14   1 H    0.997 --     2 C    0.967
    15   1 H    0.995 --     4 C    0.938
    16   1 H    0.951 --     6 N    0.910
    17   1 H    0.989 --     7 C    0.975
    18   1 H    0.989 --     7 C    0.972
    19   1 H    0.990 --     7 C    0.977
    20   1 H    0.988 --     8 C    0.973
    21   1 H    0.989 --     8 C    0.975
    22   1 H    0.990 --     8 C    0.976
    23   1 H    0.995 --     9 C    0.963
    24   1 H    0.992 --     9 C    0.962
    25   1 H    0.996 --     9 C    0.970
 ---------------------------------------------------------------------------

molecular dipole:
                 x           y           z       tot (Debye)
 q only:        8.317       1.659      -2.541
   full:        8.434       1.713      -2.678      22.910

           -------------------------------------------------
          | TOTAL ENERGY              -29.696031979928 Eh   |
          | GRADIENT NORM               0.000344896712 Eh/α |
          | HOMO-LUMO GAP               4.611341259088 eV   |
           -------------------------------------------------

 * finished run on 2024/12/20 at 07:01:56.722
