   * xtb version 6.7.1 (edcfbbe) compiled by 'conda@3ef47c1a292c' on 2024-11-25

   ID    Z sym.   atoms
    1    6 C      1, 3, 4, 6-14
    2    7 N      2, 5
    3    1 H      15-31

          program call               : xtb C0865.xyz --opt --namespace C0865 --charge +1
          :  Hamiltonian                  GFN2-xTB          :
 * total energy  :   -39.7628597 Eh     change       -0.7529195E-09 Eh
 * total energy  :   -39.7684523 Eh     change       -0.5592638E-02 Eh
 * total energy  :   -39.7694132 Eh     change       -0.9608855E-03 Eh
 * total energy  :   -39.7696799 Eh     change       -0.2666977E-03 Eh
 * total energy  :   -39.7698205 Eh     change       -0.1405747E-03 Eh
 * total energy  :   -39.7699063 Eh     change       -0.8583588E-04 Eh
 * total energy  :   -39.7700273 Eh     change       -0.1209864E-03 Eh
 * total energy  :   -39.7702335 Eh     change       -0.2062463E-03 Eh
 * total energy  :   -39.7705273 Eh     change       -0.2937046E-03 Eh
 * total energy  :   -39.7708534 Eh     change       -0.3261200E-03 Eh
 * total energy  :   -39.7740986 Eh     change       -0.6094425E-05 Eh
 * total energy  :   -39.7741045 Eh     change       -0.5924342E-05 Eh
 * total energy  :   -39.7741104 Eh     change       -0.5855827E-05 Eh
 * total energy  :   -39.7741155 Eh     change       -0.5144331E-05 Eh
 * total energy  :   -39.7741207 Eh     change       -0.5153287E-05 Eh
 * total energy  :   -39.7741258 Eh     change       -0.5129592E-05 Eh
 * total energy  :   -39.7741309 Eh     change       -0.5084371E-05 Eh
 * total energy  :   -39.7741359 Eh     change       -0.5009354E-05 Eh
 * total energy  :   -39.7741408 Eh     change       -0.4930862E-05 Eh
   *** GEOMETRY OPTIMIZATION CONVERGED AFTER 127 ITERATIONS ***

 final structure:
================
31
 xtb: 6.7.1 (edcfbbe)
C           -0.56228311679113       -1.01322270097804        0.53250911155038
N            0.45301022682087       -0.53020364254535        1.48887549600175
C            1.03845148053186       -1.62633064857621        2.28592522492634
C            0.87436671166410       -1.36040126911051        3.58536719971466
N            0.30750539581811       -0.14663331199660        3.80107599522546
C           -0.08742074244602        0.41125602357712        2.52165373271043
C           -0.36998889183260        0.23442478767846        5.01843913159666
C           -1.79135833418326       -0.34651206093016        5.13002125208102
C           -1.77500021987400       -1.83841649347908        4.93945594936368
C           -2.25531122097564       -2.41456185749833        3.77112621550249
C           -2.19644986337160       -3.78493892673481        3.58200423452282
C           -1.65334258167040       -4.59578216457800        4.56305733837525
C           -1.18112107956249       -4.03232502657216        5.73722245039180
C           -1.23995556085573       -2.66312070793030        5.92276326340369
H           -1.01995702335653       -0.17647045448405        0.00716952203781
H           -1.32276328023283       -1.57229750904202        1.07572361357607
H           -0.09614594664291       -1.67599588439948       -0.19427640589655
H            1.19289747232254       -0.06853490161996        0.94935111827811
H            1.50294927489478       -2.44760617638848        1.78735869226586
H            1.17905673367982       -1.97657691781823        4.40871759110748
H           -1.17984835753722        0.46933175330044        2.43140749040143
H            0.33292001448797        1.41522657971852        2.39381666464404
H            0.24014730685719       -0.12889244627827        5.84634859761981
H           -0.40099741123579        1.32530857165029        5.06605375367697
H           -2.17315086877947       -0.09844238135525        6.12072397945568
H           -2.44982622689782        0.12091093153682        4.39549860767103
H           -2.71507909610196       -1.78867303748292        3.01625363963469
H           -2.58580285497142       -4.22137740135025        2.67432571979834
H           -1.61227125125179       -5.66414637003221        4.42046770402904
H           -0.77436114772807       -4.66212059966401        6.51329992960059
H           -0.88388954079374       -2.22993575663401        6.84629318670692

          :  Hamiltonian                  GFN2-xTB          :
         :: total energy             -39.774140848961 Eh    ::
         :: gradient norm              0.000184326819 Eh/a0 ::
         :: HOMO-LUMO gap              3.841836263350 eV    ::
         :: SCC energy               -40.424951383338 Eh    ::
         :: -> dispersion             -0.029522004435 Eh    ::
         :: repulsion energy           0.650810534377 Eh    ::

    * Orbital Energies and Occupations

         #    Occupation            Energy/Eh            Energy/eV
      -------------------------------------------------------------
         1        2.0000           -0.8784961             -23.9051
       ...           ...                  ...                  ...
        25        2.0000           -0.6175286             -16.8038
        26        2.0000           -0.6071619             -16.5217
        27        2.0000           -0.6012603             -16.3611
        28        2.0000           -0.5966472             -16.2356
        29        2.0000           -0.5820276             -15.8378
        30        2.0000           -0.5789280             -15.7534
        31        2.0000           -0.5742098             -15.6250
        32        2.0000           -0.5689279             -15.4813
        33        2.0000           -0.5281362             -14.3713
        34        2.0000           -0.5254228             -14.2975
        35        2.0000           -0.5168539             -14.0643
        36        2.0000           -0.5091147             -13.8537
        37        2.0000           -0.5010399             -13.6340 (HOMO)
        38                         -0.3598550              -9.7922 (LUMO)
        39                         -0.3277422              -8.9183
        40                         -0.3274276              -8.9098
        41                         -0.2394561              -6.5159
        42                         -0.1999164              -5.4400
        43                         -0.1729517              -4.7063
        44                         -0.1645491              -4.4776
        45                         -0.1223199              -3.3285
        46                         -0.1158552              -3.1526
        47                         -0.0683302              -1.8594
        48                         -0.0422262              -1.1490
       ...                                ...                  ...
        73                          0.5598302              15.2338
      -------------------------------------------------------------
                  HL-Gap            0.1411849 Eh            3.8418 eV

     #   Z          covCN         q      C6AA      α(0)
     1   6 C        3.692    -0.092    22.455     6.780
     2   7 N        3.607     0.056    20.253     6.684
     3   6 C        2.906    -0.077    29.925     8.970
     4   6 C        2.917     0.031    27.309     8.569
     5   7 N        2.781    -0.065    22.496     7.044
     6   6 C        3.769     0.031    20.083     6.386
     7   6 C        3.742    -0.016    20.940     6.529
     8   6 C        3.807    -0.077    21.959     6.671
     9   6 C        2.970     0.005    27.899     8.664
    10   6 C        2.925    -0.045    29.128     8.851
    11   6 C        2.919    -0.032    28.796     8.800
    12   6 C        2.920    -0.028    28.690     8.784
    13   6 C        2.919    -0.026    28.658     8.779
    14   6 C        2.925    -0.040    28.984     8.829
    15   1 H        0.925     0.098     1.801     2.099
    16   1 H        0.925     0.111     1.688     2.032
    17   1 H        0.925     0.107     1.720     2.051
    18   1 H        0.859     0.224     0.993     1.561
    19   1 H        0.927     0.088     1.896     2.153
    20   1 H        0.926     0.101     1.771     2.081
    21   1 H        0.924     0.100     1.784     2.089
    22   1 H        0.924     0.093     1.849     2.126
    23   1 H        0.924     0.081     1.965     2.192
    24   1 H        0.924     0.066     2.130     2.283
    25   1 H        0.924     0.071     2.074     2.252
    26   1 H        0.924     0.042     2.419     2.432
    27   1 H        0.925     0.014     2.820     2.626
    28   1 H        0.926     0.038     2.469     2.457
    29   1 H        0.926     0.049     2.334     2.389
    30   1 H        0.926     0.049     2.331     2.388
    31   1 H        0.926     0.040     2.455     2.450

Wiberg/Mayer (AO) data.
largest (>0.10) Wiberg bond orders for each atom

     #   Z sym  total        # sym  WBO       # sym  WBO       # sym  WBO
 ---------------------------------------------------------------------------
     1   6 C    3.917 --    15 H    0.976    17 H    0.974    16 H    0.972
                             2 N    0.955
     2   7 N    3.774 --     1 C    0.955     6 C    0.943    18 H    0.918
                             3 C    0.913
     3   6 C    3.831 --     4 C    1.719    19 H    0.965     2 N    0.913
                             5 N    0.164
     4   6 C    3.971 --     3 C    1.719     5 N    1.214    20 H    0.953
     5   7 N    3.433 --     4 C    1.214     6 C    1.002     7 C    0.979
                             3 C    0.164
     6   6 C    3.935 --     5 N    1.002    22 H    0.965    21 H    0.955
                             2 N    0.943
     7   6 C    3.956 --     5 N    0.979     8 C    0.977    24 H    0.969
                            23 H    0.965
     8   6 C    3.991 --     9 C    1.011     7 C    0.977    26 H    0.973
                            25 H    0.962
     9   6 C    3.988 --    10 C    1.416    14 C    1.406     8 C    1.011
                            12 C    0.110
    10   6 C    3.991 --    11 C    1.439     9 C    1.416    27 H    0.966
                            13 C    0.110
    11   6 C    3.992 --    12 C    1.443    10 C    1.439    28 H    0.971
                            14 C    0.112
    12   6 C    3.991 --    11 C    1.443    13 C    1.434    29 H    0.970
                             9 C    0.110
    13   6 C    3.991 --    14 C    1.451    12 C    1.434    30 H    0.970
                            10 C    0.110
    14   6 C    3.992 --    13 C    1.451     9 C    1.406    31 H    0.969
                            11 C    0.112
    15   1 H    0.990 --     1 C    0.976
    16   1 H    0.988 --     1 C    0.972
    17   1 H    0.988 --     1 C    0.974
    18   1 H    0.950 --     2 N    0.918
    19   1 H    0.992 --     3 C    0.965
    20   1 H    0.990 --     4 C    0.953
    21   1 H    0.990 --     6 C    0.955
    22   1 H    0.991 --     6 C    0.965
    23   1 H    0.993 --     7 C    0.965
    24   1 H    0.995 --     7 C    0.969
    25   1 H    0.995 --     8 C    0.962
    26   1 H    0.998 --     8 C    0.973
    27   1 H    1.000 --    10 C    0.966
    28   1 H    0.998 --    11 C    0.971
    29   1 H    0.997 --    12 C    0.970
    30   1 H    0.997 --    13 C    0.970
    31   1 H    0.998 --    14 C    0.969
 ---------------------------------------------------------------------------

molecular dipole:
                 x           y           z       tot (Debye)
 q only:        0.101      -1.097       4.389
   full:        0.112      -0.997       4.214      11.011

           -------------------------------------------------
          | TOTAL ENERGY              -39.774140848961 Eh   |
          | GRADIENT NORM               0.000184326819 Eh/α |
          | HOMO-LUMO GAP               3.841836263350 eV   |
           -------------------------------------------------

 * finished run on 2024/12/20 at 07:02:04.767
