   * xtb version 6.7.1 (edcfbbe) compiled by 'conda@3ef47c1a292c' on 2024-11-25

   ID    Z sym.   atoms
    1    6 C      1, 2, 4, 5, 7-9, 11, 12
    2    8 O      3, 10
    3    7 N      6
    4    1 H      13-34

          program call               : xtb C0868.xyz --opt --namespace C0868 --charge +1
          :  Hamiltonian                  GFN2-xTB          :
 * total energy  :   -41.1284607 Eh     change       -0.6024692E-10 Eh
 * total energy  :   -41.1371794 Eh     change       -0.8718745E-02 Eh
 * total energy  :   -41.1396185 Eh     change       -0.2439028E-02 Eh
 * total energy  :   -41.1399713 Eh     change       -0.3527859E-03 Eh
 * total energy  :   -41.1405197 Eh     change       -0.5484648E-03 Eh
 * total energy  :   -41.1408132 Eh     change       -0.2934640E-03 Eh
 * total energy  :   -41.1411266 Eh     change       -0.3133674E-03 Eh
 * total energy  :   -41.1414046 Eh     change       -0.2780231E-03 Eh
 * total energy  :   -41.1416122 Eh     change       -0.2076231E-03 Eh
 * total energy  :   -41.1417677 Eh     change       -0.1554516E-03 Eh
 * total energy  :   -41.1439755 Eh     change       -0.9460043E-04 Eh
 * total energy  :   -41.1440303 Eh     change       -0.5483106E-04 Eh
 * total energy  :   -41.1440649 Eh     change       -0.3458852E-04 Eh
 * total energy  :   -41.1440946 Eh     change       -0.2968941E-04 Eh
 * total energy  :   -41.1441179 Eh     change       -0.2329386E-04 Eh
 * total energy  :   -41.1441440 Eh     change       -0.2610297E-04 Eh
 * total energy  :   -41.1441524 Eh     change       -0.8451340E-05 Eh
 * total energy  :   -41.1441649 Eh     change       -0.1251119E-04 Eh
 * total energy  :   -41.1441697 Eh     change       -0.4810576E-05 Eh
   *** GEOMETRY OPTIMIZATION CONVERGED AFTER 48 ITERATIONS ***

 final structure:
================
34
 xtb: 6.7.1 (edcfbbe)
C           -0.22919150891894        0.79749777595999        1.68631171763297
C            0.08352058040317       -0.62224583108191        2.14000069674561
O            1.47476894653809       -0.84884245300357        2.40257024640824
C            2.30653483787384       -1.30485924733553        1.39213315615904
C            1.98327295578385       -2.79942167508213        1.07870646984213
N            2.66675508758571       -3.41145931827134       -0.09231291483583
C            4.08959492002838       -3.02750762245437       -0.14182951991464
C            2.57169780725376       -4.88009673747157        0.02783994401469
C            2.00404811855183       -2.99322139964940       -1.34479403686639
O            2.27936428505778       -0.56671814541544        0.21001225856547
C            2.93981259608026        0.70402706126313        0.28845906971437
C            2.84362875272371        1.37830938931810       -1.06751843893751
H            0.22667958009017        1.51451778686988        2.36330354489411
H           -1.30565590470268        0.94297366662253        1.70232641574569
H            0.12782206339449        0.97658945783005        0.67584377684751
H           -0.39621227752370       -0.81800857713106        3.10165128732066
H           -0.29870612079860       -1.33607962450813        1.40317302524384
H            3.31098527391656       -1.24094644920325        1.85005413680744
H            2.24552578760217       -3.35529587339682        1.98122953553710
H            0.90727232509065       -2.89108211217111        0.92174573328414
H            4.57207289030580       -3.24248330542240        0.81016033115558
H            4.59576398434996       -3.58871570035620       -0.92574693758556
H            4.17745168748726       -1.96619475842334       -0.36074254399038
H            1.53245204251527       -5.18449083918257        0.13980042317322
H            2.97820979674126       -5.35248611815120       -0.86486613753551
H            3.13316879349445       -5.22863235949756        0.89287278801042
H            0.99106249996062       -3.38984433205581       -1.38204298948259
H            1.96083813805422       -1.90610167923741       -1.38454189169931
H            2.55880648867768       -3.36828517902426       -2.20252755229697
H            2.47004770938989        1.31475549842142        1.06430416511854
H            3.98945447131518        0.53787971306186        0.57031012238071
H            1.80346512201558        1.51371501609490       -1.35112948196979
H            3.32205780573884        2.35118968534755       -1.01862044261522
H            3.33856046391703        0.78326428673696       -1.83131595686938

          :  Hamiltonian                  GFN2-xTB          :
         :: total energy             -41.144169736330 Eh    ::
         :: gradient norm              0.000627904158 Eh/a0 ::
         :: HOMO-LUMO gap              8.191637644865 eV    ::
         :: SCC energy               -41.620485846137 Eh    ::
         :: -> dispersion             -0.024839330867 Eh    ::
         :: repulsion energy           0.476316109807 Eh    ::

    * Orbital Energies and Occupations

         #    Occupation            Energy/Eh            Energy/eV
      -------------------------------------------------------------
         1        2.0000           -0.8698925             -23.6710
       ...           ...                  ...                  ...
        25        2.0000           -0.6412208             -17.4485
        26        2.0000           -0.6398344             -17.4108
        27        2.0000           -0.6309501             -17.1690
        28        2.0000           -0.6183720             -16.8268
        29        2.0000           -0.6101257             -16.6024
        30        2.0000           -0.5863510             -15.9554
        31        2.0000           -0.5819412             -15.8354
        32        2.0000           -0.5793622             -15.7652
        33        2.0000           -0.5714462             -15.5498
        34        2.0000           -0.5585809             -15.1998
        35        2.0000           -0.5484445             -14.9239
        36        2.0000           -0.5374013             -14.6234
        37        2.0000           -0.5337392             -14.5238 (HOMO)
        38                         -0.2327021              -6.3321 (LUMO)
        39                         -0.1669996              -4.5443
        40                         -0.1599933              -4.3536
        41                         -0.1472126              -4.0059
        42                         -0.1311189              -3.5679
        43                         -0.0972422              -2.6461
        44                         -0.0698878              -1.9017
        45                         -0.0532448              -1.4489
        46                         -0.0275814              -0.7505
        47                         -0.0192530              -0.5239
        48                         -0.0027018              -0.0735
       ...                                ...                  ...
        70                          0.2040802               5.5533
      -------------------------------------------------------------
                  HL-Gap            0.3010371 Eh            8.1916 eV

     #   Z          covCN         q      C6AA      α(0)
     1   6 C        3.750    -0.120    22.872     6.821
     2   6 C        3.680     0.079    19.469     6.320
     3   8 O        1.700    -0.324    19.412     5.949
     4   6 C        3.628     0.250    17.105     5.957
     5   6 C        3.761    -0.058    21.661     6.635
     6   7 N        3.622     0.150    18.711     6.425
     7   6 C        3.720    -0.100    22.526     6.779
     8   6 C        3.728    -0.100    22.515     6.774
     9   6 C        3.722    -0.106    22.650     6.797
    10   8 O        1.700    -0.344    19.782     6.005
    11   6 C        3.693     0.081    19.401     6.302
    12   6 C        3.751    -0.118    22.832     6.814
    13   1 H        0.925     0.063     2.163     2.300
    14   1 H        0.925     0.059     2.211     2.325
    15   1 H        0.925     0.056     2.250     2.346
    16   1 H        0.924     0.068     2.104     2.268
    17   1 H        0.924     0.026     2.641     2.542
    18   1 H        0.922     0.042     2.428     2.437
    19   1 H        0.924     0.094     1.845     2.124
    20   1 H        0.924     0.096     1.826     2.113
    21   1 H        0.925     0.097     1.814     2.106
    22   1 H        0.925     0.102     1.769     2.080
    23   1 H        0.925     0.111     1.690     2.033
    24   1 H        0.925     0.101     1.779     2.086
    25   1 H        0.925     0.104     1.745     2.066
    26   1 H        0.925     0.101     1.780     2.086
    27   1 H        0.925     0.096     1.817     2.108
    28   1 H        0.925     0.130     1.537     1.939
    29   1 H        0.925     0.098     1.801     2.099
    30   1 H        0.924     0.056     2.242     2.342
    31   1 H        0.923     0.027     2.624     2.533
    32   1 H        0.925     0.063     2.160     2.298
    33   1 H        0.925     0.068     2.103     2.268
    34   1 H        0.925     0.053     2.277     2.360

Wiberg/Mayer (AO) data.
largest (>0.10) Wiberg bond orders for each atom

     #   Z sym  total        # sym  WBO       # sym  WBO       # sym  WBO
 ---------------------------------------------------------------------------
     1   6 C    3.990 --     2 C    1.014    13 H    0.984    15 H    0.984
                            14 H    0.981
     2   6 C    3.931 --     1 C    1.014    16 H    0.970    17 H    0.967
                             3 O    0.943
     3   8 O    2.105 --     4 C    1.008     2 C    0.943
     4   6 C    3.948 --     3 O    1.008    10 O    0.989     5 C    0.952
                            18 H    0.943
     5   6 C    3.932 --    19 H    0.968    20 H    0.958     4 C    0.952
                             6 N    0.941
     6   7 N    3.819 --     7 C    0.956     8 C    0.956     9 C    0.951
                             5 C    0.941
     7   6 C    3.924 --    21 H    0.976    22 H    0.974    23 H    0.971
                             6 N    0.956
     8   6 C    3.925 --    24 H    0.975    26 H    0.975    25 H    0.973
                             6 N    0.956
     9   6 C    3.914 --    27 H    0.976    29 H    0.975    28 H    0.959
                             6 N    0.951
    10   8 O    2.082 --     4 C    0.989    11 C    0.937
    11   6 C    3.928 --    12 C    1.019    30 H    0.969    31 H    0.969
                            10 O    0.937
    12   6 C    3.989 --    11 C    1.019    34 H    0.985    32 H    0.983
                            33 H    0.980
    13   1 H    0.996 --     1 C    0.984
    14   1 H    0.996 --     1 C    0.981
    15   1 H    0.997 --     1 C    0.984
    16   1 H    0.995 --     2 C    0.970
    17   1 H    0.999 --     2 C    0.967
    18   1 H    0.998 --     4 C    0.943
    19   1 H    0.991 --     5 C    0.968
    20   1 H    0.991 --     5 C    0.958
    21   1 H    0.991 --     7 C    0.976
    22   1 H    0.990 --     7 C    0.974
    23   1 H    0.988 --     7 C    0.971
    24   1 H    0.990 --     8 C    0.975
    25   1 H    0.989 --     8 C    0.973
    26   1 H    0.990 --     8 C    0.975
    27   1 H    0.991 --     9 C    0.976
    28   1 H    0.983 --     9 C    0.959
    29   1 H    0.990 --     9 C    0.975
    30   1 H    0.997 --    11 C    0.969
    31   1 H    0.999 --    11 C    0.969
    32   1 H    0.996 --    12 C    0.983
    33   1 H    0.995 --    12 C    0.980
    34   1 H    0.997 --    12 C    0.985
 ---------------------------------------------------------------------------

molecular dipole:
                 x           y           z       tot (Debye)
 q only:        4.767      -5.471      -0.323
   full:        4.815      -5.610      -0.243      18.802

           -------------------------------------------------
          | TOTAL ENERGY              -41.144169736330 Eh   |
          | GRADIENT NORM               0.000627904158 Eh/α |
          | HOMO-LUMO GAP               8.191637644865 eV   |
           -------------------------------------------------

 * finished run on 2024/12/20 at 07:02:07.133
