   * xtb version 6.7.1 (edcfbbe) compiled by 'conda@3ef47c1a292c' on 2024-11-25

   ID    Z sym.   atoms
    1    6 C      1-16, 18, 19, 21-23, 26
    2    7 N      17, 20, 24
    3    8 O      25
    4    1 H      27-68

          program call               : xtb C0864.xyz --opt --namespace C0864 --charge +1
          :  Hamiltonian                  GFN2-xTB          :
 * total energy  :   -80.9701263 Eh     change       -0.1513527E-08 Eh
 * total energy  :   -80.9777028 Eh     change       -0.7576452E-02 Eh
 * total energy  :   -80.9790836 Eh     change       -0.1380792E-02 Eh
 * total energy  :   -80.9793606 Eh     change       -0.2770321E-03 Eh
 * total energy  :   -80.9795268 Eh     change       -0.1661768E-03 Eh
 * total energy  :   -80.9796477 Eh     change       -0.1209113E-03 Eh
 * total energy  :   -80.9797674 Eh     change       -0.1196781E-03 Eh
 * total energy  :   -80.9799312 Eh     change       -0.1638009E-03 Eh
 * total energy  :   -80.9800971 Eh     change       -0.1659862E-03 Eh
 * total energy  :   -80.9802104 Eh     change       -0.1132326E-03 Eh
 * total energy  :   -80.9835824 Eh     change       -0.1452521E-04 Eh
 * total energy  :   -80.9835966 Eh     change       -0.1424281E-04 Eh
 * total energy  :   -80.9836116 Eh     change       -0.1502169E-04 Eh
 * total energy  :   -80.9836233 Eh     change       -0.1167624E-04 Eh
 * total energy  :   -80.9836391 Eh     change       -0.1580198E-04 Eh
 * total energy  :   -80.9836442 Eh     change       -0.5076806E-05 Eh
 * total energy  :   -80.9836495 Eh     change       -0.5317313E-05 Eh
 * total energy  :   -80.9836564 Eh     change       -0.6886382E-05 Eh
 * total energy  :   -80.9836598 Eh     change       -0.3366567E-05 Eh
   *** GEOMETRY OPTIMIZATION CONVERGED AFTER 97 ITERATIONS ***

 final structure:
================
68
 xtb: 6.7.1 (edcfbbe)
C            1.10358537301959       -0.53887620766856        0.63837404524073
C            1.26308451667482        0.75295203311445        1.43108893610628
C            1.38934304278988        1.99340160715131        0.54541346981755
C            0.18082669489562        2.27455537152318       -0.35008507604970
C           -1.14554728443210        2.45738986612746        0.38979498134499
C           -1.16133040000726        3.58770729042656        1.42060071867381
C           -0.83321170675130        4.97510243489843        0.86565541018158
C           -1.74948511986763        5.45554695785723       -0.26122615717732
C           -3.23652993792167        5.51343387477005        0.09348517086701
C           -3.58287162343237        6.40292150970663        1.28905311611043
C           -3.15689517209163        7.86603705591664        1.15285498632228
C           -3.72764291634259        8.59502890466771       -0.06494698446909
C           -5.25561881436418        8.61495791902593       -0.14825933756087
C           -5.96279618942266        9.22915553026882        1.06265136737132
C           -5.55189954445737       10.66370115144047        1.39476202218491
C           -5.89181657165633       11.67184297730059        0.29089249236578
N           -7.31710956170459       11.73078692782464        0.06584187770276
C           -8.21694239502140       12.36302069974829        0.86724990121778
C           -9.45646203762253       12.12030135476753        0.35888315541387
N           -9.29376560310901       11.34165816518392       -0.74449863486502
C           -7.99071118212230       11.11502091977649       -0.89886049551153
C          -10.33698663165423       10.81348748950013       -1.58761757066216
C          -10.34836297729439        9.28688939294273       -1.64693452615679
N          -10.00056328153516        8.49619659772500       -0.73267601502988
O           -9.52488695147079        9.00777355346839        0.47017184516707
C          -10.86267401045887        8.69559872414817       -2.91279924332306
H            0.15825767706680       -0.55641546748466        0.10174222283411
H            1.12757376599373       -1.39638855622810        1.30712815654090
H            1.91138121730564       -0.64500815650134       -0.08273342106245
H            0.41915240362790        0.86749960604210        2.11373199149408
H            2.16624161797456        0.68157946088177        2.04233300806663
H            1.57666066536139        2.85990698300965        1.18323490907542
H            2.26402484106776        1.87199704730234       -0.09897090100588
H            0.39353048671157        3.17090649377115       -0.93701088791813
H            0.06352631794043        1.45222978697983       -1.05860065445241
H           -1.92839952140459        2.63308666649687       -0.35184440031219
H           -1.39947882950079        1.52807168171004        0.90338499543832
H           -2.14859453195605        3.60938348976624        1.88828884754827
H           -0.44178632283487        3.36134103307350        2.20972157961096
H           -0.86828562921642        5.68999793824410        1.69113089078525
H            0.19153342780926        4.97603844763626        0.48964171933238
H           -1.41245491327670        6.44587353062996       -0.57682406551726
H           -1.63452843038627        4.79312899855443       -1.12118485953177
H           -3.78498432207981        5.85668583755717       -0.78738644413062
H           -3.58982003804365        4.50424243053844        0.31233037421643
H           -4.66204344638845        6.35004021535922        1.45439210753570
H           -3.10637670544927        5.99768045274634        2.18294490223722
H           -3.44519815308848        8.39400040818966        2.06508531711839
H           -2.06894344969965        7.91424439387783        1.09029781923790
H           -3.34523796466355        9.61898315450078       -0.06503300196301
H           -3.35104523367159        8.11872442021862       -0.97118188035312
H           -5.54029294595908        9.14773927041409       -1.06014925891584
H           -5.61657376763822        7.59178442669006       -0.25866967109452
H           -7.04277643962672        9.19196108945728        0.89577234544866
H           -5.75405848082521        8.61442454837549        1.93786543853715
H           -6.04701155147846       10.96823947176859        2.31890841801982
H           -4.47745547978992       10.70978268571792        1.56527039107566
H           -5.54823608764236       12.66691244586089        0.58189700474142
H           -5.40380941059041       11.38876312463721       -0.64218597766399
H           -7.92336531719014       12.93471325676489        1.72354244305305
H          -10.41802918200610       12.43832631119152        0.70580453113940
H           -7.55859502792500       10.52099466335738       -1.68040956641351
H          -11.30079661480711       11.15057980050681       -1.19506056436468
H          -10.22107786655625       11.20564169809387       -2.60217425580033
H           -9.45514264988170        8.22620364804386        1.03912272305232
H          -11.85657917336805        9.08285666840893       -3.12889075124799
H          -10.21183749803237        8.95436353908774       -3.74638943808245
H          -10.91088715055487        7.61551095315014       -2.82147159153296

          :  Hamiltonian                  GFN2-xTB          :
         :: total energy             -80.983659751354 Eh    ::
         :: gradient norm              0.000407394436 Eh/a0 ::
         :: HOMO-LUMO gap              1.551002373058 eV    ::
         :: SCC energy               -82.136992979804 Eh    ::
         :: -> dispersion             -0.060673859482 Eh    ::
         :: repulsion energy           1.153333228450 Eh    ::

    * Orbital Energies and Occupations

         #    Occupation            Energy/Eh            Energy/eV
      -------------------------------------------------------------
         1        2.0000           -0.8832828             -24.0353
       ...           ...                  ...                  ...
        63        2.0000           -0.5113258             -13.9139
        64        2.0000           -0.5060206             -13.7695
        65        2.0000           -0.5028049             -13.6820
        66        2.0000           -0.4959265             -13.4948
        67        2.0000           -0.4906787             -13.3520
        68        2.0000           -0.4870578             -13.2535
        69        2.0000           -0.4826802             -13.1344
        70        2.0000           -0.4732016             -12.8765
        71        2.0000           -0.4718113             -12.8386
        72        2.0000           -0.4689786             -12.7616
        73        2.0000           -0.4586533             -12.4806
        74        2.0000           -0.4537861             -12.3481
        75        2.0000           -0.4524962             -12.3130 (HOMO)
        76                         -0.3954980             -10.7620 (LUMO)
        77                         -0.3628334              -9.8732
        78                         -0.3581460              -9.7456
        79                         -0.1755625              -4.7773
        80                         -0.1734284              -4.7192
        81                         -0.1229205              -3.3448
        82                         -0.0561988              -1.5292
        83                         -0.0520141              -1.4154
        84                         -0.0451976              -1.2299
        85                         -0.0303299              -0.8253
        86                         -0.0231073              -0.6288
       ...                                ...                  ...
       146                          0.4765978              12.9689
      -------------------------------------------------------------
                  HL-Gap            0.0569983 Eh            1.5510 eV

     #   Z          covCN         q      C6AA      α(0)
     1   6 C        3.751    -0.102    22.501     6.765
     2   6 C        3.799    -0.052    21.507     6.603
     3   6 C        3.800    -0.057    21.599     6.617
     4   6 C        3.800    -0.057    21.594     6.616
     5   6 C        3.800    -0.056    21.583     6.615
     6   6 C        3.800    -0.056    21.590     6.616
     7   6 C        3.800    -0.057    21.596     6.617
     8   6 C        3.800    -0.057    21.597     6.617
     9   6 C        3.800    -0.057    21.598     6.617
    10   6 C        3.800    -0.058    21.615     6.620
    11   6 C        3.800    -0.060    21.651     6.625
    12   6 C        3.800    -0.061    21.666     6.627
    13   6 C        3.800    -0.060    21.653     6.625
    14   6 C        3.800    -0.068    21.807     6.649
    15   6 C        3.802    -0.069    21.828     6.652
    16   6 C        3.742    -0.026    21.121     6.557
    17   7 N        2.870     0.074    19.958     6.635
    18   6 C        3.079    -0.006    28.082     8.688
    19   6 C        3.071    -0.003    28.021     8.680
    20   7 N        2.871     0.078    19.883     6.623
    21   6 C        3.103     0.054    26.659     8.460
    22   6 C        3.744    -0.033    21.228     6.573
    23   6 C        2.869     0.095    25.895     8.341
    24   7 N        1.839    -0.104    24.031     7.265
    25   8 O        1.723    -0.367    20.195     6.068
    26   6 C        3.766    -0.136    23.156     6.859
    27   1 H        0.925     0.034     2.536     2.490
    28   1 H        0.925     0.032     2.560     2.502
    29   1 H        0.925     0.034     2.529     2.487
    30   1 H        0.924     0.030     2.588     2.516
    31   1 H        0.924     0.027     2.624     2.533
    32   1 H        0.924     0.028     2.618     2.530
    33   1 H        0.924     0.029     2.601     2.522
    34   1 H        0.924     0.027     2.630     2.536
    35   1 H        0.924     0.032     2.562     2.503
    36   1 H        0.924     0.025     2.658     2.549
    37   1 H        0.924     0.032     2.556     2.500
    38   1 H        0.924     0.025     2.659     2.550
    39   1 H        0.924     0.033     2.544     2.494
    40   1 H        0.924     0.026     2.651     2.546
    41   1 H        0.924     0.034     2.535     2.490
    42   1 H        0.924     0.025     2.663     2.552
    43   1 H        0.924     0.034     2.529     2.487
    44   1 H        0.924     0.022     2.698     2.569
    45   1 H        0.924     0.035     2.511     2.478
    46   1 H        0.924     0.022     2.705     2.572
    47   1 H        0.924     0.039     2.465     2.455
    48   1 H        0.924     0.025     2.658     2.549
    49   1 H        0.924     0.042     2.425     2.435
    50   1 H        0.924     0.023     2.681     2.561
    51   1 H        0.924     0.044     2.399     2.422
    52   1 H        0.924     0.012     2.853     2.641
    53   1 H        0.924     0.048     2.347     2.396
    54   1 H        0.924     0.029     2.600     2.522
    55   1 H        0.925     0.059     2.206     2.323
    56   1 H        0.924     0.051     2.303     2.373
    57   1 H        0.925     0.077     2.006     2.215
    58   1 H        0.924     0.084     1.937     2.176
    59   1 H        0.924     0.086     1.915     2.164
    60   1 H        0.926     0.105     1.736     2.060
    61   1 H        0.926     0.105     1.743     2.065
    62   1 H        0.926     0.109     1.706     2.043
    63   1 H        0.924     0.100     1.783     2.088
    64   1 H        0.924     0.089     1.888     2.149
    65   1 H        0.804     0.331     0.635     1.252
    66   1 H        0.925     0.082     1.954     2.186
    67   1 H        0.925     0.078     2.004     2.214
    68   1 H        0.925     0.094     1.836     2.119

Wiberg/Mayer (AO) data.
largest (>0.10) Wiberg bond orders for each atom

     #   Z sym  total        # sym  WBO       # sym  WBO       # sym  WBO
 ---------------------------------------------------------------------------
     1   6 C    3.997 --     2 C    1.020    29 H    0.988    28 H    0.987
                            27 H    0.986
     2   6 C    3.998 --     1 C    1.020     3 C    1.008    31 H    0.978
                            30 H    0.976
     3   6 C    3.998 --     2 C    1.008     4 C    1.008    33 H    0.977
                            32 H    0.976
     4   6 C    3.998 --     5 C    1.008     3 C    1.008    35 H    0.976
                            34 H    0.975
     5   6 C    3.998 --     4 C    1.008     6 C    1.008    36 H    0.975
                            37 H    0.975
     6   6 C    3.997 --     5 C    1.008     7 C    1.008    38 H    0.975
                            39 H    0.975
     7   6 C    3.997 --     8 C    1.008     6 C    1.008    40 H    0.975
                            41 H    0.975
     8   6 C    3.997 --     7 C    1.008     9 C    1.008    42 H    0.975
                            43 H    0.975
     9   6 C    3.997 --    10 C    1.008     8 C    1.008    44 H    0.975
                            45 H    0.974
    10   6 C    3.997 --    11 C    1.008     9 C    1.008    46 H    0.975
                            47 H    0.974
    11   6 C    3.996 --    10 C    1.008    12 C    1.007    48 H    0.975
                            49 H    0.974
    12   6 C    3.996 --    11 C    1.007    13 C    1.007    50 H    0.975
                            51 H    0.973
    13   6 C    3.996 --    12 C    1.007    14 C    1.007    52 H    0.975
                            53 H    0.973
    14   6 C    3.993 --    15 C    1.008    13 C    1.007    54 H    0.973
                            55 H    0.970
    15   6 C    3.983 --    14 C    1.008    16 C    0.981    56 H    0.975
                            57 H    0.963
    16   6 C    3.936 --    15 C    0.981    17 N    0.968    59 H    0.964
                            58 H    0.963
    17   7 N    3.721 --    21 C    1.366    18 C    1.229    16 C    0.968
    18   6 C    3.950 --    19 C    1.589    17 N    1.229    60 H    0.962
    19   6 C    3.949 --    18 C    1.589    20 N    1.229    61 H    0.961
    20   7 N    3.720 --    21 C    1.353    19 C    1.229    22 C    0.978
    21   6 C    3.948 --    17 N    1.366    20 N    1.353    62 H    0.954
    22   6 C    3.944 --    20 N    0.978    23 C    0.958    64 H    0.953
                            63 H    0.949
    23   6 C    3.974 --    24 N    1.843    26 C    1.027    22 C    0.958
    24   7 N    3.027 --    23 C    1.843    25 O    1.028
    25   8 O    2.057 --    24 N    1.028    65 H    0.880
    26   6 C    3.984 --    23 C    1.027    68 H    0.976    66 H    0.959
                            67 H    0.959
    27   1 H    0.999 --     1 C    0.986
    28   1 H    0.999 --     1 C    0.987
    29   1 H    0.999 --     1 C    0.988
    30   1 H    0.999 --     2 C    0.976
    31   1 H    0.999 --     2 C    0.978
    32   1 H    0.999 --     3 C    0.976
    33   1 H    0.999 --     3 C    0.977
    34   1 H    0.999 --     4 C    0.975
    35   1 H    0.999 --     4 C    0.976
    36   1 H    0.999 --     5 C    0.975
    37   1 H    0.999 --     5 C    0.975
    38   1 H    0.999 --     6 C    0.975
    39   1 H    0.999 --     6 C    0.975
    40   1 H    0.999 --     7 C    0.975
    41   1 H    0.999 --     7 C    0.975
    42   1 H    0.999 --     8 C    0.975
    43   1 H    0.999 --     8 C    0.975
    44   1 H    0.999 --     9 C    0.975
    45   1 H    0.999 --     9 C    0.974
    46   1 H    1.000 --    10 C    0.975
    47   1 H    0.998 --    10 C    0.974
    48   1 H    0.999 --    11 C    0.975
    49   1 H    0.998 --    11 C    0.974
    50   1 H    0.999 --    12 C    0.975
    51   1 H    0.998 --    12 C    0.973
    52   1 H    1.000 --    13 C    0.975
    53   1 H    0.998 --    13 C    0.973
    54   1 H    0.999 --    14 C    0.973
    55   1 H    0.996 --    14 C    0.970
    56   1 H    0.997 --    15 C    0.975
    57   1 H    0.993 --    15 C    0.963
    58   1 H    0.992 --    16 C    0.963
    59   1 H    0.992 --    16 C    0.964
    60   1 H    0.989 --    18 C    0.962
    61   1 H    0.989 --    19 C    0.961
    62   1 H    0.988 --    21 C    0.954
    63   1 H    0.990 --    22 C    0.949
    64   1 H    0.992 --    22 C    0.953
    65   1 H    0.891 --    25 O    0.880
    66   1 H    0.993 --    26 C    0.959
    67   1 H    0.994 --    26 C    0.959
    68   1 H    0.990 --    26 C    0.976
 ---------------------------------------------------------------------------

molecular dipole:
                 x           y           z       tot (Debye)
 q only:      -15.442      20.488      -0.887
   full:      -15.529      20.794      -0.941      66.008

           -------------------------------------------------
          | TOTAL ENERGY              -80.983659751354 Eh   |
          | GRADIENT NORM               0.000407394436 Eh/α |
          | HOMO-LUMO GAP               1.551002373058 eV   |
           -------------------------------------------------

 * finished run on 2024/12/20 at 07:02:02.813
