   * xtb version 6.7.1 (edcfbbe) compiled by 'conda@3ef47c1a292c' on 2024-11-25

   ID    Z sym.   atoms
    1    6 C      1, 2, 4-7
    2    7 N      3
    3    1 H      8-23

          program call               : xtb C0866.xyz --opt --namespace C0866 --charge +1
          :  Hamiltonian                  GFN2-xTB          :
 * total energy  :   -23.5221348 Eh     change       -0.2665601E-10 Eh
 * total energy  :   -23.5274553 Eh     change       -0.5320465E-02 Eh
 * total energy  :   -23.5286282 Eh     change       -0.1172934E-02 Eh
 * total energy  :   -23.5286560 Eh     change       -0.2772859E-04 Eh
 * total energy  :   -23.5286598 Eh     change       -0.3865485E-05 Eh
   *** GEOMETRY OPTIMIZATION CONVERGED AFTER 5 ITERATIONS ***

 final structure:
================
23
 xtb: 6.7.1 (edcfbbe)
C            0.95235047124324        0.04207208736680       -0.01859976921392
C            0.57990546784861       -1.38082946040277       -0.40368093310296
N            1.02063265512770       -2.44570683921938        0.55040416945719
C            0.50008410716534       -2.22109516283432        1.93498402570241
C           -1.01151765277065       -2.11588999462499        2.06005924773663
C            0.54716199139776       -3.74509823703878        0.03464855856793
C            2.49446996090315       -2.48824287306996        0.61815900727108
H            0.49013737433670        0.35541981434485        0.91284361914058
H            0.58517814658971        0.70274007831612       -0.80023424062315
H            2.02648478645742        0.18727729472033        0.04757634332293
H           -0.50370349123886       -1.45520433132659       -0.50485394621782
H            1.02310246663826       -1.61645134423781       -1.37382051352495
H            0.85270626017166       -3.05301487522524        2.54872581642580
H            0.95800799831176       -1.30740371484854        2.31636258554391
H           -1.51917764804746       -3.02098452059773        1.74019396466851
H           -1.24659129884399       -1.96868440143672        3.11140169190924
H           -1.41575739047115       -1.26694516255639        1.51664637512887
H            1.02140569237421       -3.96284571529371       -0.92095060043280
H            0.79535998663528       -4.54050664978118        0.73556397016002
H           -0.53027118884868       -3.73026498035042       -0.11267533951458
H            2.91379783933444       -2.58827735613439       -0.38169929600818
H            2.88433533386613       -1.58074845383126        1.07340122963797
H            2.81641813181942       -3.33853520193791        1.21719403396528

          :  Hamiltonian                  GFN2-xTB          :
         :: total energy             -23.528659820706 Eh    ::
         :: gradient norm              0.000633223922 Eh/a0 ::
         :: HOMO-LUMO gap              9.992930163031 eV    ::
         :: SCC energy               -23.865849923904 Eh    ::
         :: -> dispersion             -0.014138686624 Eh    ::
         :: repulsion energy           0.337190103198 Eh    ::

    * Orbital Energies and Occupations

         #    Occupation            Energy/Eh            Energy/eV
      -------------------------------------------------------------
         1        2.0000           -0.8689652             -23.6457
       ...           ...                  ...                  ...
        10        2.0000           -0.7074994             -19.2520
        11        2.0000           -0.6861704             -18.6716
        12        2.0000           -0.6693528             -18.2140
        13        2.0000           -0.6632735             -18.0486
        14        2.0000           -0.6565159             -17.8647
        15        2.0000           -0.6538526             -17.7922
        16        2.0000           -0.6458218             -17.5737
        17        2.0000           -0.6354563             -17.2916
        18        2.0000           -0.6340371             -17.2530
        19        2.0000           -0.6209525             -16.8970
        20        2.0000           -0.6085982             -16.5608
        21        2.0000           -0.6076256             -16.5343
        22        2.0000           -0.6022451             -16.3879 (HOMO)
        23                         -0.2350116              -6.3950 (LUMO)
        24                         -0.1709796              -4.6526
        25                         -0.1543069              -4.1989
        26                         -0.1506701              -4.0999
        27                         -0.0676233              -1.8401
        28                         -0.0502905              -1.3685
        29                         -0.0490801              -1.3355
        30                         -0.0285101              -0.7758
        31                         -0.0082226              -0.2237
        32                          0.0152749               0.4157
        33                          0.0252418               0.6869
       ...                                ...                  ...
        44                          0.1394512               3.7947
      -------------------------------------------------------------
                  HL-Gap            0.3672334 Eh            9.9929 eV

     #   Z          covCN         q      C6AA      α(0)
     1   6 C        3.751    -0.130    23.056     6.848
     2   6 C        3.759    -0.035    21.241     6.571
     3   7 N        3.621     0.129    19.035     6.480
     4   6 C        3.759    -0.035    21.241     6.571
     5   6 C        3.751    -0.130    23.056     6.848
     6   6 C        3.725    -0.096    22.439     6.764
     7   6 C        3.725    -0.096    22.439     6.764
     8   1 H        0.925     0.069     2.099     2.266
     9   1 H        0.925     0.087     1.912     2.162
    10   1 H        0.925     0.067     2.119     2.276
    11   1 H        0.924     0.091     1.873     2.140
    12   1 H        0.924     0.085     1.925     2.170
    13   1 H        0.924     0.085     1.925     2.170
    14   1 H        0.924     0.091     1.873     2.140
    15   1 H        0.925     0.067     2.119     2.276
    16   1 H        0.925     0.087     1.912     2.162
    17   1 H        0.925     0.069     2.099     2.266
    18   1 H        0.925     0.097     1.809     2.104
    19   1 H        0.925     0.099     1.796     2.096
    20   1 H        0.925     0.101     1.775     2.084
    21   1 H        0.925     0.099     1.796     2.096
    22   1 H        0.925     0.101     1.775     2.084
    23   1 H        0.925     0.097     1.809     2.104

Wiberg/Mayer (AO) data.
largest (>0.10) Wiberg bond orders for each atom

     #   Z sym  total        # sym  WBO       # sym  WBO       # sym  WBO
 ---------------------------------------------------------------------------
     1   6 C    3.981 --     2 C    1.023    10 H    0.980     8 H    0.980
                             9 H    0.972
     2   6 C    3.932 --     1 C    1.023    12 H    0.967    11 H    0.965
                             3 N    0.924
     3   7 N    3.809 --     6 C    0.960     7 C    0.960     4 C    0.924
                             2 C    0.924
     4   6 C    3.932 --     5 C    1.023    13 H    0.967    14 H    0.965
                             3 N    0.924
     5   6 C    3.981 --     4 C    1.023    15 H    0.980    17 H    0.980
                            16 H    0.972
     6   6 C    3.928 --    18 H    0.975    19 H    0.974    20 H    0.972
                             3 N    0.960
     7   6 C    3.928 --    23 H    0.975    21 H    0.974    22 H    0.972
                             3 N    0.960
     8   1 H    0.995 --     1 C    0.980
     9   1 H    0.992 --     1 C    0.972
    10   1 H    0.996 --     1 C    0.980
    11   1 H    0.992 --     2 C    0.965
    12   1 H    0.993 --     2 C    0.967
    13   1 H    0.993 --     4 C    0.967
    14   1 H    0.992 --     4 C    0.965
    15   1 H    0.996 --     5 C    0.980
    16   1 H    0.992 --     5 C    0.972
    17   1 H    0.995 --     5 C    0.980
    18   1 H    0.991 --     6 C    0.975
    19   1 H    0.990 --     6 C    0.974
    20   1 H    0.990 --     6 C    0.972
    21   1 H    0.990 --     7 C    0.974
    22   1 H    0.990 --     7 C    0.972
    23   1 H    0.991 --     7 C    0.975
 ---------------------------------------------------------------------------

molecular dipole:
                 x           y           z       tot (Debye)
 q only:        1.706      -4.324       1.140
   full:        1.756      -4.389       1.118      12.347

           -------------------------------------------------
          | TOTAL ENERGY              -23.528659820706 Eh   |
          | GRADIENT NORM               0.000633223922 Eh/α |
          | HOMO-LUMO GAP               9.992930163031 eV   |
           -------------------------------------------------

 * finished run on 2024/12/20 at 07:02:05.001
