   * xtb version 6.7.1 (edcfbbe) compiled by 'conda@3ef47c1a292c' on 2024-11-25

   ID    Z sym.   atoms
    1    8 O      1, 8, 12
    2    6 C      2, 3, 5-7, 9-11
    3    7 N      4
    4    1 H      13-24

          program call               : xtb C0869.xyz --opt --namespace C0869 --charge +1
          :  Hamiltonian                  GFN2-xTB          :
 * total energy  :   -37.9585488 Eh     change       -0.8135004E-10 Eh
 * total energy  :   -37.9639031 Eh     change       -0.5354374E-02 Eh
 * total energy  :   -37.9657587 Eh     change       -0.1855601E-02 Eh
 * total energy  :   -37.9663640 Eh     change       -0.6052367E-03 Eh
 * total energy  :   -37.9670789 Eh     change       -0.7148931E-03 Eh
 * total energy  :   -37.9675783 Eh     change       -0.4994503E-03 Eh
 * total energy  :   -37.9678333 Eh     change       -0.2549842E-03 Eh
 * total energy  :   -37.9681344 Eh     change       -0.3010763E-03 Eh
 * total energy  :   -37.9682367 Eh     change       -0.1023048E-03 Eh
 * total energy  :   -37.9683110 Eh     change       -0.7431685E-04 Eh
 * total energy  :   -37.9683545 Eh     change       -0.4350808E-04 Eh
 * total energy  :   -37.9684174 Eh     change       -0.6290256E-04 Eh
 * total energy  :   -37.9684905 Eh     change       -0.7307317E-04 Eh
 * total energy  :   -37.9685160 Eh     change       -0.2550655E-04 Eh
 * total energy  :   -37.9685269 Eh     change       -0.1092062E-04 Eh
 * total energy  :   -37.9685322 Eh     change       -0.5325327E-05 Eh
 * total energy  :   -37.9685356 Eh     change       -0.3382398E-05 Eh
   *** GEOMETRY OPTIMIZATION CONVERGED AFTER 17 ITERATIONS ***

 final structure:
================
24
 xtb: 6.7.1 (edcfbbe)
O            0.84602939468033       -0.27246593468312        0.04084383332204
C            0.35098191732522        0.34760680398739       -1.05434242809236
C            0.75252321694229       -0.11257659340257       -2.31139989779561
N            0.32864606421032        0.52447437191838       -3.42344998744019
C           -0.47678177136096        1.59381632301500       -3.33827633025579
C           -0.93961234320717        2.05972875442094       -2.13777765039999
C           -0.55674182510056        1.42472221152881       -0.95347804520992
O           -1.04387697518160        1.87961076816730        0.19539442703606
C            0.74007375019536        0.07821229158496       -4.74087455026944
C            1.64474733286785       -1.35174692050056       -2.39651422884113
C            3.08581857849167       -0.97655501756395       -2.03290484949350
O            1.12663055899613       -2.38441861780507       -1.61828176970278
H            0.72723207619105        0.24220556179964        0.85079042537470
H           -0.76632979237299        2.07226146420710       -4.26042762854227
H           -1.60634832224363        2.90413353117978       -2.08440656820425
H           -0.93095918701088        1.28681654140523        0.95281427240823
H            0.34758260946616       -0.91836059169960       -4.94653211181909
H            0.35210166485497        0.76014744329045       -5.49376998070317
H            1.82628939409545        0.05669486349473       -4.82052957419231
H            1.62210261015082       -1.74997378369867       -3.41321787408397
H            3.14053763354594       -0.61095422815766       -1.01093481722141
H            3.70974911412859       -1.86191339504251       -2.11778997861462
H            3.47088719974423       -0.21253521455162       -2.70249492683679
H            1.33239710059141       -2.24150063289435       -0.68542976042245

          :  Hamiltonian                  GFN2-xTB          :
         :: total energy             -37.968535609854 Eh    ::
         :: gradient norm              0.000680418364 Eh/a0 ::
         :: HOMO-LUMO gap              2.990644333433 eV    ::
         :: SCC energy               -38.425041877598 Eh    ::
         :: -> dispersion             -0.019407445036 Eh    ::
         :: repulsion energy           0.456506267743 Eh    ::

    * Orbital Energies and Occupations

         #    Occupation            Energy/Eh            Energy/eV
      -------------------------------------------------------------
         1        2.0000           -0.9020502             -24.5460
       ...           ...                  ...                  ...
        21        2.0000           -0.6767273             -18.4147
        22        2.0000           -0.6662285             -18.1290
        23        2.0000           -0.6620637             -18.0157
        24        2.0000           -0.6544605             -17.8088
        25        2.0000           -0.6430476             -17.4982
        26        2.0000           -0.6411020             -17.4453
        27        2.0000           -0.6275718             -17.0771
        28        2.0000           -0.6131144             -16.6837
        29        2.0000           -0.6006020             -16.3432
        30        2.0000           -0.5928092             -16.1312
        31        2.0000           -0.5802331             -15.7889
        32        2.0000           -0.5686811             -15.4746
        33        2.0000           -0.5531455             -15.0519 (HOMO)
        34                         -0.4432414             -12.0612 (LUMO)
        35                         -0.4164120             -11.3311
        36                         -0.3004125              -8.1746
        37                         -0.1849931              -5.0339
        38                         -0.1482624              -4.0344
        39                         -0.1142347              -3.1085
        40                         -0.0827871              -2.2528
        41                         -0.0781019              -2.1253
        42                         -0.0399985              -1.0884
        43                         -0.0322087              -0.8764
        44                         -0.0239106              -0.6506
       ...                                ...                  ...
        60                          0.4471653              12.1680
      -------------------------------------------------------------
                  HL-Gap            0.1099042 Eh            2.9906 eV

     #   Z          covCN         q      C6AA      α(0)
     1   8 O        1.660    -0.355    19.989     6.036
     2   6 C        2.842     0.125    25.259     8.237
     3   6 C        2.926     0.038    27.160     8.547
     4   7 N        2.747     0.084    19.786     6.606
     5   6 C        2.887     0.016    27.646     8.620
     6   6 C        2.914    -0.048    29.198     8.861
     7   6 C        2.844     0.154    24.665     8.139
     8   8 O        1.661    -0.319    19.338     5.936
     9   6 C        3.709    -0.094    22.442     6.771
    10   6 C        3.728     0.114    18.812     6.192
    11   6 C        3.753    -0.134    23.144     6.860
    12   8 O        1.657    -0.418    21.205     6.216
    13   1 H        0.805     0.327     0.644     1.260
    14   1 H        0.926     0.115     1.654     2.011
    15   1 H        0.926     0.125     1.576     1.963
    16   1 H        0.804     0.335     0.624     1.241
    17   1 H        0.924     0.114     1.664     2.017
    18   1 H        0.925     0.108     1.717     2.049
    19   1 H        0.925     0.107     1.722     2.052
    20   1 H        0.924     0.080     1.980     2.200
    21   1 H        0.925     0.066     2.136     2.285
    22   1 H        0.925     0.087     1.913     2.163
    23   1 H        0.925     0.054     2.269     2.355
    24   1 H        0.805     0.321     0.660     1.276

Wiberg/Mayer (AO) data.
largest (>0.10) Wiberg bond orders for each atom

     #   Z sym  total        # sym  WBO       # sym  WBO       # sym  WBO
 ---------------------------------------------------------------------------
     1   8 O    2.163 --     2 C    1.102    13 H    0.864
     2   6 C    3.952 --     3 C    1.376     7 C    1.266     1 O    1.102
     3   6 C    3.952 --     2 C    1.376     4 N    1.280    10 C    0.968
     4   7 N    3.737 --     5 C    1.298     3 C    1.280     9 C    0.982
     5   6 C    3.958 --     6 C    1.498     4 N    1.298    14 H    0.951
     6   6 C    3.979 --     5 C    1.498     7 C    1.325    15 H    0.953
     7   6 C    3.950 --     6 C    1.325     2 C    1.266     8 O    1.165
     8   8 O    2.231 --     7 C    1.165    16 H    0.858
     9   6 C    3.928 --     4 N    0.982    18 H    0.971    19 H    0.963
                            17 H    0.955
    10   6 C    3.957 --    12 O    1.018    11 C    0.974     3 C    0.968
                            20 H    0.948
    11   6 C    3.984 --    23 H    0.983    21 H    0.982    22 H    0.975
                            10 C    0.974
    12   8 O    1.996 --    10 C    1.018    24 H    0.871
    13   1 H    0.892 --     1 O    0.864
    14   1 H    0.986 --     5 C    0.951
    15   1 H    0.984 --     6 C    0.953
    16   1 H    0.888 --     8 O    0.858
    17   1 H    0.985 --     9 C    0.955
    18   1 H    0.988 --     9 C    0.971
    19   1 H    0.987 --     9 C    0.963
    20   1 H    0.993 --    10 C    0.948
    21   1 H    0.996 --    11 C    0.982
    22   1 H    0.991 --    11 C    0.975
    23   1 H    0.997 --    11 C    0.983
    24   1 H    0.897 --    12 O    0.871
 ---------------------------------------------------------------------------

molecular dipole:
                 x           y           z       tot (Debye)
 q only:        0.944       1.351      -4.287
   full:        0.954       1.544      -3.903      10.941

           -------------------------------------------------
          | TOTAL ENERGY              -37.968535609854 Eh   |
          | GRADIENT NORM               0.000680418364 Eh/α |
          | HOMO-LUMO GAP               2.990644333433 eV   |
           -------------------------------------------------

 * finished run on 2024/12/20 at 07:02:07.685
