   * xtb version 6.7.1 (edcfbbe) compiled by 'conda@3ef47c1a292c' on 2024-11-25

   ID    Z sym.   atoms
    1    6 C      1-6, 8, 9, 11, 12
    2    7 N      7
    3    8 O      10
    4    1 H      13-36

          program call               : xtb C0878.xyz --opt --namespace C0878 --charge +1
          :  Hamiltonian                  GFN2-xTB          :
 * total energy  :   -40.2300182 Eh     change       -0.8120082E-10 Eh
 * total energy  :   -40.2374078 Eh     change       -0.7389663E-02 Eh
 * total energy  :   -40.2392723 Eh     change       -0.1864458E-02 Eh
 * total energy  :   -40.2394331 Eh     change       -0.1607678E-03 Eh
 * total energy  :   -40.2396468 Eh     change       -0.2137377E-03 Eh
 * total energy  :   -40.2397448 Eh     change       -0.9802989E-04 Eh
 * total energy  :   -40.2399198 Eh     change       -0.1750223E-03 Eh
 * total energy  :   -40.2400021 Eh     change       -0.8224512E-04 Eh
 * total energy  :   -40.2400552 Eh     change       -0.5306111E-04 Eh
 * total energy  :   -40.2400856 Eh     change       -0.3040846E-04 Eh
 * total energy  :   -40.2413930 Eh     change       -0.1806499E-04 Eh
 * total energy  :   -40.2414080 Eh     change       -0.1502383E-04 Eh
 * total energy  :   -40.2414172 Eh     change       -0.9217107E-05 Eh
 * total energy  :   -40.2414240 Eh     change       -0.6721496E-05 Eh
 * total energy  :   -40.2414307 Eh     change       -0.6698945E-05 Eh
 * total energy  :   -40.2414376 Eh     change       -0.6918113E-05 Eh
 * total energy  :   -40.2414436 Eh     change       -0.6060270E-05 Eh
 * total energy  :   -40.2414486 Eh     change       -0.5009926E-05 Eh
 * total energy  :   -40.2414531 Eh     change       -0.4465847E-05 Eh
   *** GEOMETRY OPTIMIZATION CONVERGED AFTER 53 ITERATIONS ***

 final structure:
================
36
 xtb: 6.7.1 (edcfbbe)
C            0.46463761488433        0.11849299683775        0.39500950370146
C            0.30571570820839        0.62901823825649       -1.03192808295194
C            1.22914660381485       -0.07193925199607       -2.02950519535486
C            1.02749138056171       -1.58492409251313       -2.15349424963159
C           -0.39997056608929       -2.02639109299540       -2.50430085392700
C           -0.94911745176783       -1.46816439805747       -3.82278199123248
N           -0.87959927611697       -2.37491967575171       -5.00871838535760
C           -1.66464584595862       -3.63307053989780       -4.82628960266879
C           -3.02222659560848       -3.49002983226829       -4.12874129726899
O           -3.80952651198023       -2.52132668283591       -4.78211971928725
C           -1.41666515084330       -1.63333695380499       -6.17047133702793
C            0.51813076291979       -2.73875161866370       -5.30206706968270
H            0.13196941017380       -0.91209543138631        0.49262527722689
H           -0.12473031491940        0.72669811187417        1.07573109271565
H            1.50533951834385        0.17538785896402        0.70397331015760
H           -0.73601690004978        0.53154402905548       -1.34597733871448
H            0.54631442762677        1.69338215261365       -1.05044380839447
H            1.11796424164824        0.40752535590605       -3.00595846309248
H            2.26186678571470        0.09267519935282       -1.71748562711909
H            1.74206471848003       -1.96198743340458       -2.88714916031722
H            1.28173950223061       -2.04631559214051       -1.19910518482808
H           -0.43964171504578       -3.11609114252856       -2.49531065713254
H           -1.05520431717741       -1.68644722588066       -1.70219073192453
H           -1.99638552849820       -1.18643791535871       -3.71221541367005
H           -0.39393702896189       -0.56453640701866       -4.07789038225549
H           -1.82753917943351       -4.05405453980647       -5.82015822961796
H           -1.07251875225021       -4.34242133144704       -4.24671631245331
H           -3.49458259694299       -4.47878885428242       -4.17302235999346
H           -2.89106449207889       -3.22777949969132       -3.07052757406824
H           -4.73444147155985       -2.62684514934847       -4.53675575646279
H           -0.87706015962737       -0.69750949879121       -6.29931602781131
H           -1.30520123122626       -2.22622836625986       -7.07610131804253
H           -2.47308323970235       -1.42498354456681       -6.01559776378192
H            1.10400961896328       -1.83860349622581       -5.47886546525938
H            0.95492593647964       -3.28569662092556       -4.47033423715004
H            0.56289209576572       -3.36472775501066       -6.19186958730911

          :  Hamiltonian                  GFN2-xTB          :
         :: total energy             -40.241453106505 Eh    ::
         :: gradient norm              0.000207575764 Eh/a0 ::
         :: HOMO-LUMO gap              7.954549992276 eV    ::
         :: SCC energy               -40.767229047243 Eh    ::
         :: -> dispersion             -0.026731321073 Eh    ::
         :: repulsion energy           0.525775940738 Eh    ::

    * Orbital Energies and Occupations

         #    Occupation            Energy/Eh            Energy/eV
      -------------------------------------------------------------
         1        2.0000           -0.8587075             -23.3666
       ...           ...                  ...                  ...
        25        2.0000           -0.6282781             -17.0963
        26        2.0000           -0.6205666             -16.8865
        27        2.0000           -0.6073816             -16.5277
        28        2.0000           -0.6052820             -16.4706
        29        2.0000           -0.5909715             -16.0812
        30        2.0000           -0.5884740             -16.0132
        31        2.0000           -0.5686471             -15.4737
        32        2.0000           -0.5627475             -15.3131
        33        2.0000           -0.5604167             -15.2497
        34        2.0000           -0.5524781             -15.0337
        35        2.0000           -0.5306661             -14.4402
        36        2.0000           -0.5242580             -14.2658
        37        2.0000           -0.5194488             -14.1349 (HOMO)
        38                         -0.2271245              -6.1804 (LUMO)
        39                         -0.1686362              -4.5888
        40                         -0.1474008              -4.0110
        41                         -0.1410051              -3.8369
        42                         -0.1057519              -2.8777
        43                         -0.0668642              -1.8195
        44                         -0.0524938              -1.4284
        45                         -0.0484440              -1.3182
        46                         -0.0344295              -0.9369
        47                         -0.0279062              -0.7594
        48                         -0.0143902              -0.3916
       ...                                ...                  ...
        72                          0.2048083               5.5731
      -------------------------------------------------------------
                  HL-Gap            0.2923243 Eh            7.9545 eV

     #   Z          covCN         q      C6AA      α(0)
     1   6 C        3.752    -0.109    22.641     6.786
     2   6 C        3.799    -0.058    21.613     6.619
     3   6 C        3.800    -0.064    21.729     6.637
     4   6 C        3.799    -0.070    21.841     6.654
     5   6 C        3.799    -0.073    21.890     6.662
     6   6 C        3.759    -0.046    21.441     6.601
     7   7 N        3.621     0.138    18.902     6.457
     8   6 C        3.760    -0.040    21.344     6.586
     9   6 C        3.672     0.072    19.610     6.347
    10   8 O        1.656    -0.440    21.638     6.279
    11   6 C        3.727    -0.104    22.585     6.785
    12   6 C        3.724    -0.095    22.431     6.763
    13   1 H        0.925     0.033     2.547     2.496
    14   1 H        0.925     0.045     2.383     2.414
    15   1 H        0.925     0.045     2.389     2.417
    16   1 H        0.924     0.026     2.643     2.543
    17   1 H        0.924     0.043     2.406     2.426
    18   1 H        0.924     0.022     2.706     2.573
    19   1 H        0.924     0.051     2.303     2.373
    20   1 H        0.924     0.033     2.543     2.494
    21   1 H        0.925     0.060     2.197     2.318
    22   1 H        0.924     0.045     2.389     2.417
    23   1 H        0.925     0.074     2.046     2.237
    24   1 H        0.925     0.096     1.821     2.110
    25   1 H        0.924     0.092     1.859     2.132
    26   1 H        0.924     0.098     1.802     2.099
    27   1 H        0.924     0.087     1.905     2.159
    28   1 H        0.924     0.062     2.177     2.307
    29   1 H        0.923     0.053     2.284     2.363
    30   1 H        0.805     0.315     0.679     1.294
    31   1 H        0.925     0.093     1.852     2.128
    32   1 H        0.925     0.093     1.846     2.125
    33   1 H        0.925     0.129     1.540     1.941
    34   1 H        0.925     0.101     1.780     2.086
    35   1 H        0.925     0.100     1.783     2.088
    36   1 H        0.925     0.093     1.848     2.126

Wiberg/Mayer (AO) data.
largest (>0.10) Wiberg bond orders for each atom

     #   Z sym  total        # sym  WBO       # sym  WBO       # sym  WBO
 ---------------------------------------------------------------------------
     1   6 C    3.995 --     2 C    1.020    15 H    0.987    14 H    0.986
                            13 H    0.986
     2   6 C    3.997 --     1 C    1.020     3 C    1.008    17 H    0.977
                            16 H    0.976
     3   6 C    3.995 --     2 C    1.008     4 C    1.007    19 H    0.974
                            18 H    0.972
     4   6 C    3.992 --     3 C    1.007     5 C    1.004    20 H    0.974
                            21 H    0.972
     5   6 C    3.986 --     4 C    1.004     6 C    1.003    22 H    0.969
                            23 H    0.967
     6   6 C    3.922 --     5 C    1.003    24 H    0.965    25 H    0.958
                             7 N    0.923
     7   7 N    3.812 --    12 C    0.961    11 C    0.954     8 C    0.939
                             6 C    0.923
     8   6 C    3.943 --     9 C    1.004    27 H    0.965    26 H    0.965
                             7 N    0.939
     9   6 C    3.958 --    10 O    1.004     8 C    1.004    28 H    0.964
                            29 H    0.964
    10   8 O    1.959 --     9 C    1.004    30 H    0.885
    11   6 C    3.918 --    31 H    0.976    32 H    0.975    33 H    0.961
                             7 N    0.954
    12   6 C    3.930 --    36 H    0.976    34 H    0.974    35 H    0.970
                             7 N    0.961
    13   1 H    0.999 --     1 C    0.986
    14   1 H    0.998 --     1 C    0.986
    15   1 H    0.998 --     1 C    0.987
    16   1 H    0.999 --     2 C    0.976
    17   1 H    0.998 --     2 C    0.977
    18   1 H    1.000 --     3 C    0.972
    19   1 H    0.997 --     3 C    0.974
    20   1 H    0.999 --     4 C    0.974
    21   1 H    0.996 --     4 C    0.972
    22   1 H    0.998 --     5 C    0.969
    23   1 H    0.994 --     5 C    0.967
    24   1 H    0.991 --     6 C    0.965
    25   1 H    0.992 --     6 C    0.958
    26   1 H    0.990 --     8 C    0.965
    27   1 H    0.992 --     8 C    0.965
    28   1 H    0.996 --     9 C    0.964
    29   1 H    0.997 --     9 C    0.964
    30   1 H    0.901 --    10 O    0.885
    31   1 H    0.991 --    11 C    0.976
    32   1 H    0.991 --    11 C    0.975
    33   1 H    0.983 --    11 C    0.961
    34   1 H    0.990 --    12 C    0.974
    35   1 H    0.990 --    12 C    0.970
    36   1 H    0.991 --    12 C    0.976
 ---------------------------------------------------------------------------

molecular dipole:
                 x           y           z       tot (Debye)
 q only:       -1.925      -4.634      -8.602
   full:       -2.066      -4.827      -8.564      25.533

           -------------------------------------------------
          | TOTAL ENERGY              -40.241453106505 Eh   |
          | GRADIENT NORM               0.000207575764 Eh/α |
          | HOMO-LUMO GAP               7.954549992276 eV   |
           -------------------------------------------------

 * finished run on 2024/12/20 at 07:02:22.702
