   * xtb version 6.7.1 (edcfbbe) compiled by 'conda@3ef47c1a292c' on 2024-11-25

   ID    Z sym.   atoms
    1    7 N      1, 6, 9
    2    6 C      2-5, 7, 8, 10, 11
    3    1 H      12-23

          program call               : xtb C0871.xyz --opt --namespace C0871 --charge +1
          :  Hamiltonian                  GFN2-xTB          :
 * total energy  :   -31.5662495 Eh     change       -0.1717741E-08 Eh
 * total energy  :   -31.5990363 Eh     change       -0.3278678E-01 Eh
 * total energy  :   -31.6012188 Eh     change       -0.2182540E-02 Eh
 * total energy  :   -31.6018377 Eh     change       -0.6189035E-03 Eh
 * total energy  :   -31.6021402 Eh     change       -0.3024416E-03 Eh
 * total energy  :   -31.6023376 Eh     change       -0.1974021E-03 Eh
 * total energy  :   -31.6025015 Eh     change       -0.1638831E-03 Eh
 * total energy  :   -31.6026690 Eh     change       -0.1675584E-03 Eh
 * total energy  :   -31.6028703 Eh     change       -0.2012591E-03 Eh
 * total energy  :   -31.6029537 Eh     change       -0.8340486E-04 Eh
 * total energy  :   -31.6040984 Eh     change       -0.1137614E-04 Eh
 * total energy  :   -31.6041075 Eh     change       -0.9073069E-05 Eh
 * total energy  :   -31.6041176 Eh     change       -0.1008816E-04 Eh
 * total energy  :   -31.6041280 Eh     change       -0.1040111E-04 Eh
 * total energy  :   -31.6041376 Eh     change       -0.9621466E-05 Eh
 * total energy  :   -31.6041460 Eh     change       -0.8343064E-05 Eh
 * total energy  :   -31.6041526 Eh     change       -0.6621606E-05 Eh
 * total energy  :   -31.6041579 Eh     change       -0.5266615E-05 Eh
 * total energy  :   -31.6041624 Eh     change       -0.4544620E-05 Eh
   *** GEOMETRY OPTIMIZATION CONVERGED AFTER 42 ITERATIONS ***

 final structure:
================
23
 xtb: 6.7.1 (edcfbbe)
N            1.10738090608818       -0.66660161309075        0.15365259754147
C            2.17855248802407       -0.27045569578719        0.13716173170360
C            3.56307666149919        0.13298339142603        0.09742072160590
C            4.42121079483139       -0.70784266512705        1.05599155754708
C            4.10601771263260       -2.20872323426660        0.99798151039196
N            4.25119881559412       -2.75575075304925       -0.33375917889808
C            3.23539035077638       -3.01408634643607       -1.20314169645236
C            3.79583978049317       -3.49611744280287       -2.34714066829859
N            5.14481549273867       -3.52429743835923       -2.15867543252079
C            5.39743002094759       -3.07152424322128       -0.93465126063495
C            6.10905811923462       -3.98078172254756       -3.12309399865337
H            3.91126801041232        0.03410874861786       -0.93577296852682
H            3.63008670627269        1.18802609540498        0.37173749343082
H            5.47464749281872       -0.53346289709143        0.83104239095889
H            4.24007815489113       -0.38517426875786        2.08181203918080
H            4.77664570047167       -2.74429962443145        1.67405155268437
H            3.07549052899228       -2.38049871829584        1.31585399922541
H            2.20691528881776       -2.83641860694983       -0.95801620665540
H            3.33372696393198       -3.81563269446860       -3.25893465910862
H            6.37210427649050       -2.98463507043744       -0.49428483632929
H            6.00002954789554       -3.42262714741370       -4.05342896170048
H            7.11647834629327       -3.84077337116776       -2.73796260475804
H            5.95332783985189       -5.03910468174707       -3.33659312173137

          :  Hamiltonian                  GFN2-xTB          :
         :: total energy             -31.604162404063 Eh    ::
         :: gradient norm              0.000156047171 Eh/a0 ::
         :: HOMO-LUMO gap              3.413732762666 eV    ::
         :: SCC energy               -32.127933390389 Eh    ::
         :: -> dispersion             -0.017674256271 Eh    ::
         :: repulsion energy           0.523770986326 Eh    ::

    * Orbital Energies and Occupations

         #    Occupation            Energy/Eh            Energy/eV
      -------------------------------------------------------------
         1        2.0000           -0.9060308             -24.6544
       ...           ...                  ...                  ...
        17        2.0000           -0.6732657             -18.3205
        18        2.0000           -0.6653423             -18.1049
        19        2.0000           -0.6621622             -18.0184
        20        2.0000           -0.6605349             -17.9741
        21        2.0000           -0.6469259             -17.6037
        22        2.0000           -0.6341912             -17.2572
        23        2.0000           -0.6224422             -16.9375
        24        2.0000           -0.6097423             -16.5919
        25        2.0000           -0.6086092             -16.5611
        26        2.0000           -0.5953248             -16.1996
        27        2.0000           -0.5878007             -15.9949
        28        2.0000           -0.5795917             -15.7715
        29        2.0000           -0.5423548             -14.7582 (HOMO)
        30                         -0.4169024             -11.3445 (LUMO)
        31                         -0.3781107             -10.2889
        32                         -0.3286114              -8.9420
        33                         -0.3228520              -8.7853
        34                         -0.1955600              -5.3215
        35                         -0.1390493              -3.7837
        36                         -0.0831045              -2.2614
        37                         -0.0628744              -1.7109
        38                         -0.0556804              -1.5151
        39                         -0.0401915              -1.0937
        40                         -0.0321696              -0.8754
       ...                                ...                  ...
        56                          1.0255653              27.9071
      -------------------------------------------------------------
                  HL-Gap            0.1254524 Eh            3.4137 eV

     #   Z          covCN         q      C6AA      α(0)
     1   7 N        0.911    -0.217    25.732     7.337
     2   6 C        1.897     0.111    28.364     8.601
     3   6 C        3.803    -0.061    21.675     6.628
     4   6 C        3.806    -0.064    21.721     6.635
     5   6 C        3.741    -0.029    21.171     6.565
     6   7 N        2.869     0.067    20.067     6.653
     7   6 C        3.068    -0.005    28.085     8.690
     8   6 C        3.074    -0.008    28.150     8.699
     9   7 N        2.866     0.080    19.854     6.618
    10   6 C        3.095     0.044    26.908     8.502
    11   6 C        3.692    -0.088    22.362     6.766
    12   1 H        0.924     0.068     2.113     2.273
    13   1 H        0.924     0.098     1.804     2.100
    14   1 H        0.924     0.062     2.173     2.305
    15   1 H        0.924     0.084     1.935     2.175
    16   1 H        0.924     0.090     1.883     2.146
    17   1 H        0.924     0.101     1.774     2.083
    18   1 H        0.926     0.121     1.604     1.980
    19   1 H        0.926     0.114     1.665     2.018
    20   1 H        0.926     0.113     1.670     2.021
    21   1 H        0.924     0.109     1.705     2.042
    22   1 H        0.925     0.100     1.781     2.087
    23   1 H        0.924     0.110     1.695     2.036

Wiberg/Mayer (AO) data.
largest (>0.10) Wiberg bond orders for each atom

     #   Z sym  total        # sym  WBO       # sym  WBO       # sym  WBO
 ---------------------------------------------------------------------------
     1   7 N    3.015 --     2 C    2.858
     2   6 C    3.948 --     1 N    2.858     3 C    1.050
     3   6 C    3.994 --     2 C    1.050     4 C    0.983    12 H    0.947
                            13 H    0.940
     4   6 C    3.986 --     5 C    0.989     3 C    0.983    14 H    0.974
                            15 H    0.968
     5   6 C    3.938 --     4 C    0.989     6 N    0.969    17 H    0.962
                            16 H    0.962
     6   7 N    3.716 --    10 C    1.356     7 C    1.232     5 C    0.969
     7   6 C    3.948 --     8 C    1.591     6 N    1.232    18 H    0.956
     8   6 C    3.947 --     7 C    1.591     9 N    1.227    19 H    0.960
     9   7 N    3.724 --    10 C    1.366     8 C    1.227    11 C    0.990
    10   6 C    3.946 --     9 N    1.366     6 N    1.356    20 H    0.954
    11   6 C    3.932 --     9 N    0.990    22 H    0.975    21 H    0.963
                            23 H    0.960
    12   1 H    0.995 --     3 C    0.947
    13   1 H    0.990 --     3 C    0.940
    14   1 H    0.996 --     4 C    0.974
    15   1 H    0.992 --     4 C    0.968
    16   1 H    0.992 --     5 C    0.962
    17   1 H    0.989 --     5 C    0.962
    18   1 H    0.985 --     7 C    0.956
    19   1 H    0.987 --     8 C    0.960
    20   1 H    0.987 --    10 C    0.954
    21   1 H    0.988 --    11 C    0.963
    22   1 H    0.990 --    11 C    0.975
    23   1 H    0.987 --    11 C    0.960
 ---------------------------------------------------------------------------

molecular dipole:
                 x           y           z       tot (Debye)
 q only:        9.788      -5.393      -2.267
   full:       10.288      -5.241      -2.265      29.906

           -------------------------------------------------
          | TOTAL ENERGY              -31.604162404063 Eh   |
          | GRADIENT NORM               0.000156047171 Eh/α |
          | HOMO-LUMO GAP               3.413732762666 eV   |
           -------------------------------------------------

 * finished run on 2024/12/20 at 07:02:09.655
