   * xtb version 6.7.1 (edcfbbe) compiled by 'conda@3ef47c1a292c' on 2024-11-25

   ID    Z sym.   atoms
    1    6 C      1-6, 8-15
    2    7 N      7
    3    1 H      16-47

          program call               : xtb C0874.xyz --opt --namespace C0874 --charge +1
          :  Hamiltonian                  GFN2-xTB          :
 * total energy  :   -48.8284737 Eh     change       -0.4682477E-10 Eh
 * total energy  :   -48.8347624 Eh     change       -0.6288691E-02 Eh
 * total energy  :   -48.8362271 Eh     change       -0.1464753E-02 Eh
 * total energy  :   -48.8363142 Eh     change       -0.8703732E-04 Eh
 * total energy  :   -48.8363910 Eh     change       -0.7684417E-04 Eh
 * total energy  :   -48.8364198 Eh     change       -0.2880253E-04 Eh
 * total energy  :   -48.8364639 Eh     change       -0.4408531E-04 Eh
 * total energy  :   -48.8364838 Eh     change       -0.1991971E-04 Eh
 * total energy  :   -48.8365036 Eh     change       -0.1980655E-04 Eh
 * total energy  :   -48.8365371 Eh     change       -0.3351524E-04 Eh
 * total energy  :   -48.8374455 Eh     change       -0.2544172E-04 Eh
 * total energy  :   -48.8374478 Eh     change       -0.2307627E-05 Eh
 * total energy  :   -48.8374619 Eh     change       -0.1412222E-04 Eh
 * total energy  :   -48.8374707 Eh     change       -0.8703655E-05 Eh
 * total energy  :   -48.8374833 Eh     change       -0.1261737E-04 Eh
 * total energy  :   -48.8374916 Eh     change       -0.8351892E-05 Eh
 * total energy  :   -48.8374971 Eh     change       -0.5475525E-05 Eh
 * total energy  :   -48.8375041 Eh     change       -0.7030191E-05 Eh
 * total energy  :   -48.8375083 Eh     change       -0.4194035E-05 Eh
   *** GEOMETRY OPTIMIZATION CONVERGED AFTER 46 ITERATIONS ***

 final structure:
================
47
 xtb: 6.7.1 (edcfbbe)
C            0.58236416747977       -0.09635765226420       -0.63213751340226
C            0.44653738834607       -0.65271235511229        0.77995995433740
C            1.36921165108345        0.03379492810369        1.78867037094587
C            1.13894354830457        1.53786804968011        1.96244277664902
C           -0.29600980869134        1.94342038365807        2.32536892743742
C           -0.88037007182244        1.29011304835704        3.58327168437012
N           -0.76190193460991        2.04849898864340        4.86872149553742
C           -1.61156993656621        3.28123100309594        4.86981205473270
C           -3.13226450467772        3.08668630517416        4.88554275326847
C           -3.79909515999011        3.11590710449331        6.26748402867681
C           -3.53827217601539        4.37937743111327        7.09275387728876
C           -3.89862091885795        5.69447925337397        6.39937611558388
C           -5.37450974919408        5.79466167147154        6.03370631383695
C           -1.15772783872631        1.14830738672677        5.96739269037542
C            0.63576197284395        2.45783212692868        5.09911959616571
H            0.23686845075945        0.93276929071530       -0.69338604993980
H           -0.00867532772234       -0.68975351957023       -1.32436173286501
H            1.61974713104094       -0.13149428643879       -0.95511869396056
H           -0.59392034456773       -0.58054915757425        1.10556818858835
H            0.70381423142959       -1.71339613552939        0.76335898702923
H            1.28294393961193       -0.47871654647974        2.75127418599904
H            2.40064812219545       -0.09987177651946        1.45780873711387
H            1.85079458957522        1.90910196210802        2.70101571808647
H            1.37897501883099        2.03269691166080        1.02111584150154
H           -0.34682137449968        3.03103422245291        2.38620022864407
H           -0.93817488419949        1.65631193715781        1.49249760213143
H           -1.94349413655477        1.10490519981743        3.42679774757158
H           -0.39578629604598        0.32412967020384        3.73099796967052
H           -1.32692186805208        3.87032091212597        5.74257607122916
H           -1.33508418036554        3.85186090029384        3.98270671170337
H           -3.56103571760928        3.89849894452229        4.29766758712886
H           -3.41678015301693        2.16336254125261        4.37986481424289
H           -4.87326119439564        3.02974891565619        6.10222326811696
H           -3.50441654102186        2.25154021926693        6.86420085508492
H           -4.13104104397329        4.29812508055071        8.00556299899635
H           -2.49076590401984        4.42094799529402        7.40535353108781
H           -3.65261897431649        6.50858757303229        7.08364780889943
H           -3.28739964499300        5.83261768830672        5.50433040348632
H           -5.99447604977879        5.62528577309445        6.91044380060921
H           -5.59590560431280        6.78609601192800        5.64813833687512
H           -5.64965042296864        5.06960901908136        5.27159250760868
H           -0.44752424802818        0.32702073321950        6.05102451648436
H           -1.16917837234051        1.69502182073925        6.90830254306879
H           -2.14577596201334        0.73337194497751        5.78494490604853
H            1.29315955484354        1.59463185947887        5.01513852399745
H            0.93928499844668        3.20815820380489        4.37345972945074
H            0.74125557913569        2.87945841793850        6.09761723047316

          :  Hamiltonian                  GFN2-xTB          :
         :: total energy             -48.837508320523 Eh    ::
         :: gradient norm              0.000412902708 Eh/a0 ::
         :: HOMO-LUMO gap              8.001235307805 eV    ::
         :: SCC energy               -49.546934080615 Eh    ::
         :: -> dispersion             -0.036468655982 Eh    ::
         :: repulsion energy           0.709425760092 Eh    ::

    * Orbital Energies and Occupations

         #    Occupation            Energy/Eh            Energy/eV
      -------------------------------------------------------------
         1        2.0000           -0.8583661             -23.3573
       ...           ...                  ...                  ...
        34        2.0000           -0.5877149             -15.9925
        35        2.0000           -0.5701365             -15.5142
        36        2.0000           -0.5681195             -15.4593
        37        2.0000           -0.5611179             -15.2688
        38        2.0000           -0.5598150             -15.2333
        39        2.0000           -0.5543915             -15.0858
        40        2.0000           -0.5527510             -15.0411
        41        2.0000           -0.5319781             -14.4759
        42        2.0000           -0.5318309             -14.4719
        43        2.0000           -0.5253244             -14.2948
        44        2.0000           -0.5250772             -14.2881
        45        2.0000           -0.5204691             -14.1627
        46        2.0000           -0.5204649             -14.1626 (HOMO)
        47                         -0.2264249              -6.1613 (LUMO)
        48                         -0.1673481              -4.5538
        49                         -0.1444962              -3.9319
        50                         -0.1385755              -3.7708
        51                         -0.0794398              -2.1617
        52                         -0.0719477              -1.9578
        53                         -0.0580593              -1.5799
        54                         -0.0337353              -0.9180
        55                         -0.0328147              -0.8929
        56                         -0.0294939              -0.8026
        57                         -0.0161117              -0.4384
       ...                                ...                  ...
        92                          0.2046826               5.5697
      -------------------------------------------------------------
                  HL-Gap            0.2940400 Eh            8.0012 eV

     #   Z          covCN         q      C6AA      α(0)
     1   6 C        3.752    -0.109    22.645     6.786
     2   6 C        3.799    -0.057    21.608     6.618
     3   6 C        3.800    -0.063    21.719     6.635
     4   6 C        3.799    -0.071    21.862     6.657
     5   6 C        3.799    -0.072    21.872     6.659
     6   6 C        3.758    -0.041    21.351     6.588
     7   7 N        3.620     0.129    19.041     6.481
     8   6 C        3.758    -0.041    21.351     6.588
     9   6 C        3.799    -0.072    21.872     6.659
    10   6 C        3.799    -0.071    21.862     6.657
    11   6 C        3.800    -0.063    21.719     6.635
    12   6 C        3.799    -0.057    21.608     6.618
    13   6 C        3.752    -0.109    22.645     6.786
    14   6 C        3.726    -0.092    22.356     6.751
    15   6 C        3.726    -0.092    22.356     6.751
    16   1 H        0.925     0.034     2.533     2.489
    17   1 H        0.925     0.045     2.380     2.412
    18   1 H        0.925     0.045     2.386     2.415
    19   1 H        0.924     0.025     2.660     2.550
    20   1 H        0.924     0.043     2.414     2.430
    21   1 H        0.924     0.019     2.747     2.592
    22   1 H        0.924     0.051     2.302     2.373
    23   1 H        0.924     0.034     2.529     2.487
    24   1 H        0.924     0.061     2.182     2.310
    25   1 H        0.924     0.047     2.358     2.401
    26   1 H        0.925     0.076     2.019     2.222
    27   1 H        0.924     0.079     1.993     2.207
    28   1 H        0.924     0.091     1.873     2.140
    29   1 H        0.924     0.091     1.873     2.140
    30   1 H        0.924     0.079     1.993     2.207
    31   1 H        0.925     0.076     2.019     2.222
    32   1 H        0.924     0.047     2.358     2.401
    33   1 H        0.924     0.061     2.182     2.310
    34   1 H        0.924     0.034     2.529     2.487
    35   1 H        0.924     0.051     2.302     2.373
    36   1 H        0.924     0.019     2.747     2.592
    37   1 H        0.924     0.043     2.414     2.430
    38   1 H        0.924     0.025     2.660     2.550
    39   1 H        0.925     0.045     2.386     2.415
    40   1 H        0.925     0.045     2.380     2.412
    41   1 H        0.925     0.034     2.533     2.489
    42   1 H        0.925     0.092     1.859     2.132
    43   1 H        0.925     0.098     1.800     2.098
    44   1 H        0.925     0.100     1.787     2.090
    45   1 H        0.925     0.098     1.800     2.098
    46   1 H        0.925     0.100     1.787     2.090
    47   1 H        0.925     0.092     1.859     2.132

Wiberg/Mayer (AO) data.
largest (>0.10) Wiberg bond orders for each atom

     #   Z sym  total        # sym  WBO       # sym  WBO       # sym  WBO
 ---------------------------------------------------------------------------
     1   6 C    3.995 --     2 C    1.021    18 H    0.987    17 H    0.986
                            16 H    0.986
     2   6 C    3.997 --     1 C    1.021     3 C    1.008    20 H    0.977
                            19 H    0.977
     3   6 C    3.995 --     2 C    1.008     4 C    1.007    22 H    0.974
                            21 H    0.972
     4   6 C    3.992 --     3 C    1.007     5 C    1.005    23 H    0.974
                            24 H    0.971
     5   6 C    3.985 --     4 C    1.005     6 C    1.004    26 H    0.965
                            25 H    0.965
     6   6 C    3.927 --     5 C    1.004    27 H    0.964    28 H    0.959
                             7 N    0.924
     7   7 N    3.808 --    14 C    0.961    15 C    0.961     8 C    0.924
                             6 C    0.924
     8   6 C    3.927 --     9 C    1.004    30 H    0.964    29 H    0.959
                             7 N    0.924
     9   6 C    3.985 --    10 C    1.005     8 C    1.004    31 H    0.965
                            32 H    0.965
    10   6 C    3.992 --    11 C    1.007     9 C    1.005    34 H    0.974
                            33 H    0.971
    11   6 C    3.995 --    12 C    1.008    10 C    1.007    35 H    0.974
                            36 H    0.972
    12   6 C    3.997 --    13 C    1.021    11 C    1.008    37 H    0.977
                            38 H    0.977
    13   6 C    3.995 --    12 C    1.021    39 H    0.987    40 H    0.986
                            41 H    0.986
    14   6 C    3.931 --    42 H    0.975    43 H    0.973    44 H    0.972
                             7 N    0.961
    15   6 C    3.931 --    47 H    0.975    45 H    0.973    46 H    0.972
                             7 N    0.961
    16   1 H    0.999 --     1 C    0.986
    17   1 H    0.998 --     1 C    0.986
    18   1 H    0.998 --     1 C    0.987
    19   1 H    0.999 --     2 C    0.977
    20   1 H    0.998 --     2 C    0.977
    21   1 H    1.000 --     3 C    0.972
    22   1 H    0.997 --     3 C    0.974
    23   1 H    0.999 --     4 C    0.974
    24   1 H    0.996 --     4 C    0.971
    25   1 H    0.998 --     5 C    0.965
    26   1 H    0.994 --     5 C    0.965
    27   1 H    0.994 --     6 C    0.964
    28   1 H    0.992 --     6 C    0.959
    29   1 H    0.992 --     8 C    0.959
    30   1 H    0.994 --     8 C    0.964
    31   1 H    0.994 --     9 C    0.965
    32   1 H    0.998 --     9 C    0.965
    33   1 H    0.996 --    10 C    0.971
    34   1 H    0.999 --    10 C    0.974
    35   1 H    0.997 --    11 C    0.974
    36   1 H    1.000 --    11 C    0.972
    37   1 H    0.998 --    12 C    0.977
    38   1 H    0.999 --    12 C    0.977
    39   1 H    0.998 --    13 C    0.987
    40   1 H    0.998 --    13 C    0.986
    41   1 H    0.999 --    13 C    0.986
    42   1 H    0.992 --    14 C    0.975
    43   1 H    0.990 --    14 C    0.973
    44   1 H    0.990 --    14 C    0.972
    45   1 H    0.990 --    15 C    0.973
    46   1 H    0.990 --    15 C    0.972
    47   1 H    0.992 --    15 C    0.975
 ---------------------------------------------------------------------------

molecular dipole:
                 x           y           z       tot (Debye)
 q only:       -1.720       4.008       8.829
   full:       -1.680       3.989       8.882      25.114

           -------------------------------------------------
          | TOTAL ENERGY              -48.837508320523 Eh   |
          | GRADIENT NORM               0.000412902708 Eh/α |
          | HOMO-LUMO GAP               8.001235307805 eV   |
           -------------------------------------------------

 * finished run on 2024/12/20 at 07:02:15.946
