   * xtb version 6.7.1 (edcfbbe) compiled by 'conda@3ef47c1a292c' on 2024-11-25

   ID    Z sym.   atoms
    1    6 C      1, 2, 4, 6-17
    2    7 N      3
    3    8 O      5
    4    1 H      18-49

          program call               : xtb C0876.xyz --opt --namespace C0876 --charge +1
          :  Hamiltonian                  GFN2-xTB          :
 * total energy  :   -55.0482534 Eh     change       -0.3116725E-09 Eh
 * total energy  :   -55.0548597 Eh     change       -0.6606332E-02 Eh
 * total energy  :   -55.0565345 Eh     change       -0.1674808E-02 Eh
 * total energy  :   -55.0568808 Eh     change       -0.3463125E-03 Eh
 * total energy  :   -55.0572151 Eh     change       -0.3342897E-03 Eh
 * total energy  :   -55.0573687 Eh     change       -0.1536279E-03 Eh
 * total energy  :   -55.0575271 Eh     change       -0.1583444E-03 Eh
 * total energy  :   -55.0576515 Eh     change       -0.1243924E-03 Eh
 * total energy  :   -55.0577376 Eh     change       -0.8612213E-04 Eh
 * total energy  :   -55.0578090 Eh     change       -0.7142520E-04 Eh
 * total energy  :   -55.0590865 Eh     change       -0.7318966E-05 Eh
 * total energy  :   -55.0590931 Eh     change       -0.6587956E-05 Eh
 * total energy  :   -55.0590993 Eh     change       -0.6158499E-05 Eh
 * total energy  :   -55.0591054 Eh     change       -0.6085095E-05 Eh
 * total energy  :   -55.0591117 Eh     change       -0.6332869E-05 Eh
 * total energy  :   -55.0591182 Eh     change       -0.6486225E-05 Eh
 * total energy  :   -55.0591243 Eh     change       -0.6166231E-05 Eh
 * total energy  :   -55.0591297 Eh     change       -0.5386319E-05 Eh
 * total energy  :   -55.0591342 Eh     change       -0.4448988E-05 Eh
   *** GEOMETRY OPTIMIZATION CONVERGED AFTER 67 ITERATIONS ***

 final structure:
================
49
 xtb: 6.7.1 (edcfbbe)
C            1.73624509238695        0.94291885310277        1.75933056259787
C            0.52100214506974        1.85365358825512        1.78355892426660
N            0.21160413102915        2.55612425963376        0.49588954120405
C           -0.14093071710810        1.55830309109411       -0.56307477635479
O           -1.14075272655653        0.74830437472161       -0.06816961891496
C           -1.91077797390622        0.02845406195550       -1.06642483965488
C           -2.31057175968126       -1.31236923019143       -0.44811948906057
C           -3.47176547746480       -1.24818543130933        0.54640941949709
C           -3.06411269919825       -0.62221978304399        1.87781199148698
C           -4.65213153542131       -0.52447575059805       -0.10165198939193
C           -4.26727009714949        0.86603041976571       -0.59171588501745
C           -3.07464681046026        0.90350386479208       -1.56180566515107
C           -3.45371602273550        0.66749910658472       -3.04511914633828
C           -2.45259656853361        1.36968824921588       -3.96714028046404
C           -3.59260761424534       -0.78842206323026       -3.48018941531755
C           -0.95893130055137        3.42666442654316        0.72248021438710
C            1.34863081242205        3.37404113103456        0.04506697285579
H            1.62505625902005        0.13257369140805        1.04536641494319
H            1.82710735082147        0.49329875067583        2.74512351613396
H            2.65993628360924        1.47907424573279        1.56121118021288
H           -0.36122545475774        1.26098177897164        2.03097739632604
H            0.65933478586329        2.62455438859464        2.54368488777250
H           -0.45927657235697        2.11288642755088       -1.45966962914071
H            0.76651944903928        0.98493457141466       -0.81158617713894
H           -1.23030604669468       -0.17876386162213       -1.90269578161617
H           -1.42913722989025       -1.72935201017830        0.04332264569269
H           -2.58672213450203       -1.98245031286897       -1.26053156859326
H           -3.77767985684468       -2.27922666215732        0.75309313950335
H           -2.71146541852732        0.39530798358633        1.74159889840582
H           -3.91084394657732       -0.60853959994191        2.55949428540033
H           -2.26736973782926       -1.20339553538353        2.33640967711265
H           -5.02648704723400       -1.12227444119518       -0.93204178552760
H           -5.46407481072710       -0.42933646383044        0.62117568483212
H           -4.02434903548005        1.47951502550151        0.27896929662612
H           -5.12800659837223        1.32946557022394       -1.07633168889481
H           -2.71227629385481        1.94166913071580       -1.53712693944312
H           -4.42504339862556        1.15136237113994       -3.19183031670249
H           -1.45427855598912        0.94718500131944       -3.86223727306540
H           -2.75505562848514        1.24790687342259       -5.00335859639383
H           -2.40548670053081        2.43710630087589       -3.75749776966114
H           -4.30437977146175       -1.32628160658204       -2.86359870982292
H           -3.95451316451008       -0.81909247892901       -4.50528908532036
H           -2.63623343813638       -1.30490211973794       -3.45254223399371
H           -0.75935465270410        4.12377495142995        1.53322874898890
H           -1.18568113987149        3.99157903058283       -0.18024949015579
H           -1.81892482391799        2.81035858684127        0.97910606368751
H            1.63639646460299        4.06896520318839        0.83207032332151
H            2.20025322441166        2.74402168100272       -0.20077319666059
H            1.07253676264790        3.94247035990407       -0.84165843746721

          :  Hamiltonian                  GFN2-xTB          :
         :: total energy             -55.059134171166 Eh    ::
         :: gradient norm              0.000139307155 Eh/a0 ::
         :: HOMO-LUMO gap              7.407945154754 eV    ::
         :: SCC energy               -55.794316826155 Eh    ::
         :: -> dispersion             -0.043883885270 Eh    ::
         :: repulsion energy           0.735182654989 Eh    ::

    * Orbital Energies and Occupations

         #    Occupation            Energy/Eh            Energy/eV
      -------------------------------------------------------------
         1        2.0000           -0.8695055             -23.6604
       ...           ...                  ...                  ...
        39        2.0000           -0.5706321             -15.5277
        40        2.0000           -0.5638256             -15.3425
        41        2.0000           -0.5605130             -15.2523
        42        2.0000           -0.5527324             -15.0406
        43        2.0000           -0.5476653             -14.9027
        44        2.0000           -0.5427048             -14.7677
        45        2.0000           -0.5395817             -14.6828
        46        2.0000           -0.5298070             -14.4168
        47        2.0000           -0.5284235             -14.3791
        48        2.0000           -0.5194881             -14.1360
        49        2.0000           -0.5072548             -13.8031
        50        2.0000           -0.5068958             -13.7933
        51        2.0000           -0.5042048             -13.7201 (HOMO)
        52                         -0.2319678              -6.3122 (LUMO)
        53                         -0.1780260              -4.8443
        54                         -0.1506431              -4.0992
        55                         -0.1445775              -3.9342
        56                         -0.1162405              -3.1631
        57                         -0.0692754              -1.8851
        58                         -0.0582613              -1.5854
        59                         -0.0427288              -1.1627
        60                         -0.0398272              -1.0838
        61                         -0.0305544              -0.8314
        62                         -0.0195764              -0.5327
       ...                                ...                  ...
       100                          0.2491390               6.7794
      -------------------------------------------------------------
                  HL-Gap            0.2722370 Eh            7.4079 eV

     #   Z          covCN         q      C6AA      α(0)
     1   6 C        3.751    -0.128    23.027     6.843
     2   6 C        3.759    -0.035    21.242     6.571
     3   7 N        3.621     0.119    19.199     6.508
     4   6 C        3.654     0.124    18.836     6.231
     5   8 O        1.698    -0.313    19.217     5.919
     6   6 C        3.739     0.111    18.829     6.192
     7   6 C        3.806    -0.070    21.839     6.653
     8   6 C        3.852    -0.014    20.786     6.485
     9   6 C        3.754    -0.108    22.628     6.783
    10   6 C        3.806    -0.065    21.750     6.639
    11   6 C        3.803    -0.060    21.644     6.623
    12   6 C        3.849    -0.032    21.106     6.535
    13   6 C        3.848    -0.020    20.891     6.501
    14   6 C        3.756    -0.109    22.645     6.785
    15   6 C        3.755    -0.112    22.693     6.792
    16   6 C        3.725    -0.090    22.331     6.748
    17   6 C        3.715    -0.096    22.463     6.771
    18   1 H        0.925     0.068     2.102     2.267
    19   1 H        0.925     0.088     1.897     2.154
    20   1 H        0.925     0.065     2.143     2.289
    21   1 H        0.924     0.111     1.689     2.032
    22   1 H        0.924     0.084     1.942     2.179
    23   1 H        0.923     0.062     2.173     2.305
    24   1 H        0.923     0.064     2.157     2.297
    25   1 H        0.924     0.025     2.663     2.552
    26   1 H        0.924     0.049     2.327     2.386
    27   1 H        0.925     0.060     2.200     2.320
    28   1 H        0.924     0.042     2.422     2.434
    29   1 H        0.925     0.032     2.560     2.502
    30   1 H        0.925     0.044     2.390     2.418
    31   1 H        0.925     0.036     2.504     2.474
    32   1 H        0.925     0.042     2.419     2.432
    33   1 H        0.924     0.045     2.382     2.414
    34   1 H        0.924     0.031     2.575     2.510
    35   1 H        0.924     0.043     2.409     2.427
    36   1 H        0.923     0.022     2.700     2.570
    37   1 H        0.924     0.046     2.371     2.408
    38   1 H        0.925     0.024     2.667     2.554
    39   1 H        0.925     0.054     2.274     2.358
    40   1 H        0.925     0.027     2.634     2.538
    41   1 H        0.925     0.046     2.365     2.405
    42   1 H        0.925     0.050     2.315     2.379
    43   1 H        0.925     0.033     2.542     2.493
    44   1 H        0.925     0.096     1.819     2.109
    45   1 H        0.925     0.093     1.849     2.126
    46   1 H        0.925     0.113     1.675     2.024
    47   1 H        0.925     0.104     1.748     2.068
    48   1 H        0.925     0.101     1.773     2.082
    49   1 H        0.925     0.095     1.831     2.116

Wiberg/Mayer (AO) data.
largest (>0.10) Wiberg bond orders for each atom

     #   Z sym  total        # sym  WBO       # sym  WBO       # sym  WBO
 ---------------------------------------------------------------------------
     1   6 C    3.982 --     2 C    1.025    20 H    0.981    18 H    0.980
                            19 H    0.971
     2   6 C    3.921 --     1 C    1.025    22 H    0.968    21 H    0.960
                             3 N    0.915
     3   7 N    3.804 --    17 C    0.961    16 C    0.955     4 C    0.919
                             2 C    0.915
     4   6 C    3.934 --     5 O    1.039    23 H    0.953    24 H    0.951
                             3 N    0.919
     5   8 O    2.076 --     4 C    1.039     6 C    0.900
     6   6 C    3.913 --     7 C    0.993    12 C    0.982    25 H    0.961
                             5 O    0.900
     7   6 C    3.990 --     8 C    0.996     6 C    0.993    26 H    0.972
                            27 H    0.967
     8   6 C    3.995 --     9 C    1.010    10 C    0.997     7 C    0.996
                            28 H    0.967
     9   6 C    3.996 --     8 C    1.010    31 H    0.986    30 H    0.986
                            29 H    0.981
    10   6 C    3.996 --    11 C    1.010     8 C    0.997    33 H    0.974
                            32 H    0.970
    11   6 C    3.996 --    10 C    1.010    12 C    0.994    34 H    0.974
                            35 H    0.973
    12   6 C    3.991 --    11 C    0.994     6 C    0.982    13 C    0.978
                            36 H    0.960
    13   6 C    3.993 --    15 C    1.012    14 C    1.008    12 C    0.978
                            37 H    0.965
    14   6 C    3.995 --    13 C    1.008    40 H    0.986    38 H    0.984
                            39 H    0.984
    15   6 C    3.994 --    13 C    1.012    42 H    0.983    43 H    0.983
                            41 H    0.977
    16   6 C    3.923 --    44 H    0.975    45 H    0.975    46 H    0.969
                             3 N    0.955
    17   6 C    3.928 --    49 H    0.975    47 H    0.974    48 H    0.972
                             3 N    0.961
    18   1 H    0.995 --     1 C    0.980
    19   1 H    0.992 --     1 C    0.971
    20   1 H    0.996 --     1 C    0.981
    21   1 H    0.988 --     2 C    0.960
    22   1 H    0.993 --     2 C    0.968
    23   1 H    0.996 --     4 C    0.953
    24   1 H    0.996 --     4 C    0.951
    25   1 H    0.999 --     6 C    0.961
    26   1 H    0.998 --     7 C    0.972
    27   1 H    0.996 --     7 C    0.967
    28   1 H    0.998 --     8 C    0.967
    29   1 H    0.999 --     9 C    0.981
    30   1 H    0.998 --     9 C    0.986
    31   1 H    0.999 --     9 C    0.986
    32   1 H    0.998 --    10 C    0.970
    33   1 H    0.998 --    10 C    0.974
    34   1 H    0.999 --    11 C    0.974
    35   1 H    0.998 --    11 C    0.973
    36   1 H    0.999 --    12 C    0.960
    37   1 H    0.998 --    13 C    0.965
    38   1 H    0.999 --    14 C    0.984
    39   1 H    0.997 --    14 C    0.984
    40   1 H    0.999 --    14 C    0.986
    41   1 H    0.998 --    15 C    0.977
    42   1 H    0.997 --    15 C    0.983
    43   1 H    0.999 --    15 C    0.983
    44   1 H    0.991 --    16 C    0.975
    45   1 H    0.991 --    16 C    0.975
    46   1 H    0.987 --    16 C    0.969
    47   1 H    0.989 --    17 C    0.974
    48   1 H    0.990 --    17 C    0.972
    49   1 H    0.991 --    17 C    0.975
 ---------------------------------------------------------------------------

molecular dipole:
                 x           y           z       tot (Debye)
 q only:       -0.317       4.059       0.497
   full:       -0.131       4.225       0.259      10.764

           -------------------------------------------------
          | TOTAL ENERGY              -55.059134171166 Eh   |
          | GRADIENT NORM               0.000139307155 Eh/α |
          | HOMO-LUMO GAP               7.407945154754 eV   |
           -------------------------------------------------

 * finished run on 2024/12/20 at 07:02:19.387
