   * xtb version 6.7.1 (edcfbbe) compiled by 'conda@3ef47c1a292c' on 2024-11-25

   ID    Z sym.   atoms
    1    6 C      1, 3, 5-13, 15, 16, 18, 19, 21-26
    2    8 O      2, 4, 20
    3    7 N      14, 17
    4    1 H      27-45

          program call               : xtb C0877.xyz --opt --namespace C0877 --charge +1
          :  Hamiltonian                  GFN2-xTB          :
 * total energy  :   -72.2734457 Eh     change       -0.3279155E-09 Eh
 * total energy  :   -72.2846110 Eh     change       -0.1116531E-01 Eh
 * total energy  :   -72.2880246 Eh     change       -0.3413619E-02 Eh
 * total energy  :   -72.2888181 Eh     change       -0.7935159E-03 Eh
 * total energy  :   -72.2894470 Eh     change       -0.6288297E-03 Eh
 * total energy  :   -72.2897921 Eh     change       -0.3450836E-03 Eh
 * total energy  :   -72.2901039 Eh     change       -0.3118684E-03 Eh
 * total energy  :   -72.2903998 Eh     change       -0.2958657E-03 Eh
 * total energy  :   -72.2906206 Eh     change       -0.2208095E-03 Eh
 * total energy  :   -72.2907746 Eh     change       -0.1539970E-03 Eh
 * total energy  :   -72.2914938 Eh     change       -0.1218661E-04 Eh
 * total energy  :   -72.2915021 Eh     change       -0.8210247E-05 Eh
 * total energy  :   -72.2915095 Eh     change       -0.7460596E-05 Eh
 * total energy  :   -72.2915160 Eh     change       -0.6480118E-05 Eh
 * total energy  :   -72.2915265 Eh     change       -0.1045926E-04 Eh
 * total energy  :   -72.2915362 Eh     change       -0.9735672E-05 Eh
 * total energy  :   -72.2915337 Eh     change        0.2527064E-05 Eh
 * total energy  :   -72.2915556 Eh     change       -0.2189496E-04 Eh
 * total energy  :   -72.2915597 Eh     change       -0.4132193E-05 Eh
   *** GEOMETRY OPTIMIZATION CONVERGED AFTER 45 ITERATIONS ***

 final structure:
================
45
 xtb: 6.7.1 (edcfbbe)
C            0.85280553429658       -0.63948651463630       -0.04686615363049
O            0.40895125458398       -1.18493301080431        1.18899572897940
C            1.37316177588195       -1.54487289562422        2.04578840220862
O            2.55029935700580       -1.42001074631790        1.81993716977789
C            0.84634724976089       -2.10995296021650        3.30631272031426
C           -0.45588632716062       -2.26322047601338        3.56245020670613
C           -1.03144926346477       -2.82703001573608        4.77179865007430
C           -2.40088913875956       -3.10249111087590        4.80354243645698
C           -2.99213363271793       -3.65457287111238        5.92289665105924
C           -2.22607243538950       -3.94933898835332        7.04235485569548
C           -0.86493274913594       -3.66334660175432        7.03008502852428
C           -0.27483929062054       -3.11223550289586        5.91197240084902
C           -2.85762001693746       -4.54631515386937        8.28033452315269
N           -2.92265509147851       -3.54099516435828        9.32179036989927
C           -3.77469430035632       -2.47295983089524        9.32867058920403
C           -3.47345423302228       -1.71577966035805       10.41653303574649
N           -2.43551901547915       -2.33224143971213       11.05919049139557
C           -2.11481926638379       -3.42825876251286       10.36187519396469
C           -1.65903731515422       -1.87639822471907       12.22473957870889
O           -0.50890118269243       -2.19763923487157       12.25205969863853
C           -2.39291647332594       -1.08717345298408       13.19926395514593
C           -1.65094437344872       -0.20144073435806       13.99217888039633
C           -2.28155104199326        0.55851910488887       14.95605172338780
C           -3.64812845307899        0.42732425263735       15.15813186208909
C           -4.38405147306244       -0.47303313849444       14.39978777553364
C           -3.76809806580830       -1.22776579805934       13.42134533817805
H           -0.04074102590937       -0.32619312922001       -0.57909887680966
H            1.39529252256087       -1.39358289129785       -0.61937356311637
H            1.51539763423128        0.20951214827263        0.12913029029938
H            1.62299670291614       -2.40138338570242        3.99723262146869
H           -1.16547707783855       -1.96400408299927        2.80300411522960
H           -3.00447956072747       -2.88803997208824        3.93495946478725
H           -4.05027680032518       -3.87178875567208        5.91743288808702
H           -0.26004480595982       -3.88316582859425        7.89837121116886
H            0.78127465627323       -2.89917341793717        5.92511027925347
H           -3.87087401238608       -4.88999962190149        8.06144115191583
H           -2.26473907334052       -5.38581077705936        8.64919089168317
H           -4.51745918638647       -2.32844994634738        8.57076522211026
H           -3.89532582005421       -0.79192980931825       10.75555590634043
H           -1.32500873015454       -4.10197192295629       10.63616853020187
H           -0.58856191555647       -0.11750063369986       13.82270144723839
H           -1.70909446569067        1.24823437892543       15.55577446204720
H           -4.14009826044192        1.01681034368547       15.91603275801077
H           -5.44139649075684       -0.59096484597505       14.57879979107489
H           -4.34466632247801       -1.95569891811980       12.86954029654895

          :  Hamiltonian                  GFN2-xTB          :
         :: total energy             -72.291559696664 Eh    ::
         :: gradient norm              0.000836414366 Eh/a0 ::
         :: HOMO-LUMO gap              1.123997280422 eV    ::
         :: SCC energy               -73.422218726233 Eh    ::
         :: -> dispersion             -0.045140510890 Eh    ::
         :: repulsion energy           1.130659029569 Eh    ::

    * Orbital Energies and Occupations

         #    Occupation            Energy/Eh            Energy/eV
      -------------------------------------------------------------
         1        2.0000           -0.8957463             -24.3745
       ...           ...                  ...                  ...
        53        2.0000           -0.5532534             -15.0548
        54        2.0000           -0.5524329             -15.0325
        55        2.0000           -0.5513406             -15.0027
        56        2.0000           -0.5454850             -14.8434
        57        2.0000           -0.5440428             -14.8042
        58        2.0000           -0.5436289             -14.7929
        59        2.0000           -0.5393644             -14.6769
        60        2.0000           -0.5354339             -14.5699
        61        2.0000           -0.5266687             -14.3314
        62        2.0000           -0.5225910             -14.2204
        63        2.0000           -0.5069502             -13.7948
        64        2.0000           -0.4938487             -13.4383
        65        2.0000           -0.4807591             -13.0821 (HOMO)
        66                         -0.4394529             -11.9581 (LUMO)
        67                         -0.3956597             -10.7664
        68                         -0.3776374             -10.2760
        69                         -0.3721145             -10.1257
        70                         -0.3556994              -9.6791
        71                         -0.3392686              -9.2320
        72                         -0.3262904              -8.8788
        73                         -0.3134901              -8.5305
        74                         -0.2418545              -6.5812
        75                         -0.2245251              -6.1096
        76                         -0.1960229              -5.3341
       ...                                ...                  ...
       123                          0.6475514              17.6208
      -------------------------------------------------------------
                  HL-Gap            0.0413061 Eh            1.1240 eV

     #   Z          covCN         q      C6AA      α(0)
     1   6 C        3.658     0.030    20.351     6.474
     2   8 O        1.704    -0.261    18.319     5.779
     3   6 C        2.728     0.354    20.991     7.501
     4   8 O        0.857    -0.395    21.587     6.229
     5   6 C        2.892    -0.058    29.446     8.897
     6   6 C        2.902    -0.020    28.517     8.756
     7   6 C        2.971     0.029    27.357     8.579
     8   6 C        2.928    -0.027    28.681     8.783
     9   6 C        2.919    -0.035    28.877     8.812
    10   6 C        2.973    -0.003    28.104     8.696
    11   6 C        2.920    -0.037    28.927     8.820
    12   6 C        2.923    -0.026    28.659     8.779
    13   6 C        3.748    -0.029    21.162     6.561
    14   7 N        2.868     0.076    19.916     6.628
    15   6 C        3.075    -0.004    28.035     8.681
    16   6 C        3.054     0.006    27.846     8.654
    17   7 N        2.870     0.010    21.074     6.818
    18   6 C        3.089     0.070    26.326     8.410
    19   6 C        2.762     0.276    22.333     7.739
    20   8 O        0.858    -0.305    19.878     5.978
    21   6 C        2.972    -0.017    28.435     8.747
    22   6 C        2.926    -0.008    28.209     8.710
    23   6 C        2.916    -0.014    28.356     8.732
    24   6 C        2.920    -0.004    28.127     8.697
    25   6 C        2.917    -0.018    28.452     8.747
    26   6 C        2.918    -0.024    28.596     8.769
    27   1 H        0.925     0.073     2.053     2.241
    28   1 H        0.924     0.069     2.099     2.266
    29   1 H        0.924     0.070     2.083     2.257
    30   1 H        0.926     0.076     2.021     2.223
    31   1 H        0.925     0.074     2.037     2.232
    32   1 H        0.926     0.061     2.187     2.313
    33   1 H        0.926     0.045     2.379     2.412
    34   1 H        0.926     0.039     2.465     2.455
    35   1 H        0.926     0.062     2.173     2.305
    36   1 H        0.924     0.093     1.848     2.126
    37   1 H        0.924     0.089     1.890     2.150
    38   1 H        0.926     0.111     1.690     2.033
    39   1 H        0.926     0.109     1.708     2.044
    40   1 H        0.926     0.127     1.559     1.953
    41   1 H        0.926     0.077     2.005     2.214
    42   1 H        0.926     0.075     2.034     2.230
    43   1 H        0.926     0.074     2.038     2.233
    44   1 H        0.926     0.067     2.119     2.276
    45   1 H        0.926     0.044     2.400     2.423

Wiberg/Mayer (AO) data.
largest (>0.10) Wiberg bond orders for each atom

     #   Z sym  total        # sym  WBO       # sym  WBO       # sym  WBO
 ---------------------------------------------------------------------------
     1   6 C    3.919 --    27 H    0.981    29 H    0.975    28 H    0.975
                             2 O    0.954
     2   8 O    2.306 --     3 C    1.123     1 C    0.954     4 O    0.176
     3   6 C    3.926 --     4 O    1.730     2 O    1.123     5 C    1.016
     4   8 O    2.036 --     3 C    1.730     2 O    0.176
     5   6 C    3.984 --     6 C    1.803     3 C    1.016    30 H    0.958
     6   6 C    3.985 --     5 C    1.803     7 C    1.105    31 H    0.957
     7   6 C    3.987 --     8 C    1.371    12 C    1.361     6 C    1.105
     8   6 C    3.982 --     9 C    1.457     7 C    1.371    32 H    0.966
                            11 C    0.102
     9   6 C    3.989 --     8 C    1.457    10 C    1.407    33 H    0.967
                            12 C    0.102
    10   6 C    3.968 --     9 C    1.407    11 C    1.396    13 C    0.975
    11   6 C    3.991 --    12 C    1.470    10 C    1.396    34 H    0.968
                             8 C    0.102
    12   6 C    3.989 --    11 C    1.470     7 C    1.361    35 H    0.963
                             9 C    0.102
    13   6 C    3.930 --    10 C    0.975    37 H    0.962    36 H    0.959
                            14 N    0.956
    14   7 N    3.724 --    18 C    1.400    15 C    1.208    13 C    0.956
    15   6 C    3.947 --    16 C    1.613    14 N    1.208    38 H    0.960
    16   6 C    3.949 --    15 C    1.613    17 N    1.205    39 H    0.959
    17   7 N    3.682 --    18 C    1.328    16 C    1.205    19 C    0.898
    18   6 C    3.941 --    14 N    1.400    17 N    1.328    40 H    0.950
    19   6 C    3.919 --    20 O    1.836    21 C    1.075    17 N    0.898
    20   8 O    2.146 --    19 C    1.836
    21   6 C    3.980 --    26 C    1.348    22 C    1.344    19 C    1.075
    22   6 C    3.982 --    23 C    1.465    21 C    1.344    41 H    0.965
    23   6 C    3.987 --    22 C    1.465    24 C    1.425    42 H    0.965
                            26 C    0.101
    24   6 C    3.982 --    23 C    1.425    25 C    1.419    43 H    0.967
    25   6 C    3.989 --    26 C    1.470    24 C    1.419    44 H    0.967
    26   6 C    3.990 --    25 C    1.470    21 C    1.348    45 H    0.966
                            23 C    0.101
    27   1 H    0.994 --     1 C    0.981
    28   1 H    0.995 --     1 C    0.975
    29   1 H    0.995 --     1 C    0.975
    30   1 H    0.994 --     5 C    0.958
    31   1 H    0.994 --     6 C    0.957
    32   1 H    0.996 --     8 C    0.966
    33   1 H    0.998 --     9 C    0.967
    34   1 H    0.998 --    11 C    0.968
    35   1 H    0.996 --    12 C    0.963
    36   1 H    0.990 --    13 C    0.959
    37   1 H    0.991 --    13 C    0.962
    38   1 H    0.987 --    15 C    0.960
    39   1 H    0.988 --    16 C    0.959
    40   1 H    0.984 --    18 C    0.950
    41   1 H    0.994 --    22 C    0.965
    42   1 H    0.994 --    23 C    0.965
    43   1 H    0.994 --    24 C    0.967
    44   1 H    0.995 --    25 C    0.967
    45   1 H    0.998 --    26 C    0.966
 ---------------------------------------------------------------------------

molecular dipole:
                 x           y           z       tot (Debye)
 q only:       -6.784      -4.241      19.161
   full:       -6.968      -4.373      19.205      53.104

           -------------------------------------------------
          | TOTAL ENERGY              -72.291559696664 Eh   |
          | GRADIENT NORM               0.000836414366 Eh/α |
          | HOMO-LUMO GAP               1.123997280422 eV   |
           -------------------------------------------------

 * finished run on 2024/12/20 at 07:02:21.322
