   * xtb version 6.7.1 (edcfbbe) compiled by 'conda@3ef47c1a292c' on 2024-11-25

   ID    Z sym.   atoms
    1    6 C      1-4, 7-11, 13, 15-17, 19-24
    2    8 O      5, 6, 18
    3    7 N      12, 14
    4    1 H      25-47

          program call               : xtb C0879.xyz --opt --namespace C0879 --charge +1
          :  Hamiltonian                  GFN2-xTB          :
 * total energy  :   -70.0802927 Eh     change       -0.1637360E-08 Eh
 * total energy  :   -70.0895362 Eh     change       -0.9243504E-02 Eh
 * total energy  :   -70.0914721 Eh     change       -0.1935836E-02 Eh
 * total energy  :   -70.0918837 Eh     change       -0.4116706E-03 Eh
 * total energy  :   -70.0922175 Eh     change       -0.3337769E-03 Eh
 * total energy  :   -70.0924537 Eh     change       -0.2362237E-03 Eh
 * total energy  :   -70.0927768 Eh     change       -0.3230841E-03 Eh
 * total energy  :   -70.0932735 Eh     change       -0.4967124E-03 Eh
 * total energy  :   -70.0938917 Eh     change       -0.6181600E-03 Eh
 * total energy  :   -70.0945353 Eh     change       -0.6435547E-03 Eh
 * total energy  :   -70.1105714 Eh     change       -0.1006287E-04 Eh
 * total energy  :   -70.1105806 Eh     change       -0.9197617E-05 Eh
 * total energy  :   -70.1105881 Eh     change       -0.7509321E-05 Eh
 * total energy  :   -70.1106051 Eh     change       -0.1700186E-04 Eh
 * total energy  :   -70.1106134 Eh     change       -0.8298875E-05 Eh
 * total energy  :   -70.1106132 Eh     change        0.1835758E-06 Eh
 * total energy  :   -70.1106207 Eh     change       -0.7544399E-05 Eh
 * total energy  :   -70.1106261 Eh     change       -0.5412622E-05 Eh
 * total energy  :   -70.1106297 Eh     change       -0.3536465E-05 Eh
   *** GEOMETRY OPTIMIZATION CONVERGED AFTER 102 ITERATIONS ***

 final structure:
================
47
 xtb: 6.7.1 (edcfbbe)
C            0.68852984653705       -0.29903632420408        1.93872915965969
C            0.43668321134068        0.97183176677743        2.74057807862190
C            1.30044941695248        2.13313706686198        2.25901251992220
C            1.19934270239658        3.36986013781012        3.14985530189007
O            0.91319545971238        3.42791185704903        4.30270238026967
O            1.44841055672665        4.47252227330326        2.39686833592756
C            1.75288594703856        4.08394996404428        1.06552085687482
C            1.02757591290039        2.74717874268038        0.87638990235956
C           -0.48936995125343        2.94332523205193        0.65665539425863
C           -0.80458577357944        3.93992967114277       -0.39879865771581
C           -0.78119736518608        3.81838839472567       -1.75935536107772
N           -1.12442693186709        5.02541534457808       -2.29471238080023
C           -1.37637535865021        5.86114049086116       -1.28893703194102
N           -1.17823471114493        5.23510988716353       -0.13164019914774
C           -1.37334816026948        5.81794641711586        1.17134117093415
C           -1.42962866255759        5.30291739853270       -3.66697153135720
C           -2.94088878302925        5.67113039842503       -3.76195257841819
O           -3.54597132779909        5.85905415267844       -2.73179664476891
C           -3.51665530001016        5.78500285878140       -5.09691774147776
C           -4.88959698097535        6.05423569740058       -5.18022732497187
C           -5.50461417511596        6.18779519619078       -6.40783802743948
C           -4.75981775296059        6.05809822554865       -7.57054999694304
C           -3.39827797446858        5.79558264024954       -7.50064102511844
C           -2.77440831047294        5.65756522474755       -6.27677321010702
H            0.43461526573615       -0.16237617336563        0.88959951307683
H            0.08481972267003       -1.11210049948605        2.33097722417341
H            1.73335711212165       -0.59202597153296        2.00301695685255
H           -0.62083828109399        1.23461435460539        2.70211206693220
H            0.68396655932404        0.79798637398948        3.78899548335774
H            2.34998535998352        1.81412625197991        2.29443847578114
H            2.83656364591284        3.95375096400205        0.96530172301167
H            1.43774813011744        4.88364786100892        0.39449666005588
H            1.45770147550884        2.17391808438883        0.05618003656991
H           -0.92485591844245        1.98293795890389        0.37910535275530
H           -0.94271176989149        3.26470693275797        1.59495195636132
H           -0.54813056791604        2.96668361564773       -2.36464738174734
H           -1.67523645812702        6.88528477840939       -1.39249582322492
H           -0.48487221348997        5.69351455311877        1.79229198617572
H           -1.58402130281450        6.87877267219849        1.06125533528132
H           -2.22041980817527        5.34576692332396        1.67102955890067
H           -0.84937297237200        6.15722130384640       -4.02724124065797
H           -1.20434773038340        4.42499982868597       -4.27180709809314
H           -5.45091291117864        6.15309679106031       -4.26350251617766
H           -6.56189454746669        6.39452307310572       -6.46107551514788
H           -5.23740121789138        6.16314407218150       -8.53244715362768
H           -2.82232795029066        5.69934319787000       -8.40790225842481
H           -1.71383915612710        5.46246033888818       -6.24964473161734

          :  Hamiltonian                  GFN2-xTB          :
         :: total energy             -70.110629682154 Eh    ::
         :: gradient norm              0.000652751493 Eh/a0 ::
         :: HOMO-LUMO gap              2.694771852600 eV    ::
         :: SCC energy               -71.099263933553 Eh    ::
         :: -> dispersion             -0.046628063441 Eh    ::
         :: repulsion energy           0.988634251398 Eh    ::

    * Orbital Energies and Occupations

         #    Occupation            Energy/Eh            Energy/eV
      -------------------------------------------------------------
         1        2.0000           -0.8811501             -23.9773
       ...           ...                  ...                  ...
        51        2.0000           -0.5800796             -15.7848
        52        2.0000           -0.5724300             -15.5766
        53        2.0000           -0.5577521             -15.1772
        54        2.0000           -0.5576689             -15.1749
        55        2.0000           -0.5533498             -15.0574
        56        2.0000           -0.5491238             -14.9424
        57        2.0000           -0.5367614             -14.6060
        58        2.0000           -0.5349206             -14.5559
        59        2.0000           -0.5294243             -14.4064
        60        2.0000           -0.5285487             -14.3825
        61        2.0000           -0.5266068             -14.3297
        62        2.0000           -0.5240544             -14.2602
        63        2.0000           -0.5089898             -13.8503 (HOMO)
        64                         -0.4099587             -11.1555 (LUMO)
        65                         -0.3907563             -10.6330
        66                         -0.3582294              -9.7479
        67                         -0.3404370              -9.2638
        68                         -0.3285585              -8.9405
        69                         -0.3127901              -8.5115
        70                         -0.2033481              -5.5334
        71                         -0.1706620              -4.6439
        72                         -0.1332941              -3.6271
        73                         -0.1028076              -2.7975
        74                         -0.0849615              -2.3119
       ...                                ...                  ...
       119                          0.5915381              16.0966
      -------------------------------------------------------------
                  HL-Gap            0.0990310 Eh            2.6948 eV

     #   Z          covCN         q      C6AA      α(0)
     1   6 C        3.752    -0.111    22.689     6.793
     2   6 C        3.801    -0.061    21.676     6.629
     3   6 C        3.892    -0.056    21.531     6.596
     4   6 C        2.785     0.351    21.039     7.513
     5   8 O        0.856    -0.345    20.607     6.086
     6   8 O        1.706    -0.271    18.489     5.806
     7   6 C        3.785     0.065    19.513     6.292
     8   6 C        3.877    -0.029    21.046     6.523
     9   6 C        3.805    -0.077    21.959     6.671
    10   6 C        3.094     0.043    26.917     8.503
    11   6 C        3.070    -0.027    28.602     8.769
    12   7 N        2.860     0.063    20.142     6.666
    13   6 C        3.081     0.057    26.630     8.460
    14   7 N        2.866     0.056    20.270     6.687
    15   6 C        3.692    -0.084    22.292     6.756
    16   6 C        3.743    -0.048    21.517     6.617
    17   6 C        2.823     0.227    23.239     7.899
    18   8 O        0.857    -0.356    20.820     6.118
    19   6 C        2.970    -0.017    28.433     8.747
    20   6 C        2.927    -0.009    28.238     8.715
    21   6 C        2.916    -0.017    28.442     8.745
    22   6 C        2.920    -0.006    28.175     8.704
    23   6 C        2.917    -0.019    28.478     8.751
    24   6 C        2.919    -0.027    28.666     8.780
    25   1 H        0.925     0.033     2.543     2.494
    26   1 H        0.925     0.055     2.255     2.348
    27   1 H        0.925     0.048     2.345     2.395
    28   1 H        0.924     0.043     2.405     2.425
    29   1 H        0.924     0.071     2.079     2.255
    30   1 H        0.924     0.077     2.012     2.218
    31   1 H        0.924     0.061     2.182     2.310
    32   1 H        0.924     0.049     2.337     2.391
    33   1 H        0.925     0.058     2.227     2.334
    34   1 H        0.924     0.087     1.904     2.158
    35   1 H        0.924     0.080     1.980     2.201
    36   1 H        0.926     0.094     1.844     2.123
    37   1 H        0.926     0.117     1.636     2.000
    38   1 H        0.924     0.116     1.643     2.004
    39   1 H        0.925     0.095     1.829     2.115
    40   1 H        0.924     0.101     1.773     2.082
    41   1 H        0.924     0.099     1.797     2.096
    42   1 H        0.925     0.099     1.791     2.093
    43   1 H        0.926     0.075     2.035     2.231
    44   1 H        0.926     0.067     2.119     2.276
    45   1 H        0.926     0.068     2.104     2.268
    46   1 H        0.926     0.062     2.174     2.306
    47   1 H        0.926     0.042     2.421     2.433

Wiberg/Mayer (AO) data.
largest (>0.10) Wiberg bond orders for each atom

     #   Z sym  total        # sym  WBO       # sym  WBO       # sym  WBO
 ---------------------------------------------------------------------------
     1   6 C    3.994 --     2 C    1.019    25 H    0.987    27 H    0.986
                            26 H    0.985
     2   6 C    3.989 --     1 C    1.019     3 C    0.994    28 H    0.974
                            29 H    0.970
     3   6 C    3.988 --     2 C    0.994     8 C    0.978     4 C    0.946
                            30 H    0.935
     4   6 C    3.914 --     5 O    1.823     6 O    1.079     3 C    0.946
     5   8 O    2.110 --     4 C    1.823     6 O    0.160
     6   8 O    2.280 --     4 C    1.079     7 C    0.962     5 O    0.160
     7   6 C    3.939 --     8 C    0.988    32 H    0.969    31 H    0.966
                             6 O    0.962
     8   6 C    3.991 --     7 C    0.988     3 C    0.978     9 C    0.969
                            33 H    0.969
     9   6 C    3.985 --    10 C    1.027     8 C    0.969    35 H    0.961
                            34 H    0.957
    10   6 C    3.952 --    11 C    1.557    14 N    1.187     9 C    1.027
    11   6 C    3.940 --    10 C    1.557    12 N    1.203    36 H    0.964
    12   7 N    3.702 --    13 C    1.344    11 C    1.203    16 C    0.996
    13   6 C    3.945 --    14 N    1.356    12 N    1.344    37 H    0.953
    14   7 N    3.702 --    13 C    1.356    10 C    1.187    15 C    0.989
    15   6 C    3.932 --    14 N    0.989    39 H    0.975    40 H    0.960
                            38 H    0.957
    16   6 C    3.947 --    12 N    0.996    42 H    0.957    41 H    0.943
                            17 C    0.920
    17   6 C    3.930 --    18 O    1.805    19 C    1.082    16 C    0.920
    18   8 O    2.106 --    17 C    1.805
    19   6 C    3.982 --    24 C    1.351    20 C    1.348    17 C    1.082
    20   6 C    3.984 --    21 C    1.465    19 C    1.348    43 H    0.964
    21   6 C    3.988 --    20 C    1.465    22 C    1.427    44 H    0.967
                            24 C    0.102
    22   6 C    3.985 --    21 C    1.427    23 C    1.417    45 H    0.968
    23   6 C    3.990 --    24 C    1.474    22 C    1.417    46 H    0.968
    24   6 C    3.991 --    23 C    1.474    19 C    1.351    47 H    0.966
                            21 C    0.102
    25   1 H    0.999 --     1 C    0.987
    26   1 H    0.997 --     1 C    0.985
    27   1 H    0.998 --     1 C    0.986
    28   1 H    0.998 --     2 C    0.974
    29   1 H    0.995 --     2 C    0.970
    30   1 H    0.993 --     3 C    0.935
    31   1 H    0.996 --     7 C    0.966
    32   1 H    0.997 --     7 C    0.969
    33   1 H    0.997 --     8 C    0.969
    34   1 H    0.992 --     9 C    0.957
    35   1 H    0.993 --     9 C    0.961
    36   1 H    0.991 --    11 C    0.964
    37   1 H    0.986 --    13 C    0.953
    38   1 H    0.986 --    15 C    0.957
    39   1 H    0.991 --    15 C    0.975
    40   1 H    0.989 --    15 C    0.960
    41   1 H    0.990 --    16 C    0.943
    42   1 H    0.990 --    16 C    0.957
    43   1 H    0.994 --    20 C    0.964
    44   1 H    0.995 --    21 C    0.967
    45   1 H    0.995 --    22 C    0.968
    46   1 H    0.996 --    23 C    0.968
    47   1 H    0.998 --    24 C    0.966
 ---------------------------------------------------------------------------

molecular dipole:
                 x           y           z       tot (Debye)
 q only:       -2.427       8.678      -5.160
   full:       -2.167       8.757      -5.589      26.973

           -------------------------------------------------
          | TOTAL ENERGY              -70.110629682154 Eh   |
          | GRADIENT NORM               0.000652751493 Eh/α |
          | HOMO-LUMO GAP               2.694771852600 eV   |
           -------------------------------------------------

 * finished run on 2024/12/20 at 07:02:26.408
