   * xtb version 6.7.1 (edcfbbe) compiled by 'conda@3ef47c1a292c' on 2024-11-25

   ID    Z sym.   atoms
    1    6 C      1-4, 6-12
    2    7 N      5
    3    1 H      13-28

          program call               : xtb C0875.xyz --opt --namespace C0875 --charge +1
          :  Hamiltonian                  GFN2-xTB          :
 * total energy  :   -34.2209653 Eh     change       -0.1756462E-10 Eh
 * total energy  :   -34.2241274 Eh     change       -0.3162084E-02 Eh
 * total energy  :   -34.2245748 Eh     change       -0.4474776E-03 Eh
 * total energy  :   -34.2246505 Eh     change       -0.7566536E-04 Eh
 * total energy  :   -34.2247029 Eh     change       -0.5236154E-04 Eh
 * total energy  :   -34.2247278 Eh     change       -0.2493888E-04 Eh
 * total energy  :   -34.2247600 Eh     change       -0.3222378E-04 Eh
 * total energy  :   -34.2248351 Eh     change       -0.7505272E-04 Eh
 * total energy  :   -34.2249033 Eh     change       -0.6818301E-04 Eh
 * total energy  :   -34.2250025 Eh     change       -0.9925589E-04 Eh
 * total energy  :   -34.2258170 Eh     change       -0.2286309E-04 Eh
 * total energy  :   -34.2258375 Eh     change       -0.2055679E-04 Eh
 * total energy  :   -34.2258603 Eh     change       -0.2273566E-04 Eh
 * total energy  :   -34.2258902 Eh     change       -0.2991761E-04 Eh
 * total energy  :   -34.2259065 Eh     change       -0.1635011E-04 Eh
 * total energy  :   -34.2259286 Eh     change       -0.2203225E-04 Eh
 * total energy  :   -34.2259293 Eh     change       -0.7427986E-06 Eh
 * total energy  :   -34.2259451 Eh     change       -0.1583400E-04 Eh
 * total energy  :   -34.2259496 Eh     change       -0.4444829E-05 Eh
   *** GEOMETRY OPTIMIZATION CONVERGED AFTER 31 ITERATIONS ***

 final structure:
================
28
 xtb: 6.7.1 (edcfbbe)
C            1.45732937720532        0.48880366079613       -0.09997182746701
C            0.54863085743383        1.67520298106860       -0.12558027029821
C           -0.39352770636391        1.77940795668800       -1.06047280795674
C           -1.38115220965335        2.90450744611992       -1.21927522574372
N           -0.92269963158178        3.79298393397735       -2.28428910680093
C           -0.11883612600787        4.82427827180697       -2.00060617655246
C            0.40090602433897        5.62201156550306       -2.99255243946516
C            0.10190004651064        5.36520817498863       -4.33366665947109
C           -0.73784151796217        4.27642400509125       -4.59332786539456
C           -1.22856080954868        3.51733131872429       -3.55876566466402
C            0.62886912681537        6.20709834311962       -5.43096854770475
C            0.80769965163139        2.67013563839502        0.96076504258096
H            1.32845299243998       -0.13877809693197       -0.97639673231125
H            1.25429867191762       -0.11018636642039        0.78612093001211
H            2.49476759539469        0.81211475802722       -0.04284545016753
H           -0.47931418540956        1.00427399175767       -1.80858722569317
H           -2.35942280656296        2.50713914748566       -1.49709768673242
H           -1.48335857118694        3.48220681875204       -0.30099972262400
H            0.10325997491734        5.00202808266564       -0.95930370327427
H            1.04081546786388        6.44805515215520       -2.72519007688062
H           -1.00637408408847        4.02719484940841       -5.60785091593071
H           -1.87809098404369        2.67322713482721       -3.73699462749241
H           -0.17185670835634        6.83586239398291       -5.82344202976138
H            1.43284860919268        6.85277534055485       -5.09050309228070
H            0.98100246392494        5.59103731955716       -6.25596599063757
H            1.04720172712765        2.14878398093737        1.88438504332109
H            1.67533515300769        3.27749548447400        0.70094702536708
H           -0.03395239895621        3.32963671249038        1.15310580402278

          :  Hamiltonian                  GFN2-xTB          :
         :: total energy             -34.225949594262 Eh    ::
         :: gradient norm              0.000536637487 Eh/a0 ::
         :: HOMO-LUMO gap              2.073878011248 eV    ::
         :: SCC energy               -34.822220278235 Eh    ::
         :: -> dispersion             -0.021301607227 Eh    ::
         :: repulsion energy           0.596270683973 Eh    ::

    * Orbital Energies and Occupations

         #    Occupation            Energy/Eh            Energy/eV
      -------------------------------------------------------------
         1        2.0000           -0.8652329             -23.5442
       ...           ...                  ...                  ...
        20        2.0000           -0.6274072             -17.0726
        21        2.0000           -0.6197513             -16.8643
        22        2.0000           -0.6153939             -16.7457
        23        2.0000           -0.6114989             -16.6397
        24        2.0000           -0.6030431             -16.4096
        25        2.0000           -0.6008525             -16.3500
        26        2.0000           -0.5971376             -16.2489
        27        2.0000           -0.5874183             -15.9845
        28        2.0000           -0.5772888             -15.7088
        29        2.0000           -0.5716086             -15.5543
        30        2.0000           -0.5631193             -15.3233
        31        2.0000           -0.5556031             -15.1187
        32        2.0000           -0.5172362             -14.0747 (HOMO)
        33                         -0.4410226             -12.0008 (LUMO)
        34                         -0.4139996             -11.2655
        35                         -0.3328680              -9.0578
        36                         -0.2945473              -8.0150
        37                         -0.1491447              -4.0584
        38                         -0.0689570              -1.8764
        39                         -0.0493384              -1.3426
        40                         -0.0396110              -1.0779
        41                         -0.0224062              -0.6097
        42                         -0.0192911              -0.5249
        43                         -0.0143455              -0.3904
       ...                                ...                  ...
        64                          0.5132652              13.9667
      -------------------------------------------------------------
                  HL-Gap            0.0762136 Eh            2.0739 eV

     #   Z          covCN         q      C6AA      α(0)
     1   6 C        3.763    -0.124    22.915     6.823
     2   6 C        2.937     0.035    27.221     8.557
     3   6 C        2.899    -0.082    30.055     8.989
     4   6 C        3.758    -0.028    21.125     6.553
     5   7 N        2.752     0.095    19.595     6.574
     6   6 C        2.889     0.030    27.327     8.571
     7   6 C        2.921    -0.028    28.691     8.784
     8   6 C        2.969     0.070    26.439     8.434
     9   6 C        2.921    -0.028    28.694     8.784
    10   6 C        2.889     0.031    27.315     8.569
    11   6 C        3.758    -0.133    23.109     6.853
    12   6 C        3.758    -0.121    22.868     6.818
    13   1 H        0.925     0.055     2.258     2.350
    14   1 H        0.925     0.075     2.032     2.229
    15   1 H        0.925     0.069     2.093     2.262
    16   1 H        0.926     0.048     2.348     2.396
    17   1 H        0.924     0.086     1.922     2.168
    18   1 H        0.925     0.086     1.922     2.168
    19   1 H        0.926     0.104     1.751     2.070
    20   1 H        0.926     0.098     1.803     2.100
    21   1 H        0.926     0.099     1.791     2.093
    22   1 H        0.926     0.103     1.754     2.071
    23   1 H        0.924     0.103     1.754     2.071
    24   1 H        0.925     0.084     1.940     2.178
    25   1 H        0.925     0.094     1.841     2.122
    26   1 H        0.925     0.074     2.044     2.236
    27   1 H        0.924     0.061     2.186     2.312
    28   1 H        0.925     0.044     2.398     2.422

Wiberg/Mayer (AO) data.
largest (>0.10) Wiberg bond orders for each atom

     #   Z sym  total        # sym  WBO       # sym  WBO       # sym  WBO
 ---------------------------------------------------------------------------
     1   6 C    3.989 --     2 C    1.033    13 H    0.983    15 H    0.966
                            14 H    0.959
     2   6 C    3.981 --     3 C    1.849    12 C    1.033     1 C    1.033
     3   6 C    3.960 --     2 C    1.849     4 C    0.988    16 H    0.963
     4   6 C    3.932 --     3 C    0.988    17 H    0.961    18 H    0.956
                             5 N    0.944
     5   7 N    3.754 --     6 C    1.316    10 C    1.310     4 C    0.944
     6   6 C    3.960 --     7 C    1.487     5 N    1.316    19 H    0.954
     7   6 C    3.984 --     6 C    1.487     8 C    1.367    20 H    0.959
     8   6 C    3.968 --     7 C    1.367     9 C    1.362    11 C    1.062
     9   6 C    3.984 --    10 C    1.494     8 C    1.362    21 H    0.960
    10   6 C    3.958 --     9 C    1.494     5 N    1.310    22 H    0.955
    11   6 C    3.984 --     8 C    1.062    24 H    0.977    25 H    0.956
                            23 H    0.934
    12   6 C    3.993 --     2 C    1.033    28 H    0.975    26 H    0.972
                            27 H    0.960
    13   1 H    0.997 --     1 C    0.983
    14   1 H    0.994 --     1 C    0.959
    15   1 H    0.994 --     1 C    0.966
    16   1 H    0.998 --     3 C    0.963
    17   1 H    0.992 --     4 C    0.961
    18   1 H    0.992 --     4 C    0.956
    19   1 H    0.989 --     6 C    0.954
    20   1 H    0.990 --     7 C    0.959
    21   1 H    0.990 --     9 C    0.960
    22   1 H    0.989 --    10 C    0.955
    23   1 H    0.988 --    11 C    0.934
    24   1 H    0.993 --    11 C    0.977
    25   1 H    0.990 --    11 C    0.956
    26   1 H    0.994 --    12 C    0.972
    27   1 H    0.996 --    12 C    0.960
    28   1 H    0.998 --    12 C    0.975
 ---------------------------------------------------------------------------

molecular dipole:
                 x           y           z       tot (Debye)
 q only:       -0.387       7.701      -5.054
   full:       -0.471       7.722      -5.019      23.440

           -------------------------------------------------
          | TOTAL ENERGY              -34.225949594262 Eh   |
          | GRADIENT NORM               0.000536637487 Eh/α |
          | HOMO-LUMO GAP               2.073878011248 eV   |
           -------------------------------------------------

 * finished run on 2024/12/20 at 07:02:16.845
