   * xtb version 6.7.1 (edcfbbe) compiled by 'conda@3ef47c1a292c' on 2024-11-25

   ID    Z sym.   atoms
    1    6 C      1-4, 6, 7, 9-18
    2    7 N      5, 8
    3    1 H      19-41

          program call               : xtb C0870.xyz --opt --namespace C0870 --charge +1
          :  Hamiltonian                  GFN2-xTB          :
 * total energy  :   -51.4920747 Eh     change       -0.1216982E-08 Eh
 * total energy  :   -51.4969739 Eh     change       -0.4899196E-02 Eh
 * total energy  :   -51.4979183 Eh     change       -0.9444146E-03 Eh
 * total energy  :   -51.4981321 Eh     change       -0.2137652E-03 Eh
 * total energy  :   -51.4983395 Eh     change       -0.2074440E-03 Eh
 * total energy  :   -51.4984611 Eh     change       -0.1215662E-03 Eh
 * total energy  :   -51.4986637 Eh     change       -0.2026659E-03 Eh
 * total energy  :   -51.4989173 Eh     change       -0.2535353E-03 Eh
 * total energy  :   -51.4991931 Eh     change       -0.2758075E-03 Eh
 * total energy  :   -51.4994252 Eh     change       -0.2320698E-03 Eh
 * total energy  :   -51.4998793 Eh     change       -0.2375855E-04 Eh
 * total energy  :   -51.4999067 Eh     change       -0.2734145E-04 Eh
 * total energy  :   -51.4999371 Eh     change       -0.3044346E-04 Eh
 * total energy  :   -51.4999521 Eh     change       -0.1497402E-04 Eh
 * total energy  :   -51.4999728 Eh     change       -0.2068152E-04 Eh
 * total energy  :   -51.4999876 Eh     change       -0.1480680E-04 Eh
 * total energy  :   -51.5000015 Eh     change       -0.1389837E-04 Eh
 * total energy  :   -51.5000117 Eh     change       -0.1022454E-04 Eh
 * total energy  :   -51.5000161 Eh     change       -0.4352690E-05 Eh
   *** GEOMETRY OPTIMIZATION CONVERGED AFTER 25 ITERATIONS ***

 final structure:
================
41
 xtb: 6.7.1 (edcfbbe)
C            1.34727746314510        0.62596669655699       -0.75937446681384
C            1.02186458532729       -0.20813513899800       -1.99301519862257
C            1.26996340531535       -1.70380241462897       -1.79542453544863
C            0.31856901031661       -2.36109479005732       -0.78756593572317
N           -1.04536082929646       -2.31335358649509       -1.25899330399813
C           -1.60926503317239       -3.17849930088046       -2.14688988471008
C           -2.87302730005135       -2.73763223024311       -2.39788984434269
N           -3.05765856561639       -1.60605333259070       -1.66369794382481
C           -1.93960323048009       -1.36693944422671       -0.98649067264688
C           -4.24814152461457       -0.81526362273878       -1.62999677477563
C           -5.22217085214623       -1.10483410276860       -0.67332532767357
C           -5.02257780527833       -2.21605333996459        0.31126047406549
C           -6.37239147482932       -0.33397893127946       -0.66987115803228
C           -6.56317953008535        0.69701605583741       -1.58417451060993
C           -5.56904321705563        0.95594206580585       -2.51840754382144
C           -4.40022360275233        0.21087805533512       -2.56118843019650
C           -3.32825140481099        0.50055058161299       -3.56700390346185
C           -7.81501261465492        1.50937593486071       -1.54432735217124
H            0.69810291647919        0.38849554096194        0.08074683392840
H            1.22911540965043        1.68267952460318       -0.98288652245066
H            2.37639710692593        0.46022354044422       -0.45206664682311
H           -0.01527875019071       -0.03734283379675       -2.29629043812430
H            1.65359388024841        0.12850880684118       -2.81568943509145
H            1.17835998157383       -2.21643232547882       -2.75507970636163
H            2.28746459896674       -1.85281286273379       -1.43414729247668
H            0.59679887790207       -3.40731333647520       -0.64677443731214
H            0.37369723957913       -1.84989355182824        0.17413457171678
H           -1.08896690524624       -4.03355215775440       -2.52707540669221
H           -3.63788520089110       -3.13908539615413       -3.03075045250316
H           -1.79449802598830       -0.54158134956575       -0.31704504769145
H           -5.87640738660982       -2.28546104533080        0.97783203500520
H           -4.90943908363949       -3.17288934064744       -0.19802523897193
H           -4.13187916777114       -2.04782069330336        0.91665509435103
H           -7.14045664582328       -0.54042404478209        0.05967525906541
H           -5.70554801309463        1.75397151055511       -3.23190952606884
H           -3.66231860351690        1.26287852809156       -4.26379740653825
H           -2.42644395921965        0.86648585584959       -3.07508439906663
H           -3.06716721849322       -0.39145761203921       -4.13561981306150
H           -8.68903373384184        0.86160010155449       -1.52988927829712
H           -7.83854858244799        2.11263400445814       -0.63755321312907
H           -7.88184621381306        2.17286998139053       -2.40136322060344

          :  Hamiltonian                  GFN2-xTB          :
         :: total energy             -51.500016052503 Eh    ::
         :: gradient norm              0.000482752775 Eh/a0 ::
         :: HOMO-LUMO gap              3.171771095564 eV    ::
         :: SCC energy               -52.357424037194 Eh    ::
         :: -> dispersion             -0.038463796908 Eh    ::
         :: repulsion energy           0.857407984690 Eh    ::

    * Orbital Energies and Occupations

         #    Occupation            Energy/Eh            Energy/eV
      -------------------------------------------------------------
         1        2.0000           -0.8812934             -23.9812
       ...           ...                  ...                  ...
        36        2.0000           -0.5867838             -15.9672
        37        2.0000           -0.5860742             -15.9479
        38        2.0000           -0.5759056             -15.6712
        39        2.0000           -0.5729470             -15.5907
        40        2.0000           -0.5619365             -15.2911
        41        2.0000           -0.5603162             -15.2470
        42        2.0000           -0.5544322             -15.0869
        43        2.0000           -0.5531839             -15.0529
        44        2.0000           -0.5476412             -14.9021
        45        2.0000           -0.5443744             -14.8132
        46        2.0000           -0.5370320             -14.6134
        47        2.0000           -0.5123862             -13.9427
        48        2.0000           -0.5097133             -13.8700 (HOMO)
        49                         -0.3931528             -10.6982 (LUMO)
        50                         -0.3581668              -9.7462
        51                         -0.3467173              -9.4347
        52                         -0.3384096              -9.2086
        53                         -0.2178159              -5.9271
        54                         -0.1669098              -4.5418
        55                         -0.1139439              -3.1006
        56                         -0.0531228              -1.4455
        57                         -0.0449510              -1.2232
        58                         -0.0363130              -0.9881
        59                         -0.0254831              -0.6934
       ...                                ...                  ...
        95                          0.5282417              14.3742
      -------------------------------------------------------------
                  HL-Gap            0.1165604 Eh            3.1718 eV

     #   Z          covCN         q      C6AA      α(0)
     1   6 C        3.751    -0.113    22.719     6.797
     2   6 C        3.800    -0.059    21.640     6.623
     3   6 C        3.802    -0.071    21.857     6.656
     4   6 C        3.742    -0.026    21.107     6.554
     5   7 N        2.869     0.064    20.118     6.662
     6   6 C        3.075    -0.008    28.150     8.699
     7   6 C        3.072    -0.003    28.014     8.678
     8   7 N        2.877     0.069    20.043     6.649
     9   6 C        3.101     0.053    26.681     8.465
    10   6 C        2.930     0.007    27.871     8.658
    11   6 C        2.963     0.013    27.723     8.636
    12   6 C        3.757    -0.116    22.782     6.805
    13   6 C        2.933    -0.048    29.189     8.860
    14   6 C        2.962     0.034    27.247     8.562
    15   6 C        2.932    -0.047    29.178     8.859
    16   6 C        2.963     0.013    27.721     8.636
    17   6 C        3.757    -0.115    22.755     6.801
    18   6 C        3.759    -0.121    22.869     6.818
    19   1 H        0.925     0.029     2.601     2.522
    20   1 H        0.925     0.052     2.289     2.366
    21   1 H        0.925     0.053     2.282     2.362
    22   1 H        0.924     0.023     2.689     2.564
    23   1 H        0.924     0.059     2.214     2.327
    24   1 H        0.924     0.054     2.276     2.359
    25   1 H        0.925     0.075     2.027     2.227
    26   1 H        0.924     0.085     1.928     2.171
    27   1 H        0.924     0.086     1.923     2.169
    28   1 H        0.926     0.100     1.782     2.087
    29   1 H        0.926     0.101     1.778     2.085
    30   1 H        0.926     0.106     1.728     2.056
    31   1 H        0.925     0.069     2.099     2.265
    32   1 H        0.925     0.052     2.300     2.372
    33   1 H        0.925     0.045     2.377     2.411
    34   1 H        0.926     0.062     2.171     2.304
    35   1 H        0.926     0.062     2.181     2.310
    36   1 H        0.925     0.068     2.102     2.267
    37   1 H        0.924     0.048     2.351     2.398
    38   1 H        0.925     0.048     2.345     2.395
    39   1 H        0.925     0.068     2.112     2.272
    40   1 H        0.925     0.070     2.086     2.259
    41   1 H        0.925     0.060     2.194     2.317

Wiberg/Mayer (AO) data.
largest (>0.10) Wiberg bond orders for each atom

     #   Z sym  total        # sym  WBO       # sym  WBO       # sym  WBO
 ---------------------------------------------------------------------------
     1   6 C    3.994 --     2 C    1.021    21 H    0.986    20 H    0.985
                            19 H    0.985
     2   6 C    3.995 --     1 C    1.021     3 C    1.009    22 H    0.974
                            23 H    0.973
     3   6 C    3.985 --     2 C    1.009     4 C    0.982    24 H    0.975
                            25 H    0.967
     4   6 C    3.939 --     3 C    0.982     5 N    0.970    26 H    0.964
                            27 H    0.963
     5   7 N    3.713 --     9 C    1.357     6 C    1.227     4 C    0.970
     6   6 C    3.950 --     7 C    1.590     5 N    1.227    28 H    0.962
     7   6 C    3.953 --     6 C    1.590     8 N    1.226    29 H    0.963
     8   7 N    3.716 --     9 C    1.362     7 C    1.226    10 C    0.949
     9   6 C    3.948 --     8 N    1.362     5 N    1.357    30 H    0.955
    10   6 C    3.909 --    16 C    1.370    11 C    1.360     8 N    0.949
    11   6 C    3.986 --    13 C    1.426    10 C    1.360    12 C    1.027
    12   6 C    3.992 --    11 C    1.027    31 H    0.982    33 H    0.971
                            32 H    0.970
    13   6 C    3.988 --    11 C    1.426    14 C    1.397    34 H    0.964
                            16 C    0.101
    14   6 C    3.985 --    15 C    1.408    13 C    1.397    18 C    1.036
    15   6 C    3.987 --    16 C    1.414    14 C    1.408    35 H    0.963
    16   6 C    3.986 --    15 C    1.414    10 C    1.370    17 C    1.027
                            13 C    0.101
    17   6 C    3.993 --    16 C    1.027    36 H    0.982    38 H    0.972
                            37 H    0.968
    18   6 C    3.991 --    14 C    1.036    41 H    0.983    39 H    0.968
                            40 H    0.960
    19   1 H    0.999 --     1 C    0.985
    20   1 H    0.997 --     1 C    0.985
    21   1 H    0.997 --     1 C    0.986
    22   1 H    0.999 --     2 C    0.974
    23   1 H    0.997 --     2 C    0.973
    24   1 H    0.997 --     3 C    0.975
    25   1 H    0.993 --     3 C    0.967
    26   1 H    0.992 --     4 C    0.964
    27   1 H    0.992 --     4 C    0.963
    28   1 H    0.989 --     6 C    0.962
    29   1 H    0.989 --     7 C    0.963
    30   1 H    0.989 --     9 C    0.955
    31   1 H    0.995 --    12 C    0.982
    32   1 H    0.997 --    12 C    0.970
    33   1 H    0.998 --    12 C    0.971
    34   1 H    0.994 --    13 C    0.964
    35   1 H    0.994 --    15 C    0.963
    36   1 H    0.995 --    17 C    0.982
    37   1 H    0.998 --    17 C    0.968
    38   1 H    0.997 --    17 C    0.972
    39   1 H    0.995 --    18 C    0.968
    40   1 H    0.995 --    18 C    0.960
    41   1 H    0.996 --    18 C    0.983
 ---------------------------------------------------------------------------

molecular dipole:
                 x           y           z       tot (Debye)
 q only:       -4.478      -2.698      -2.781
   full:       -4.383      -2.810      -2.720      14.931

           -------------------------------------------------
          | TOTAL ENERGY              -51.500016052503 Eh   |
          | GRADIENT NORM               0.000482752775 Eh/α |
          | HOMO-LUMO GAP               3.171771095564 eV   |
           -------------------------------------------------

 * finished run on 2024/12/20 at 07:02:08.970
