   * xtb version 6.7.1 (edcfbbe) compiled by 'conda@3ef47c1a292c' on 2024-11-25

   ID    Z sym.   atoms
    1    6 C      1, 3-13, 15-25
    2    7 N      2
    3    8 O      14
    4    1 H      26-53

          program call               : xtb C0872.xyz --opt --namespace C0872 --charge +1
          :  Hamiltonian                  GFN2-xTB          :
 * total energy  :   -70.0916459 Eh     change       -0.4241087E-09 Eh
 * total energy  :   -70.1015929 Eh     change       -0.9947023E-02 Eh
 * total energy  :   -70.1043209 Eh     change       -0.2727969E-02 Eh
 * total energy  :   -70.1049334 Eh     change       -0.6125303E-03 Eh
 * total energy  :   -70.1056730 Eh     change       -0.7395863E-03 Eh
 * total energy  :   -70.1061223 Eh     change       -0.4492490E-03 Eh
 * total energy  :   -70.1066706 Eh     change       -0.5483418E-03 Eh
 * total energy  :   -70.1073011 Eh     change       -0.6305140E-03 Eh
 * total energy  :   -70.1078854 Eh     change       -0.5843115E-03 Eh
 * total energy  :   -70.1084122 Eh     change       -0.5267140E-03 Eh
 * total energy  :   -70.1220555 Eh     change       -0.9695014E-04 Eh
 * total energy  :   -70.1221458 Eh     change       -0.9025524E-04 Eh
 * total energy  :   -70.1221859 Eh     change       -0.4012097E-04 Eh
 * total energy  :   -70.1222101 Eh     change       -0.2415469E-04 Eh
 * total energy  :   -70.1222251 Eh     change       -0.1507059E-04 Eh
 * total energy  :   -70.1222374 Eh     change       -0.1224739E-04 Eh
 * total energy  :   -70.1222453 Eh     change       -0.7960424E-05 Eh
 * total energy  :   -70.1222545 Eh     change       -0.9184245E-05 Eh
 * total energy  :   -70.1222580 Eh     change       -0.3512175E-05 Eh
   *** GEOMETRY OPTIMIZATION CONVERGED AFTER 72 ITERATIONS ***

 final structure:
================
53
 xtb: 6.7.1 (edcfbbe)
C            1.21136471350049       -0.44151105581416        0.44823257607567
N            1.46596333388927        0.93606310574994        0.90310528624259
C            1.42838904941993        1.86920175340266       -0.27946983144544
C            0.12528389723227        1.86303532018261       -1.03848074782682
C           -0.87867956510532        2.77577279401784       -0.72656234801994
C           -2.06574713992851        2.78554384193680       -1.43717400271426
C           -2.26267619430500        1.88923508458209       -2.47345634287901
C           -1.26478734491349        0.98720376889548       -2.80049533792746
C           -0.07784490295318        0.97476069553373       -2.09022679522850
C            0.42488011760871        1.37187413664244        1.87693675264928
C            0.16848195659391        0.43936397521323        3.05719720942109
C           -0.97199946380316        0.97879415568315        3.93119435226381
C           -2.24440808036023        1.28393289959830        3.12761001901520
O           -2.35430510797043        0.33345409999203        2.08741906810604
C           -3.29080876889489        0.52531362039748        1.10140034342571
C           -4.27149224564573        1.53331618272673        1.13030930586077
C           -5.14469530080322        1.66391043370481        0.08596030300572
C           -5.08924474614524        0.80878379785787       -1.03074526804798
C           -4.10771768955622       -0.21708477879020       -1.05286217666366
C           -3.21709982124469       -0.33076088546999        0.02763394693037
C           -4.05216040743373       -1.08287966156088       -2.16606504793938
C           -4.92462045793700       -0.93505766001628       -3.20702726988383
C           -5.89305166513362        0.08253994311790       -3.18660550295174
C           -5.97487730686796        0.93486299992829       -2.12172953252690
C            2.80644081577193        1.00749822409092        1.50810405072797
H            0.18003224717980       -0.53453634176692        0.11281164670119
H            1.39225479433718       -1.14537593725655        1.25663627092661
H            1.87866699971181       -0.68604740895801       -0.37609064953880
H            1.63000662619240        2.87598525954807        0.09303360598747
H            2.24200243657075        1.57909720230640       -0.94787148665310
H           -0.72413186919529        3.50306222972521        0.05799648476347
H           -2.83419226980665        3.49925813909876       -1.18640293609514
H           -3.18394306952957        1.90192862499103       -3.03288841260832
H           -1.40805158316128        0.29612204053344       -3.61566720332695
H            0.70184237129077        0.28363295226275       -2.37536876731440
H            0.70860262754482        2.35982092579776        2.24704919746472
H           -0.50291299844995        1.45501213790729        1.31108504845053
H           -0.14300541755504       -0.54069184640003        2.70120663507217
H            1.05347510983166        0.32918553551070        3.68460537207983
H           -1.19309021351657        0.22288110487695        4.68379845251409
H           -0.66487923730313        1.88813377342444        4.44842310881301
H           -3.11622954466814        1.23755777327907        3.79077293205000
H           -2.19082717911639        2.29739037228425        2.70519885146047
H           -4.35266957377179        2.19458722247921        1.97840329731049
H           -5.90064849475660        2.43481190204158        0.11361671108665
H           -2.47341152127746       -1.11419158346442        0.02547519445085
H           -3.31033750342154       -1.86832272852219       -2.17628780750941
H           -4.88006561344945       -1.60327394455390       -4.05383282191136
H           -6.57445492935561        0.18088292029119       -4.01781845477722
H           -6.72042253317901        1.71620084509351       -2.09751983073986
H            2.86377050542908        0.35032498259652        2.37268317395199
H            3.56177126588334        0.69822543517561        0.78770328787802
H            3.02406089255298        2.02541162008995        1.82646608983047

          :  Hamiltonian                  GFN2-xTB          :
         :: total energy             -70.122258036285 Eh    ::
         :: gradient norm              0.000411265825 Eh/a0 ::
         :: HOMO-LUMO gap              2.764809267446 eV    ::
         :: SCC energy               -71.283934061277 Eh    ::
         :: -> dispersion             -0.062536085011 Eh    ::
         :: repulsion energy           1.161676024992 Eh    ::

    * Orbital Energies and Occupations

         #    Occupation            Energy/Eh            Energy/eV
      -------------------------------------------------------------
         1        2.0000           -0.8529736             -23.2106
       ...           ...                  ...                  ...
        53        2.0000           -0.5498133             -14.9612
        54        2.0000           -0.5487845             -14.9332
        55        2.0000           -0.5430238             -14.7764
        56        2.0000           -0.5391162             -14.6701
        57        2.0000           -0.5245401             -14.2735
        58        2.0000           -0.5243483             -14.2682
        59        2.0000           -0.5239394             -14.2571
        60        2.0000           -0.5197377             -14.1428
        61        2.0000           -0.5034591             -13.6998
        62        2.0000           -0.5010460             -13.6342
        63        2.0000           -0.4948863             -13.4665
        64        2.0000           -0.4753420             -12.9347
        65        2.0000           -0.4547495             -12.3744 (HOMO)
        66                         -0.3531446              -9.6096 (LUMO)
        67                         -0.3426361              -9.3236
        68                         -0.3406270              -9.2689
        69                         -0.3062767              -8.3342
        70                         -0.2698572              -7.3432
        71                         -0.2312861              -6.2936
        72                         -0.2239307              -6.0935
        73                         -0.2005998              -5.4586
        74                         -0.1477332              -4.0200
        75                         -0.1402863              -3.8174
        76                         -0.1365458              -3.7156
       ...                                ...                  ...
       128                          0.6219860              16.9251
      -------------------------------------------------------------
                  HL-Gap            0.1016049 Eh            2.7648 eV

     #   Z          covCN         q      C6AA      α(0)
     1   6 C        3.717    -0.091    22.365     6.756
     2   7 N        3.621     0.128    19.056     6.483
     3   6 C        3.769    -0.041    21.339     6.583
     4   6 C        2.967    -0.007    28.193     8.709
     5   6 C        2.923    -0.038    28.933     8.821
     6   6 C        2.919    -0.021    28.531     8.759
     7   6 C        2.920    -0.015    28.398     8.739
     8   6 C        2.919    -0.020    28.516     8.757
     9   6 C        2.923    -0.037    28.925     8.820
    10   6 C        3.762    -0.042    21.362     6.588
    11   6 C        3.800    -0.069    21.820     6.651
    12   6 C        3.801    -0.070    21.844     6.654
    13   6 C        3.688     0.078    19.455     6.313
    14   8 O        1.705    -0.295    18.911     5.871
    15   6 C        2.858     0.131    25.129     8.216
    16   6 C        2.914    -0.065    29.626     8.925
    17   6 C        2.920    -0.034    28.856     8.809
    18   6 C        2.987     0.007    27.866     8.659
    19   6 C        2.987     0.012    27.744     8.640
    20   6 C        2.920    -0.070    29.751     8.945
    21   6 C        2.918    -0.038    28.942     8.822
    22   6 C        2.916    -0.026    28.649     8.777
    23   6 C        2.916    -0.028    28.712     8.787
    24   6 C        2.918    -0.032    28.809     8.802
    25   6 C        3.720    -0.092    22.372     6.756
    26   1 H        0.925     0.106     1.736     2.060
    27   1 H        0.925     0.097     1.811     2.104
    28   1 H        0.925     0.092     1.856     2.130
    29   1 H        0.924     0.081     1.967     2.194
    30   1 H        0.924     0.083     1.949     2.183
    31   1 H        0.926     0.038     2.480     2.462
    32   1 H        0.926     0.055     2.259     2.350
    33   1 H        0.926     0.060     2.204     2.321
    34   1 H        0.926     0.058     2.219     2.329
    35   1 H        0.926     0.041     2.431     2.438
    36   1 H        0.924     0.076     2.023     2.224
    37   1 H        0.925     0.105     1.736     2.061
    38   1 H        0.925     0.075     2.028     2.227
    39   1 H        0.924     0.052     2.291     2.367
    40   1 H        0.925     0.071     2.076     2.253
    41   1 H        0.924     0.053     2.283     2.363
    42   1 H        0.924     0.049     2.338     2.391
    43   1 H        0.923     0.026     2.647     2.544
    44   1 H        0.926     0.037     2.488     2.467
    45   1 H        0.926     0.047     2.358     2.401
    46   1 H        0.926     0.031     2.569     2.506
    47   1 H        0.926     0.031     2.569     2.506
    48   1 H        0.926     0.042     2.426     2.436
    49   1 H        0.926     0.044     2.400     2.423
    50   1 H        0.926     0.042     2.425     2.435
    51   1 H        0.925     0.098     1.802     2.099
    52   1 H        0.925     0.094     1.841     2.122
    53   1 H        0.925     0.093     1.847     2.125

Wiberg/Mayer (AO) data.
largest (>0.10) Wiberg bond orders for each atom

     #   Z sym  total        # sym  WBO       # sym  WBO       # sym  WBO
 ---------------------------------------------------------------------------
     1   6 C    3.928 --    28 H    0.975    27 H    0.972    26 H    0.971
                             2 N    0.960
     2   7 N    3.808 --    25 C    0.964     1 C    0.960    10 C    0.926
                             3 C    0.910
     3   6 C    3.930 --     4 C    1.005    29 H    0.966    30 H    0.965
                             2 N    0.910
     4   6 C    3.978 --     9 C    1.407     5 C    1.405     3 C    1.005
                             7 C    0.109
     5   6 C    3.991 --     6 C    1.445     4 C    1.405    31 H    0.967
                             8 C    0.109
     6   6 C    3.990 --     5 C    1.445     7 C    1.437    32 H    0.969
                             9 C    0.108
     7   6 C    3.988 --     6 C    1.437     8 C    1.436    33 H    0.968
                             4 C    0.109
     8   6 C    3.990 --     9 C    1.447     7 C    1.436    34 H    0.968
                             5 C    0.109
     9   6 C    3.991 --     8 C    1.447     4 C    1.407    35 H    0.968
                             6 C    0.108
    10   6 C    3.925 --    11 C    1.007    36 H    0.968    37 H    0.951
                             2 N    0.926
    11   6 C    3.988 --    10 C    1.007    12 C    1.000    39 H    0.973
                            38 H    0.969
    12   6 C    3.991 --    11 C    1.000    13 C    0.998    41 H    0.977
                            40 H    0.975
    13   6 C    3.951 --    12 C    0.998    14 O    0.974    43 H    0.968
                            42 H    0.968
    14   8 O    2.193 --    15 C    1.030    13 C    0.974
    15   6 C    3.929 --    20 C    1.463    16 C    1.280    14 O    1.030
    16   6 C    3.988 --    17 C    1.549    15 C    1.280    44 H    0.966
    17   6 C    3.991 --    16 C    1.549    18 C    1.286    45 H    0.967
                            20 C    0.115
    18   6 C    3.990 --    17 C    1.286    24 C    1.277    19 C    1.242
    19   6 C    3.990 --    20 C    1.297    21 C    1.272    18 C    1.242
    20   6 C    3.985 --    15 C    1.463    19 C    1.297    46 H    0.966
                            17 C    0.115
    21   6 C    3.991 --    22 C    1.562    19 C    1.272    47 H    0.968
                            24 C    0.118
    22   6 C    3.992 --    21 C    1.562    23 C    1.316    48 H    0.970
    23   6 C    3.985 --    24 C    1.560    22 C    1.316    49 H    0.970
    24   6 C    3.991 --    23 C    1.560    18 C    1.277    50 H    0.968
                            21 C    0.118
    25   6 C    3.933 --    53 H    0.976    52 H    0.975    51 H    0.971
                             2 N    0.964
    26   1 H    0.989 --     1 C    0.971
    27   1 H    0.990 --     1 C    0.972
    28   1 H    0.991 --     1 C    0.975
    29   1 H    0.993 --     3 C    0.966
    30   1 H    0.992 --     3 C    0.965
    31   1 H    0.999 --     5 C    0.967
    32   1 H    0.997 --     6 C    0.969
    33   1 H    0.996 --     7 C    0.968
    34   1 H    0.996 --     8 C    0.968
    35   1 H    0.998 --     9 C    0.968
    36   1 H    0.994 --    10 C    0.968
    37   1 H    0.989 --    10 C    0.951
    38   1 H    0.994 --    11 C    0.969
    39   1 H    0.997 --    11 C    0.973
    40   1 H    0.995 --    12 C    0.975
    41   1 H    0.997 --    12 C    0.977
    42   1 H    0.997 --    13 C    0.968
    43   1 H    0.999 --    13 C    0.968
    44   1 H    0.998 --    16 C    0.966
    45   1 H    0.997 --    17 C    0.967
    46   1 H    0.999 --    20 C    0.966
    47   1 H    0.999 --    21 C    0.968
    48   1 H    0.998 --    22 C    0.970
    49   1 H    0.998 --    23 C    0.970
    50   1 H    0.998 --    24 C    0.968
    51   1 H    0.990 --    25 C    0.971
    52   1 H    0.991 --    25 C    0.975
    53   1 H    0.991 --    25 C    0.976
 ---------------------------------------------------------------------------

molecular dipole:
                 x           y           z       tot (Debye)
 q only:        1.353       2.068       1.284
   full:        1.352       2.225       1.409       7.525

           -------------------------------------------------
          | TOTAL ENERGY              -70.122258036285 Eh   |
          | GRADIENT NORM               0.000411265825 Eh/α |
          | HOMO-LUMO GAP               2.764809267446 eV   |
           -------------------------------------------------

 * finished run on 2024/12/20 at 07:02:13.329
