   * xtb version 6.7.1 (edcfbbe) compiled by 'conda@3ef47c1a292c' on 2024-11-25

   ID    Z sym.   atoms
    1    6 C      1-9, 11, 12, 14, 15
    2    7 N      10, 13
    3    1 H      16-32

          program call               : xtb C0873.xyz --opt --namespace C0873 --charge +1
          :  Hamiltonian                  GFN2-xTB          :
 * total energy  :   -41.9937273 Eh     change       -0.1069317E-08 Eh
 * total energy  :   -41.9983851 Eh     change       -0.4657736E-02 Eh
 * total energy  :   -41.9992844 Eh     change       -0.8993298E-03 Eh
 * total energy  :   -41.9994377 Eh     change       -0.1532742E-03 Eh
 * total energy  :   -41.9995300 Eh     change       -0.9235765E-04 Eh
 * total energy  :   -41.9995631 Eh     change       -0.3306917E-04 Eh
 * total energy  :   -41.9996102 Eh     change       -0.4713233E-04 Eh
 * total energy  :   -41.9996519 Eh     change       -0.4164449E-04 Eh
 * total energy  :   -41.9996834 Eh     change       -0.3151741E-04 Eh
 * total energy  :   -41.9996998 Eh     change       -0.1641672E-04 Eh
 * total energy  :   -41.9997052 Eh     change       -0.5398109E-05 Eh
 * total energy  :   -41.9997066 Eh     change       -0.1439404E-05 Eh
   *** GEOMETRY OPTIMIZATION CONVERGED AFTER 12 ITERATIONS ***

 final structure:
================
32
 xtb: 6.7.1 (edcfbbe)
C            2.16774293317137        1.83654596798723        0.04365679028421
C            1.04030440584663        0.85931074369507        0.02512134304409
C           -0.27709413692889        1.30187484563267        0.02836850061103
C           -1.34458052324474        0.41857460029321        0.02780160956820
C           -2.74976771537861        0.94098115660295        0.03812882233619
C           -1.06225743228594       -0.95027039755091        0.02674679570130
C            0.24860465281593       -1.43298718244067        0.02959004983381
C            1.28168944232961       -0.50840937352837        0.02625885927867
C            0.55382365440214       -2.89994273411418        0.02681814807051
N           -2.14373923968912       -1.87927300391098        0.02911620227068
C           -2.44493013150964       -2.75272383041345        1.02976466299266
C           -3.55941877054388       -3.43637120305141        0.64750969322259
N           -3.92090891364960       -2.97163237795967       -0.57961084314385
C           -3.04865324741136       -2.02864214985264       -0.93352140757836
C           -5.05030161068275       -3.40978738966432       -1.35618000024281
H            1.91887686612333        2.72802723930365       -0.52617742188612
H            2.36901639493124        2.14373056666989        1.07004915341219
H            3.07525657753440        1.39607461254572       -0.35937885503502
H           -0.47857622440951        2.36215510757320        0.03343496586995
H           -2.77105656182724        1.92879266538286        0.48944745313460
H           -3.12986021800558        1.03985808681559       -0.97858986007231
H           -3.42354302901438        0.29618959128012        0.59905973218344
H            2.29963612801866       -0.86685846952183        0.02222137759335
H            0.57435785542642       -3.28714833346908        1.04537116012949
H           -0.17726374026366       -3.47129279461175       -0.54174662091515
H            1.53500712402661       -3.07255830148986       -0.40617931223979
H           -1.86550282447363       -2.81543218748150        1.92747632662447
H           -4.10515846788747       -4.20334159079354        1.15782208317151
H           -3.06466608362135       -1.48029927549305       -1.85477876730327
H           -5.75206187798776       -2.58788000895392       -1.50332085956708
H           -4.72411721915731       -3.76785493227311       -2.33290811258489
H           -5.55779806665384       -4.21763964720887       -0.83426166876406

          :  Hamiltonian                  GFN2-xTB          :
         :: total energy             -41.999706631758 Eh    ::
         :: gradient norm              0.000325700083 Eh/a0 ::
         :: HOMO-LUMO gap              3.037756209086 eV    ::
         :: SCC energy               -42.715296549621 Eh    ::
         :: -> dispersion             -0.029429320373 Eh    ::
         :: repulsion energy           0.715589917863 Eh    ::

    * Orbital Energies and Occupations

         #    Occupation            Energy/Eh            Energy/eV
      -------------------------------------------------------------
         1        2.0000           -0.8870719             -24.1385
       ...           ...                  ...                  ...
        27        2.0000           -0.6052638             -16.4701
        28        2.0000           -0.5989151             -16.2973
        29        2.0000           -0.5945607             -16.1788
        30        2.0000           -0.5912023             -16.0874
        31        2.0000           -0.5904428             -16.0668
        32        2.0000           -0.5783209             -15.7369
        33        2.0000           -0.5766546             -15.6916
        34        2.0000           -0.5627330             -15.3127
        35        2.0000           -0.5570060             -15.1569
        36        2.0000           -0.5469872             -14.8843
        37        2.0000           -0.5394109             -14.6781
        38        2.0000           -0.5137149             -13.9789
        39        2.0000           -0.5122030             -13.9378 (HOMO)
        40                         -0.4005676             -10.9000 (LUMO)
        41                         -0.3642206              -9.9109
        42                         -0.3425580              -9.3215
        43                         -0.3415835              -9.2950
        44                         -0.2196534              -5.9771
        45                         -0.1712870              -4.6610
        46                         -0.1172876              -3.1916
        47                         -0.0447585              -1.2179
        48                         -0.0380343              -1.0350
        49                         -0.0289418              -0.7875
        50                         -0.0124772              -0.3395
       ...                                ...                  ...
        77                          0.5227551              14.2249
      -------------------------------------------------------------
                  HL-Gap            0.1116355 Eh            3.0378 eV

     #   Z          covCN         q      C6AA      α(0)
     1   6 C        3.759    -0.122    22.879     6.819
     2   6 C        2.962     0.035    27.220     8.558
     3   6 C        2.933    -0.048    29.194     8.861
     4   6 C        2.962     0.012    27.747     8.640
     5   6 C        3.757    -0.118    22.818     6.811
     6   6 C        2.926     0.008    27.849     8.654
     7   6 C        2.962     0.015    27.684     8.630
     8   6 C        2.933    -0.048    29.188     8.860
     9   6 C        3.758    -0.118    22.813     6.810
    10   7 N        2.875     0.073    19.964     6.636
    11   6 C        3.072    -0.003    28.025     8.680
    12   6 C        3.072    -0.009    28.173     8.703
    13   7 N        2.866     0.070    20.015     6.645
    14   6 C        3.100     0.047    26.825     8.488
    15   6 C        3.692    -0.084    22.299     6.757
    16   1 H        0.925     0.065     2.143     2.289
    17   1 H        0.925     0.073     2.053     2.240
    18   1 H        0.925     0.063     2.163     2.300
    19   1 H        0.926     0.063     2.165     2.301
    20   1 H        0.925     0.072     2.065     2.247
    21   1 H        0.925     0.057     2.235     2.338
    22   1 H        0.925     0.038     2.469     2.457
    23   1 H        0.926     0.063     2.162     2.300
    24   1 H        0.925     0.063     2.167     2.302
    25   1 H        0.925     0.039     2.459     2.452
    26   1 H        0.925     0.070     2.081     2.256
    27   1 H        0.927     0.106     1.731     2.057
    28   1 H        0.926     0.103     1.756     2.072
    29   1 H        0.926     0.110     1.697     2.037
    30   1 H        0.924     0.100     1.780     2.087
    31   1 H        0.924     0.100     1.783     2.088
    32   1 H        0.925     0.104     1.747     2.067

Wiberg/Mayer (AO) data.
largest (>0.10) Wiberg bond orders for each atom

     #   Z sym  total        # sym  WBO       # sym  WBO       # sym  WBO
 ---------------------------------------------------------------------------
     1   6 C    3.991 --     2 C    1.037    18 H    0.979    16 H    0.975
                            17 H    0.955
     2   6 C    3.984 --     8 C    1.403     3 C    1.399     1 C    1.037
     3   6 C    3.988 --     4 C    1.425     2 C    1.399    19 H    0.964
     4   6 C    3.986 --     3 C    1.425     6 C    1.355     5 C    1.027
     5   6 C    3.992 --     4 C    1.027    22 H    0.980    20 H    0.978
                            21 H    0.965
     6   6 C    3.909 --     7 C    1.359     4 C    1.355    10 N    0.961
     7   6 C    3.986 --     8 C    1.420     6 C    1.359     9 C    1.028
     8   6 C    3.988 --     7 C    1.420     2 C    1.403    23 H    0.963
     9   6 C    3.992 --     7 C    1.028    25 H    0.979    26 H    0.978
                            24 H    0.963
    10   7 N    3.722 --    14 C    1.361    11 C    1.225     6 C    0.961
    11   6 C    3.951 --    12 C    1.586    10 N    1.225    27 H    0.962
    12   6 C    3.948 --    11 C    1.586    13 N    1.229    28 H    0.961
    13   7 N    3.713 --    14 C    1.351    12 C    1.229    15 C    0.990
    14   6 C    3.946 --    10 N    1.361    13 N    1.351    29 H    0.955
    15   6 C    3.936 --    13 N    0.990    32 H    0.975    31 H    0.965
                            30 H    0.964
    16   1 H    0.995 --     1 C    0.975
    17   1 H    0.994 --     1 C    0.955
    18   1 H    0.996 --     1 C    0.979
    19   1 H    0.995 --     3 C    0.964
    20   1 H    0.994 --     5 C    0.978
    21   1 H    0.997 --     5 C    0.965
    22   1 H    0.998 --     5 C    0.980
    23   1 H    0.994 --     8 C    0.963
    24   1 H    0.996 --     9 C    0.963
    25   1 H    0.998 --     9 C    0.979
    26   1 H    0.995 --     9 C    0.978
    27   1 H    0.989 --    11 C    0.962
    28   1 H    0.989 --    12 C    0.961
    29   1 H    0.988 --    14 C    0.955
    30   1 H    0.989 --    15 C    0.964
    31   1 H    0.989 --    15 C    0.965
    32   1 H    0.989 --    15 C    0.975
 ---------------------------------------------------------------------------

molecular dipole:
                 x           y           z       tot (Debye)
 q only:       -4.725      -3.675      -0.567
   full:       -4.866      -3.748      -0.607      15.687

           -------------------------------------------------
          | TOTAL ENERGY              -41.999706631758 Eh   |
          | GRADIENT NORM               0.000325700083 Eh/α |
          | HOMO-LUMO GAP               3.037756209086 eV   |
           -------------------------------------------------

 * finished run on 2024/12/20 at 07:02:14.100
