   * xtb version 6.7.1 (edcfbbe) compiled by 'conda@3ef47c1a292c' on 2024-11-25

   ID    Z sym.   atoms
    1    6 C      1-4, 6, 7, 9, 10
    2    7 N      5, 8
    3    1 H      11-27

          program call               : xtb C0888.xyz --opt --namespace C0888 --charge +1
          :  Hamiltonian                  GFN2-xTB          :
 * total energy  :   -31.2107062 Eh     change       -0.1450537E-09 Eh
 * total energy  :   -31.2155500 Eh     change       -0.4843748E-02 Eh
 * total energy  :   -31.2167346 Eh     change       -0.1184615E-02 Eh
 * total energy  :   -31.2170626 Eh     change       -0.3280530E-03 Eh
 * total energy  :   -31.2172090 Eh     change       -0.1463620E-03 Eh
 * total energy  :   -31.2172754 Eh     change       -0.6641136E-04 Eh
 * total energy  :   -31.2173657 Eh     change       -0.9029491E-04 Eh
 * total energy  :   -31.2174827 Eh     change       -0.1170108E-03 Eh
 * total energy  :   -31.2176026 Eh     change       -0.1199061E-03 Eh
 * total energy  :   -31.2177318 Eh     change       -0.1291437E-03 Eh
 * total energy  :   -31.2182638 Eh     change       -0.1012095E-04 Eh
 * total energy  :   -31.2182772 Eh     change       -0.1344019E-04 Eh
 * total energy  :   -31.2182863 Eh     change       -0.9078399E-05 Eh
 * total energy  :   -31.2182975 Eh     change       -0.1123633E-04 Eh
 * total energy  :   -31.2183078 Eh     change       -0.1024488E-04 Eh
 * total energy  :   -31.2183190 Eh     change       -0.1119215E-04 Eh
 * total energy  :   -31.2183285 Eh     change       -0.9520929E-05 Eh
 * total energy  :   -31.2183337 Eh     change       -0.5194330E-05 Eh
 * total energy  :   -31.2183347 Eh     change       -0.1001386E-05 Eh
   *** GEOMETRY OPTIMIZATION CONVERGED AFTER 28 ITERATIONS ***

 final structure:
================
27
 xtb: 6.7.1 (edcfbbe)
C            0.98985229562039        0.15066151532716        0.01833226387608
C           -0.12148821350417       -0.79552571346738        0.45719331121919
C            0.14858058930457       -1.47560755458980        1.80360436631505
C            0.33188329413329       -0.54132302666839        2.99738492565687
N           -0.93846629287566       -0.01401753852789        3.59474677000749
C           -1.81202221155828        0.70569428491829        2.65166460166033
C           -3.03784787625484        0.17434985241407        2.69175990884379
N           -3.14354689735349       -0.81605750632679        3.61347224987297
C           -1.83567108317524       -1.05495724018029        4.19023438698293
C           -4.13368100500388       -1.85920572762394        3.61938185302055
H            1.02567675084206        1.05253513749615        0.62523540543147
H            0.82533981629357        0.45673585978965       -1.01057110295677
H            1.95706621666711       -0.34261171395443        0.07215826713786
H           -1.07257717311195       -0.26294664442634        0.48094264337222
H           -0.21316780787267       -1.58861437940943       -0.28606327330518
H           -0.64524228299902       -2.19811874571159        2.00039266853597
H            1.07743204127843       -2.04186950938738        1.71250586953363
H            0.86163623737791       -1.06403100493720        3.79710549123746
H            0.92974735396476        0.31902450384783        2.69349847185283
H           -0.64759939584984        0.63788405774486        4.33028382374496
H           -1.42869853815526        1.55005433420634        2.12202613266753
H           -3.88961620760535        0.47479651433965        2.11225427494487
H           -1.87103785512942       -0.95808399097308        5.28155603845122
H           -1.46784372665991       -2.05991094922119        3.94093310899665
H           -4.32178862457265       -2.17702793053510        4.64483878930438
H           -5.05854505827980       -1.47050013553437        3.20141382049840
H           -3.81617434551878       -2.72692674860919        3.03193493309811

          :  Hamiltonian                  GFN2-xTB          :
         :: total energy             -31.218334703303 Eh    ::
         :: gradient norm              0.000834152841 Eh/a0 ::
         :: HOMO-LUMO gap              4.145272673321 eV    ::
         :: SCC energy               -31.667900744809 Eh    ::
         :: -> dispersion             -0.019542443033 Eh    ::
         :: repulsion energy           0.449566041506 Eh    ::

    * Orbital Energies and Occupations

         #    Occupation            Energy/Eh            Energy/eV
      -------------------------------------------------------------
         1        2.0000           -0.8766024             -23.8536
       ...           ...                  ...                  ...
        17        2.0000           -0.6531442             -17.7730
        18        2.0000           -0.6455148             -17.5654
        19        2.0000           -0.6436204             -17.5138
        20        2.0000           -0.6396271             -17.4051
        21        2.0000           -0.6253357             -17.0162
        22        2.0000           -0.6145737             -16.7234
        23        2.0000           -0.6085042             -16.5582
        24        2.0000           -0.6054796             -16.4759
        25        2.0000           -0.5943481             -16.1730
        26        2.0000           -0.5691223             -15.4866
        27        2.0000           -0.5578204             -15.1791
        28        2.0000           -0.5514428             -15.0055
        29        2.0000           -0.5133658             -13.9694 (HOMO)
        30                         -0.3610299              -9.8241 (LUMO)
        31                         -0.2426782              -6.6036
        32                         -0.1703493              -4.6354
        33                         -0.1680294              -4.5723
        34                         -0.1304495              -3.5497
        35                         -0.1198904              -3.2624
        36                         -0.0702009              -1.9103
        37                         -0.0666119              -1.8126
        38                         -0.0479062              -1.3036
        39                         -0.0293568              -0.7988
        40                          0.0007384               0.0201
       ...                                ...                  ...
        57                          0.4758045              12.9473
      -------------------------------------------------------------
                  HL-Gap            0.1523360 Eh            4.1453 eV

     #   Z          covCN         q      C6AA      α(0)
     1   6 C        3.751    -0.115    22.761     6.804
     2   6 C        3.799    -0.067    21.781     6.645
     3   6 C        3.800    -0.071    21.863     6.657
     4   6 C        3.734    -0.033    21.260     6.581
     5   7 N        3.606     0.044    20.465     6.719
     6   6 C        2.903    -0.067    29.656     8.929
     7   6 C        2.915     0.025    27.444     8.591
     8   7 N        2.781    -0.059    22.374     7.025
     9   6 C        3.768     0.032    20.073     6.385
    10   6 C        3.690    -0.068    21.991     6.711
    11   1 H        0.925     0.032     2.559     2.501
    12   1 H        0.925     0.059     2.213     2.326
    13   1 H        0.925     0.050     2.322     2.383
    14   1 H        0.924     0.043     2.412     2.429
    15   1 H        0.924     0.059     2.210     2.325
    16   1 H        0.924     0.050     2.324     2.384
    17   1 H        0.924     0.077     2.010     2.217
    18   1 H        0.924     0.078     2.002     2.213
    19   1 H        0.924     0.099     1.793     2.094
    20   1 H        0.859     0.221     1.006     1.571
    21   1 H        0.927     0.090     1.880     2.144
    22   1 H        0.926     0.100     1.781     2.087
    23   1 H        0.924     0.091     1.867     2.137
    24   1 H        0.923     0.097     1.814     2.106
    25   1 H        0.925     0.077     2.007     2.216
    26   1 H        0.925     0.092     1.864     2.135
    27   1 H        0.924     0.064     2.154     2.295

Wiberg/Mayer (AO) data.
largest (>0.10) Wiberg bond orders for each atom

     #   Z sym  total        # sym  WBO       # sym  WBO       # sym  WBO
 ---------------------------------------------------------------------------
     1   6 C    3.993 --     2 C    1.021    13 H    0.986    11 H    0.984
                            12 H    0.984
     2   6 C    3.992 --     1 C    1.021     3 C    1.005    15 H    0.974
                            14 H    0.972
     3   6 C    3.984 --     4 C    1.009     2 C    1.005    16 H    0.967
                            17 H    0.964
     4   6 C    3.919 --     3 C    1.009    18 H    0.970    19 H    0.961
                             5 N    0.916
     5   7 N    3.767 --     9 C    0.947     6 C    0.920    20 H    0.919
                             4 C    0.916
     6   6 C    3.843 --     7 C    1.722    21 H    0.963     5 N    0.920
                             8 N    0.168
     7   6 C    3.970 --     6 C    1.722     8 N    1.211    22 H    0.955
     8   7 N    3.436 --     7 C    1.211     9 C    1.003    10 C    0.996
                             6 C    0.168
     9   6 C    3.939 --     8 N    1.003    23 H    0.964    24 H    0.952
                             5 N    0.947
    10   6 C    3.954 --     8 N    0.996    25 H    0.977    26 H    0.975
                            27 H    0.971
    11   1 H    0.999 --     1 C    0.984
    12   1 H    0.996 --     1 C    0.984
    13   1 H    0.997 --     1 C    0.986
    14   1 H    0.998 --     2 C    0.972
    15   1 H    0.997 --     2 C    0.974
    16   1 H    0.998 --     3 C    0.967
    17   1 H    0.994 --     3 C    0.964
    18   1 H    0.994 --     4 C    0.970
    19   1 H    0.990 --     4 C    0.961
    20   1 H    0.951 --     5 N    0.919
    21   1 H    0.992 --     6 C    0.963
    22   1 H    0.990 --     7 C    0.955
    23   1 H    0.992 --     9 C    0.964
    24   1 H    0.991 --     9 C    0.952
    25   1 H    0.994 --    10 C    0.977
    26   1 H    0.991 --    10 C    0.975
    27   1 H    0.996 --    10 C    0.971
 ---------------------------------------------------------------------------

molecular dipole:
                 x           y           z       tot (Debye)
 q only:       -2.654      -1.058       6.228
   full:       -2.509      -0.996       6.444      17.758

           -------------------------------------------------
          | TOTAL ENERGY              -31.218334703303 Eh   |
          | GRADIENT NORM               0.000834152841 Eh/α |
          | HOMO-LUMO GAP               4.145272673321 eV   |
           -------------------------------------------------

 * finished run on 2024/12/20 at 07:02:38.070
