   * xtb version 6.7.1 (edcfbbe) compiled by 'conda@3ef47c1a292c' on 2024-11-25

   ID    Z sym.   atoms
    1    6 C      1-6, 8-13, 15, 16
    2    7 N      7, 14
    3    1 H      17-41

          program call               : xtb C0880.xyz --opt --namespace C0880 --charge +1
          :  Hamiltonian                  GFN2-xTB          :
 * total energy  :   -48.2094820 Eh     change       -0.3352767E-09 Eh
 * total energy  :   -48.2158278 Eh     change       -0.6345779E-02 Eh
 * total energy  :   -48.2177467 Eh     change       -0.1918963E-02 Eh
 * total energy  :   -48.2181777 Eh     change       -0.4309637E-03 Eh
 * total energy  :   -48.2186293 Eh     change       -0.4516231E-03 Eh
 * total energy  :   -48.2188235 Eh     change       -0.1941857E-03 Eh
 * total energy  :   -48.2190134 Eh     change       -0.1899330E-03 Eh
 * total energy  :   -48.2191396 Eh     change       -0.1262079E-03 Eh
 * total energy  :   -48.2192958 Eh     change       -0.1561443E-03 Eh
 * total energy  :   -48.2194556 Eh     change       -0.1597958E-03 Eh
 * total energy  :   -48.2203209 Eh     change       -0.1864972E-04 Eh
 * total energy  :   -48.2203378 Eh     change       -0.1691121E-04 Eh
 * total energy  :   -48.2203519 Eh     change       -0.1414922E-04 Eh
 * total energy  :   -48.2203643 Eh     change       -0.1237634E-04 Eh
 * total energy  :   -48.2203760 Eh     change       -0.1170386E-04 Eh
 * total energy  :   -48.2203872 Eh     change       -0.1119406E-04 Eh
 * total energy  :   -48.2203968 Eh     change       -0.9615450E-05 Eh
 * total energy  :   -48.2204039 Eh     change       -0.7123888E-05 Eh
 * total energy  :   -48.2204088 Eh     change       -0.4891841E-05 Eh
   *** GEOMETRY OPTIMIZATION CONVERGED AFTER 40 ITERATIONS ***

 final structure:
================
41
 xtb: 6.7.1 (edcfbbe)
C            1.21985820668338        0.52485930857003        0.06212805507609
C            0.46534785756488        1.21604200615657       -1.06699346846560
C            0.91484959242314        0.76870486374264       -2.45961599474770
C            0.76122701727204       -0.72901775376042       -2.73943821595965
C           -0.65847974494874       -1.27475803202032       -2.58350907258110
C           -1.65729331682219       -0.71152734700551       -3.60133450375369
N           -1.33350852785402       -1.13059775429983       -4.95204665717335
C           -0.64206372354895       -0.33885884665810       -5.78518789619920
C           -0.31086205313556       -0.74493571178818       -7.04293688955777
C           -0.70159590619321       -2.01521179216615       -7.54759320512821
C           -1.35083890204941       -2.87539444650725       -6.60155405744589
C           -1.63734085497495       -2.37870559850703       -5.35820728175330
C           -1.64634849443898       -4.32707712673761       -6.83951471474928
N           -0.42490201721253       -2.34556196065378       -8.81452576483037
C           -1.19103095601478       -3.28116676169839       -9.60914606733667
C            0.54538365602696       -1.59740081442834       -9.58650140130831
H            0.98436063668125       -0.53551671605938        0.10949871625819
H            0.95052492003970        0.97038103926619        1.01604181725897
H            2.29303727440526        0.63555609728845       -0.07375748666142
H           -0.60752756572403        1.05246093247407       -0.94487200520048
H            0.63449907858488        2.29222444015372       -0.99444177907173
H            0.36577083461925        1.35143939416702       -3.20393911003420
H            1.97126880806137        1.01792274296158       -2.57793476505271
H            1.12452396861272       -0.93720391732378       -3.75053294823347
H            1.40579040872857       -1.27774791634932       -2.05292368325925
H           -0.63066817639416       -2.36266613247715       -2.67812596737053
H           -1.03177912749970       -1.04216323968625       -1.58730916286675
H           -2.66257247660679       -1.06532850228336       -3.36135119622107
H           -1.65622344470117        0.37798962022987       -3.56347022843251
H           -0.37944919579385        0.64500678786282       -5.42957149594048
H            0.21854564473491       -0.05142737593968       -7.67160982438805
H           -2.12651582304306       -3.00681304435620       -4.62867109761934
H           -2.62808643995964       -4.47645764385917       -7.28588551082461
H           -0.89627159464592       -4.78023742870981       -7.47890279335282
H           -1.64384036766177       -4.85667206923013       -5.88989343997948
H           -2.14053025675142       -3.51146945235998       -9.14052726226703
H           -1.40169212897020       -2.81749683581263      -10.57441137237144
H           -0.63415640825938       -4.20238002671211       -9.79195247372394
H            0.10876873152334       -0.69768136043825      -10.02846780112925
H            1.40019051469295       -1.32147892956008       -8.97175829566901
H            0.90415035254789       -2.23448269547925      -10.39284369793804

          :  Hamiltonian                  GFN2-xTB          :
         :: total energy             -48.220408822709 Eh    ::
         :: gradient norm              0.000191496665 Eh/a0 ::
         :: HOMO-LUMO gap              2.862665298847 eV    ::
         :: SCC energy               -48.972308981791 Eh    ::
         :: -> dispersion             -0.034518201480 Eh    ::
         :: repulsion energy           0.751900159082 Eh    ::

    * Orbital Energies and Occupations

         #    Occupation            Energy/Eh            Energy/eV
      -------------------------------------------------------------
         1        2.0000           -0.8370423             -22.7771
       ...           ...                  ...                  ...
        33        2.0000           -0.5913802             -16.0923
        34        2.0000           -0.5876449             -15.9906
        35        2.0000           -0.5810311             -15.8107
        36        2.0000           -0.5784817             -15.7413
        37        2.0000           -0.5737342             -15.6121
        38        2.0000           -0.5653263             -15.3833
        39        2.0000           -0.5559317             -15.1277
        40        2.0000           -0.5486702             -14.9301
        41        2.0000           -0.5416994             -14.7404
        42        2.0000           -0.5211033             -14.1799
        43        2.0000           -0.5145331             -14.0012
        44        2.0000           -0.5102401             -13.8843
        45        2.0000           -0.5088085             -13.8454 (HOMO)
        46                         -0.4036075             -10.9827 (LUMO)
        47                         -0.3837944             -10.4436
        48                         -0.2706677              -7.3652
        49                         -0.1410639              -3.8385
        50                         -0.1381568              -3.7594
        51                         -0.0605536              -1.6477
        52                         -0.0563169              -1.5325
        53                         -0.0429021              -1.1674
        54                         -0.0271866              -0.7398
        55                         -0.0203106              -0.5527
        56                         -0.0158334              -0.4308
       ...                                ...                  ...
        89                          0.4786170              13.0238
      -------------------------------------------------------------
                  HL-Gap            0.1052010 Eh            2.8627 eV

     #   Z          covCN         q      C6AA      α(0)
     1   6 C        3.751    -0.108    22.625     6.783
     2   6 C        3.799    -0.056    21.589     6.616
     3   6 C        3.800    -0.061    21.673     6.628
     4   6 C        3.800    -0.064    21.725     6.636
     5   6 C        3.801    -0.068    21.805     6.648
     6   6 C        3.754    -0.026    21.098     6.550
     7   7 N        2.747     0.060    20.188     6.673
     8   6 C        2.886     0.024    27.470     8.593
     9   6 C        2.919    -0.063    29.573     8.918
    10   6 C        2.914     0.081    26.189     8.392
    11   6 C        2.960     0.006    27.886     8.662
    12   6 C        2.901     0.010    27.793     8.644
    13   6 C        3.761    -0.127    22.993     6.836
    14   7 N        2.735    -0.016    21.557     6.896
    15   6 C        3.701    -0.073    22.059     6.716
    16   6 C        3.706    -0.073    22.045     6.712
    17   1 H        0.925     0.035     2.520     2.482
    18   1 H        0.925     0.044     2.394     2.420
    19   1 H        0.925     0.042     2.426     2.436
    20   1 H        0.924     0.029     2.603     2.523
    21   1 H        0.924     0.040     2.443     2.444
    22   1 H        0.924     0.019     2.747     2.592
    23   1 H        0.924     0.044     2.390     2.418
    24   1 H        0.924     0.023     2.685     2.562
    25   1 H        0.925     0.058     2.217     2.328
    26   1 H        0.924     0.046     2.377     2.411
    27   1 H        0.925     0.074     2.045     2.236
    28   1 H        0.924     0.075     2.033     2.230
    29   1 H        0.925     0.083     1.949     2.183
    30   1 H        0.926     0.089     1.890     2.150
    31   1 H        0.926     0.082     1.956     2.187
    32   1 H        0.926     0.086     1.918     2.166
    33   1 H        0.925     0.074     2.041     2.234
    34   1 H        0.925     0.076     2.020     2.223
    35   1 H        0.925     0.070     2.084     2.257
    36   1 H        0.925     0.080     1.984     2.203
    37   1 H        0.924     0.081     1.971     2.196
    38   1 H        0.924     0.074     2.040     2.234
    39   1 H        0.924     0.071     2.079     2.255
    40   1 H        0.925     0.074     2.047     2.238
    41   1 H        0.925     0.085     1.924     2.169

Wiberg/Mayer (AO) data.
largest (>0.10) Wiberg bond orders for each atom

     #   Z sym  total        # sym  WBO       # sym  WBO       # sym  WBO
 ---------------------------------------------------------------------------
     1   6 C    3.995 --     2 C    1.021    19 H    0.987    18 H    0.986
                            17 H    0.986
     2   6 C    3.997 --     1 C    1.021     3 C    1.007    21 H    0.977
                            20 H    0.976
     3   6 C    3.996 --     2 C    1.007     4 C    1.007    23 H    0.976
                            22 H    0.974
     4   6 C    3.994 --     5 C    1.009     3 C    1.007    24 H    0.975
                            25 H    0.971
     5   6 C    3.982 --     4 C    1.009     6 C    0.985    26 H    0.974
                            27 H    0.964
     6   6 C    3.944 --     5 C    0.985     7 N    0.968    28 H    0.965
                            29 H    0.964
     7   7 N    3.705 --     8 C    1.273    12 C    1.252     6 C    0.968
     8   6 C    3.963 --     9 C    1.550     7 N    1.273    30 H    0.955
     9   6 C    3.984 --     8 C    1.550    10 C    1.251    31 H    0.958
    10   6 C    3.976 --    14 N    1.326     9 C    1.251    11 C    1.213
    11   6 C    3.986 --    12 C    1.537    10 C    1.213    13 C    1.028
    12   6 C    3.963 --    11 C    1.537     7 N    1.252    32 H    0.956
    13   6 C    3.987 --    11 C    1.028    35 H    0.975    34 H    0.973
                            33 H    0.958
    14   7 N    3.563 --    10 C    1.326    16 C    0.997    15 C    0.994
    15   6 C    3.956 --    14 N    0.994    36 H    0.974    38 H    0.969
                            37 H    0.969
    16   6 C    3.959 --    14 N    0.997    40 H    0.975    41 H    0.974
                            39 H    0.968
    17   1 H    0.999 --     1 C    0.986
    18   1 H    0.998 --     1 C    0.986
    19   1 H    0.998 --     1 C    0.987
    20   1 H    0.999 --     2 C    0.976
    21   1 H    0.998 --     2 C    0.977
    22   1 H    1.000 --     3 C    0.974
    23   1 H    0.998 --     3 C    0.976
    24   1 H    0.999 --     4 C    0.975
    25   1 H    0.996 --     4 C    0.971
    26   1 H    0.998 --     5 C    0.974
    27   1 H    0.993 --     5 C    0.964
    28   1 H    0.993 --     6 C    0.965
    29   1 H    0.992 --     6 C    0.964
    30   1 H    0.991 --     8 C    0.955
    31   1 H    0.993 --     9 C    0.958
    32   1 H    0.992 --    12 C    0.956
    33   1 H    0.994 --    13 C    0.958
    34   1 H    0.994 --    13 C    0.973
    35   1 H    0.994 --    13 C    0.975
    36   1 H    0.994 --    15 C    0.974
    37   1 H    0.990 --    15 C    0.969
    38   1 H    0.990 --    15 C    0.969
    39   1 H    0.991 --    16 C    0.968
    40   1 H    0.994 --    16 C    0.975
    41   1 H    0.991 --    16 C    0.974
 ---------------------------------------------------------------------------

molecular dipole:
                 x           y           z       tot (Debye)
 q only:       -1.599      -3.388     -12.152
   full:       -1.669      -3.322     -12.175      32.357

           -------------------------------------------------
          | TOTAL ENERGY              -48.220408822709 Eh   |
          | GRADIENT NORM               0.000191496665 Eh/α |
          | HOMO-LUMO GAP               2.862665298847 eV   |
           -------------------------------------------------

 * finished run on 2024/12/20 at 07:02:27.857
