   * xtb version 6.7.1 (edcfbbe) compiled by 'conda@3ef47c1a292c' on 2024-11-25

   ID    Z sym.   atoms
    1    6 C      1-3, 5-13
    2    7 N      4
    3    1 H      14-31

          program call               : xtb C0881.xyz --opt --namespace C0881 --charge +1
          :  Hamiltonian                  GFN2-xTB          :
 * total energy  :   -37.3440803 Eh     change       -0.3510152E-09 Eh
 * total energy  :   -37.3505047 Eh     change       -0.6424381E-02 Eh
 * total energy  :   -37.3521113 Eh     change       -0.1606622E-02 Eh
 * total energy  :   -37.3523181 Eh     change       -0.2067474E-03 Eh
 * total energy  :   -37.3524548 Eh     change       -0.1367675E-03 Eh
 * total energy  :   -37.3525186 Eh     change       -0.6378986E-04 Eh
 * total energy  :   -37.3525864 Eh     change       -0.6776990E-04 Eh
 * total energy  :   -37.3526450 Eh     change       -0.5859921E-04 Eh
 * total energy  :   -37.3526687 Eh     change       -0.2369645E-04 Eh
 * total energy  :   -37.3526851 Eh     change       -0.1640049E-04 Eh
 * total energy  :   -37.3526992 Eh     change       -0.1414584E-04 Eh
 * total energy  :   -37.3527191 Eh     change       -0.1983366E-04 Eh
 * total energy  :   -37.3527417 Eh     change       -0.2260156E-04 Eh
 * total energy  :   -37.3527586 Eh     change       -0.1689467E-04 Eh
 * total energy  :   -37.3527737 Eh     change       -0.1510774E-04 Eh
 * total energy  :   -37.3527855 Eh     change       -0.1183103E-04 Eh
 * total energy  :   -37.3527925 Eh     change       -0.6962008E-05 Eh
 * total energy  :   -37.3527936 Eh     change       -0.1111536E-05 Eh
   *** GEOMETRY OPTIMIZATION CONVERGED AFTER 18 ITERATIONS ***

 final structure:
================
31
 xtb: 6.7.1 (edcfbbe)
C            0.76701798741081       -0.05571978785064        0.55057268851822
C            0.25198203503279        0.43935181179689       -0.56001506976329
C           -1.22342432062551        0.60972029862922       -0.77424265739991
N           -1.65040771952609        2.02894633314920       -0.98316320939505
C           -1.14334327869079        2.56638236546237       -2.29317145133907
C           -1.67534107981909        1.84562862880544       -3.50505725072720
C           -2.82984908408480        2.29867535193181       -4.13766840018011
C           -3.31730288002019        1.64998647592199       -5.25820522145987
C           -2.65594243368749        0.54226170926868       -5.76227911496333
C           -1.49604134487963        0.09596122733872       -5.15173616821031
C           -1.00531907643314        0.74544475234389       -4.03221611911326
C           -3.12215137964135        2.08394363931311       -0.96019897523590
C           -1.12299590169939        2.86518199479139        0.10912258889789
H            0.15512206356766       -0.35003779724239        1.38804205662821
H            1.82604525077420       -0.20559440897831        0.66232210041938
H            0.89854796663385        0.69933851854880       -1.38691446114955
H           -1.54014313054339        0.04106272965746       -1.65317054122150
H           -1.75542246356400        0.22684464242341        0.09911667037812
H           -1.43234618940874        3.61856741167645       -2.34123984586779
H           -0.05419238540372        2.51118512469530       -2.27307807800120
H           -3.34219426853840        3.17493529113987       -3.76769170469416
H           -4.20969711772385        2.01547462566205       -5.74124706637768
H           -3.03520658951187        0.03771838119638       -6.63649372020107
H           -0.96542948653153       -0.75405638388442       -5.55086163712398
H           -0.08350280179539        0.40166791854819       -3.58614872720688
H           -3.49492865112107        1.75023721474881        0.00650525062815
H           -3.46000871847745        3.10482699079048       -1.12895719774622
H           -3.53366519818261        1.44424984701243       -1.73900666542648
H           -1.46114078971997        2.47897860051447        1.06913492437253
H           -0.03470824760627        2.85657344674081        0.09781827848905
H           -1.47137076618342        3.89063304584626        0.00085872447405

          :  Hamiltonian                  GFN2-xTB          :
         :: total energy             -37.352793565360 Eh    ::
         :: gradient norm              0.000895103074 Eh/a0 ::
         :: HOMO-LUMO gap              4.535786138971 eV    ::
         :: SCC energy               -37.992534815310 Eh    ::
         :: -> dispersion             -0.027276376322 Eh    ::
         :: repulsion energy           0.639741249950 Eh    ::

    * Orbital Energies and Occupations

         #    Occupation            Energy/Eh            Energy/eV
      -------------------------------------------------------------
         1        2.0000           -0.8608404             -23.4247
       ...           ...                  ...                  ...
        23        2.0000           -0.6334631             -17.2374
        24        2.0000           -0.6236947             -16.9716
        25        2.0000           -0.6099382             -16.5973
        26        2.0000           -0.6069351             -16.5155
        27        2.0000           -0.6028268             -16.4038
        28        2.0000           -0.6012194             -16.3600
        29        2.0000           -0.5999121             -16.3244
        30        2.0000           -0.5783600             -15.7380
        31        2.0000           -0.5600360             -15.2394
        32        2.0000           -0.5488354             -14.9346
        33        2.0000           -0.5439876             -14.8027
        34        2.0000           -0.5304213             -14.4335
        35        2.0000           -0.5295231             -14.4091 (HOMO)
        36                         -0.3628361              -9.8733 (LUMO)
        37                         -0.3570377              -9.7155
        38                         -0.3477904              -9.4639
        39                         -0.2350298              -6.3955
        40                         -0.2016554              -5.4873
        41                         -0.1493777              -4.0648
        42                         -0.1418103              -3.8589
        43                         -0.1361790              -3.7056
        44                         -0.0519682              -1.4141
        45                         -0.0470635              -1.2807
        46                         -0.0360173              -0.9801
       ...                                ...                  ...
        70                          0.5376052              14.6290
      -------------------------------------------------------------
                  HL-Gap            0.1666871 Eh            4.5358 eV

     #   Z          covCN         q      C6AA      α(0)
     1   6 C        2.838    -0.077    29.923     8.964
     2   6 C        2.884    -0.043    29.067     8.839
     3   6 C        3.766    -0.038    21.300     6.578
     4   7 N        3.621     0.129    19.039     6.481
     5   6 C        3.763    -0.040    21.337     6.584
     6   6 C        2.967    -0.007    28.198     8.710
     7   6 C        2.923    -0.039    28.966     8.826
     8   6 C        2.918    -0.022    28.552     8.762
     9   6 C        2.920    -0.018    28.455     8.748
    10   6 C        2.919    -0.022    28.564     8.764
    11   6 C        2.923    -0.039    28.959     8.825
    12   6 C        3.722    -0.092    22.370     6.755
    13   6 C        3.722    -0.092    22.371     6.755
    14   1 H        0.926     0.067     2.120     2.277
    15   1 H        0.926     0.081     1.968     2.194
    16   1 H        0.925     0.058     2.228     2.334
    17   1 H        0.924     0.094     1.841     2.122
    18   1 H        0.924     0.087     1.908     2.160
    19   1 H        0.924     0.083     1.952     2.185
    20   1 H        0.924     0.087     1.908     2.160
    21   1 H        0.926     0.041     2.439     2.442
    22   1 H        0.926     0.059     2.208     2.324
    23   1 H        0.926     0.062     2.171     2.304
    24   1 H        0.926     0.059     2.215     2.327
    25   1 H        0.926     0.042     2.426     2.436
    26   1 H        0.925     0.094     1.841     2.122
    27   1 H        0.925     0.097     1.815     2.107
    28   1 H        0.925     0.100     1.785     2.089
    29   1 H        0.925     0.097     1.812     2.105
    30   1 H        0.925     0.098     1.799     2.098
    31   1 H        0.925     0.096     1.825     2.113

Wiberg/Mayer (AO) data.
largest (>0.10) Wiberg bond orders for each atom

     #   Z sym  total        # sym  WBO       # sym  WBO       # sym  WBO
 ---------------------------------------------------------------------------
     1   6 C    3.982 --     2 C    1.979    14 H    0.972    15 H    0.972
     2   6 C    3.983 --     1 C    1.979     3 C    1.018    16 H    0.958
     3   6 C    3.932 --     2 C    1.018    18 H    0.964    17 H    0.951
                             4 N    0.919
     4   7 N    3.809 --    12 C    0.962    13 C    0.961     3 C    0.919
                             5 C    0.910
     5   6 C    3.928 --     6 C    1.005    19 H    0.965    20 H    0.962
                             4 N    0.910
     6   6 C    3.978 --    11 C    1.408     7 C    1.406     5 C    1.005
                             9 C    0.109
     7   6 C    3.991 --     8 C    1.447     6 C    1.406    21 H    0.968
                            10 C    0.109
     8   6 C    3.990 --     7 C    1.447     9 C    1.436    22 H    0.969
                            11 C    0.109
     9   6 C    3.988 --    10 C    1.439     8 C    1.436    23 H    0.969
                             6 C    0.109
    10   6 C    3.990 --    11 C    1.443     9 C    1.439    24 H    0.969
                             7 C    0.109
    11   6 C    3.991 --    10 C    1.443     6 C    1.408    25 H    0.966
                             8 C    0.109
    12   6 C    3.930 --    26 H    0.975    27 H    0.974    28 H    0.972
                             4 N    0.962
    13   6 C    3.930 --    31 H    0.975    29 H    0.974    30 H    0.972
                             4 N    0.961
    14   1 H    0.995 --     1 C    0.972
    15   1 H    0.993 --     1 C    0.972
    16   1 H    0.997 --     2 C    0.958
    17   1 H    0.991 --     3 C    0.951
    18   1 H    0.992 --     3 C    0.964
    19   1 H    0.993 --     5 C    0.965
    20   1 H    0.992 --     5 C    0.962
    21   1 H    0.998 --     7 C    0.968
    22   1 H    0.996 --     8 C    0.969
    23   1 H    0.996 --     9 C    0.969
    24   1 H    0.996 --    10 C    0.969
    25   1 H    0.998 --    11 C    0.966
    26   1 H    0.991 --    12 C    0.975
    27   1 H    0.990 --    12 C    0.974
    28   1 H    0.990 --    12 C    0.972
    29   1 H    0.990 --    13 C    0.974
    30   1 H    0.990 --    13 C    0.972
    31   1 H    0.991 --    13 C    0.975
 ---------------------------------------------------------------------------

molecular dipole:
                 x           y           z       tot (Debye)
 q only:       -3.087       3.315      -2.443
   full:       -3.106       3.372      -2.424      13.180

           -------------------------------------------------
          | TOTAL ENERGY              -37.352793565360 Eh   |
          | GRADIENT NORM               0.000895103074 Eh/α |
          | HOMO-LUMO GAP               4.535786138971 eV   |
           -------------------------------------------------

 * finished run on 2024/12/20 at 07:02:28.639
