   * xtb version 6.7.1 (edcfbbe) compiled by 'conda@3ef47c1a292c' on 2024-11-25

   ID    Z sym.   atoms
    1    6 C      1, 2, 4, 5, 7, 9-18
    2    8 O      3
    3    7 N      6, 8
    4    1 H      19-39

          program call               : xtb C0882.xyz --opt --namespace C0882 --charge +1
          :  Hamiltonian                  GFN2-xTB          :
 * total energy  :   -52.3538621 Eh     change       -0.4720278E-09 Eh
 * total energy  :   -52.3592558 Eh     change       -0.5393739E-02 Eh
 * total energy  :   -52.3601013 Eh     change       -0.8454141E-03 Eh
 * total energy  :   -52.3602365 Eh     change       -0.1352772E-03 Eh
 * total energy  :   -52.3603543 Eh     change       -0.1177555E-03 Eh
 * total energy  :   -52.3604129 Eh     change       -0.5861198E-04 Eh
 * total energy  :   -52.3604956 Eh     change       -0.8273196E-04 Eh
 * total energy  :   -52.3605899 Eh     change       -0.9426797E-04 Eh
 * total energy  :   -52.3607009 Eh     change       -0.1110285E-03 Eh
 * total energy  :   -52.3608362 Eh     change       -0.1352204E-03 Eh
 * total energy  :   -52.3682468 Eh     change       -0.1884730E-04 Eh
 * total energy  :   -52.3682625 Eh     change       -0.1576725E-04 Eh
 * total energy  :   -52.3682796 Eh     change       -0.1711311E-04 Eh
 * total energy  :   -52.3683005 Eh     change       -0.2082119E-04 Eh
 * total energy  :   -52.3683123 Eh     change       -0.1179105E-04 Eh
 * total energy  :   -52.3683275 Eh     change       -0.1522275E-04 Eh
 * total energy  :   -52.3683326 Eh     change       -0.5123192E-05 Eh
 * total energy  :   -52.3683404 Eh     change       -0.7791451E-05 Eh
 * total energy  :   -52.3683431 Eh     change       -0.2663702E-05 Eh
   *** GEOMETRY OPTIMIZATION CONVERGED AFTER 94 ITERATIONS ***

 final structure:
================
39
 xtb: 6.7.1 (edcfbbe)
C           -0.36354657018242        2.17487968147383       -0.75494034646110
C           -0.13159839629267        0.88773579624175        0.02603892458800
O            0.72632791963920        1.03641348152357        1.14875680281117
C            2.07111462117473        1.30822731192693        0.83444899233268
C            2.85826311984469        1.23417801903235        2.14871700604548
N            2.66091388219921       -0.05979541496043        2.75149046459322
C            1.58919708912446       -0.40912782390942        3.45621387485193
N            1.61373080625857       -1.69896893689107        3.76460030382352
C            2.75787787315055       -2.24199461775437        3.21673046078887
C            3.42693767630438       -1.19065151873471        2.55929043036720
C            4.62756175738922       -1.40613541797727        1.89293048901707
C            5.12882884948447       -2.69119718846177        1.90653931088072
C            4.46456480180468       -3.73428259355291        2.55879538864761
C            3.27246470206098       -3.53330020407481        3.22283912496280
C            0.61146692748177       -2.41773814076467        4.53323568771816
C           -0.16201643146988       -1.49612165316869        5.42627338966725
C           -1.46797090943824       -1.29558753799322        5.33345992623779
C           -2.25176727921649       -0.41329359694135        6.23476927352542
H           -0.67083222997808        2.97103109650510       -0.08175059427016
H           -1.15125501960382        2.01134282222708       -1.48391156373889
H            0.53261753532777        2.48578517816930       -1.28594163996153
H           -1.07188355974272        0.53684778311407        0.45667052422564
H            0.26825692491776        0.10784006351580       -0.63794782761776
H            2.45172805142741        0.56561481207852        0.11575491768880
H            2.19431405172510        2.30942202330192        0.40459553772425
H            3.92093526190694        1.39517488169034        1.96908565084615
H            2.48064041652918        1.99752942850296        2.83146642714502
H            0.80155712391954        0.26677175917402        3.72991221867614
H            5.14557787303937       -0.60952908265984        1.38460895406594
H            6.05727115254203       -2.90016480134839        1.39972725737012
H            4.89761437490628       -4.72147812302208        2.53922758678139
H            2.76453619482283       -4.34357793249958        3.71939792595999
H           -0.06107703896627       -2.93427626190599        3.84034137414868
H            1.13707012758359       -3.16907411413868        5.13095843059951
H            0.41730217620169       -1.00201421209018        6.19448772860996
H           -2.03814877596142       -1.80602729654478        4.56741193700101
H           -2.77964943027000        0.34214108766239        5.65461577092352
H           -3.00514811340734       -0.99994896083432        6.75820291759874
H           -1.61560753625755        0.07600020413830        6.96704696181751

          :  Hamiltonian                  GFN2-xTB          :
         :: total energy             -52.368343062308 Eh    ::
         :: gradient norm              0.000266633845 Eh/a0 ::
         :: HOMO-LUMO gap              2.981042211168 eV    ::
         :: SCC energy               -53.174570798754 Eh    ::
         :: -> dispersion             -0.033875587578 Eh    ::
         :: repulsion energy           0.806227736447 Eh    ::

    * Orbital Energies and Occupations

         #    Occupation            Energy/Eh            Energy/eV
      -------------------------------------------------------------
         1        2.0000           -0.8714900             -23.7144
       ...           ...                  ...                  ...
        36        2.0000           -0.5880437             -16.0015
        37        2.0000           -0.5797927             -15.7770
        38        2.0000           -0.5773428             -15.7103
        39        2.0000           -0.5756147             -15.6633
        40        2.0000           -0.5691494             -15.4873
        41        2.0000           -0.5626009             -15.3092
        42        2.0000           -0.5577028             -15.1759
        43        2.0000           -0.5487593             -14.9325
        44        2.0000           -0.5479238             -14.9098
        45        2.0000           -0.5402180             -14.7001
        46        2.0000           -0.5386248             -14.6567
        47        2.0000           -0.5177884             -14.0897
        48        2.0000           -0.5155006             -14.0275 (HOMO)
        49                         -0.4059493             -11.0464 (LUMO)
        50                         -0.3588383              -9.7645
        51                         -0.3494793              -9.5098
        52                         -0.3269974              -8.8981
        53                         -0.2333664              -6.3502
        54                         -0.1665224              -4.5313
        55                         -0.1245190              -3.3883
        56                         -0.0965698              -2.6278
        57                         -0.0598509              -1.6286
        58                         -0.0405917              -1.1046
        59                         -0.0356761              -0.9708
       ...                                ...                  ...
        93                          0.5451492              14.8343
      -------------------------------------------------------------
                  HL-Gap            0.1095513 Eh            2.9810 eV

     #   Z          covCN         q      C6AA      α(0)
     1   6 C        3.750    -0.123    22.916     6.827
     2   6 C        3.692     0.078    19.456     6.311
     3   8 O        1.700    -0.330    19.530     5.967
     4   6 C        3.696     0.078    19.445     6.308
     5   6 C        3.743    -0.024    21.073     6.549
     6   7 N        2.832     0.039    20.556     6.734
     7   6 C        3.072     0.075    26.256     8.401
     8   7 N        2.829     0.034    20.649     6.749
     9   6 C        3.121     0.039    26.958     8.503
    10   6 C        3.117     0.039    26.957     8.504
    11   6 C        2.908    -0.033    28.825     8.804
    12   6 C        2.925    -0.018    28.467     8.750
    13   6 C        2.925    -0.019    28.471     8.750
    14   6 C        2.908    -0.032    28.806     8.801
    15   6 C        3.744    -0.018    20.965     6.532
    16   6 C        2.891    -0.070    29.742     8.941
    17   6 C        2.888    -0.019    28.472     8.748
    18   6 C        3.757    -0.116    22.769     6.803
    19   1 H        0.925     0.059     2.207     2.323
    20   1 H        0.925     0.060     2.204     2.322
    21   1 H        0.925     0.047     2.352     2.398
    22   1 H        0.924     0.059     2.215     2.327
    23   1 H        0.923     0.027     2.631     2.537
    24   1 H        0.923     0.039     2.464     2.455
    25   1 H        0.924     0.061     2.188     2.313
    26   1 H        0.925     0.089     1.884     2.147
    27   1 H        0.924     0.095     1.834     2.118
    28   1 H        0.926     0.119     1.618     1.989
    29   1 H        0.926     0.067     2.114     2.274
    30   1 H        0.926     0.079     1.989     2.205
    31   1 H        0.926     0.079     1.985     2.203
    32   1 H        0.926     0.070     2.080     2.255
    33   1 H        0.924     0.083     1.948     2.183
    34   1 H        0.924     0.087     1.908     2.160
    35   1 H        0.925     0.051     2.312     2.378
    36   1 H        0.925     0.050     2.314     2.379
    37   1 H        0.925     0.068     2.111     2.272
    38   1 H        0.925     0.074     2.041     2.234
    39   1 H        0.925     0.055     2.255     2.349

Wiberg/Mayer (AO) data.
largest (>0.10) Wiberg bond orders for each atom

     #   Z sym  total        # sym  WBO       # sym  WBO       # sym  WBO
 ---------------------------------------------------------------------------
     1   6 C    3.992 --     2 C    1.014    21 H    0.985    19 H    0.985
                            20 H    0.982
     2   6 C    3.940 --     1 C    1.014    22 H    0.970    23 H    0.969
                             3 O    0.961
     3   8 O    2.066 --     4 C    0.997     2 C    0.961
     4   6 C    3.959 --     3 O    0.997     5 C    0.981    24 H    0.965
                            25 H    0.960
     5   6 C    3.950 --     4 C    0.981     6 N    0.980    26 H    0.965
                            27 H    0.963
     6   7 N    3.681 --     7 C    1.361    10 C    1.126     5 C    0.980
     7   6 C    3.951 --     8 N    1.381     6 N    1.361    28 H    0.949
     8   7 N    3.685 --     7 C    1.381     9 C    1.128    15 C    0.954
     9   6 C    3.953 --    14 C    1.339    10 C    1.273     8 N    1.128
    10   6 C    3.952 --    11 C    1.339     9 C    1.273     6 N    1.126
    11   6 C    3.986 --    12 C    1.495    10 C    1.339    29 H    0.963
                            14 C    0.119
    12   6 C    3.986 --    11 C    1.495    13 C    1.378    30 H    0.966
    13   6 C    3.986 --    14 C    1.495    12 C    1.378    31 H    0.966
    14   6 C    3.986 --    13 C    1.495     9 C    1.339    32 H    0.963
                            11 C    0.119
    15   6 C    3.940 --    16 C    1.012     8 N    0.954    34 H    0.952
                            33 H    0.952
    16   6 C    3.974 --    17 C    1.910    15 C    1.012    35 H    0.962
    17   6 C    3.986 --    16 C    1.910    18 C    1.053    36 H    0.963
    18   6 C    3.993 --    17 C    1.053    39 H    0.984    37 H    0.962
                            38 H    0.958
    19   1 H    0.996 --     1 C    0.985
    20   1 H    0.996 --     1 C    0.982
    21   1 H    0.998 --     1 C    0.985
    22   1 H    0.997 --     2 C    0.970
    23   1 H    0.999 --     2 C    0.969
    24   1 H    0.998 --     4 C    0.965
    25   1 H    0.996 --     4 C    0.960
    26   1 H    0.991 --     5 C    0.965
    27   1 H    0.990 --     5 C    0.963
    28   1 H    0.985 --     7 C    0.949
    29   1 H    0.995 --    11 C    0.963
    30   1 H    0.993 --    12 C    0.966
    31   1 H    0.993 --    13 C    0.966
    32   1 H    0.994 --    14 C    0.963
    33   1 H    0.992 --    15 C    0.952
    34   1 H    0.992 --    15 C    0.952
    35   1 H    0.997 --    16 C    0.962
    36   1 H    0.997 --    17 C    0.963
    37   1 H    0.995 --    18 C    0.962
    38   1 H    0.994 --    18 C    0.958
    39   1 H    0.997 --    18 C    0.984
 ---------------------------------------------------------------------------

molecular dipole:
                 x           y           z       tot (Debye)
 q only:        3.690      -1.691       5.551
   full:        3.683      -1.625       5.405      17.129

           -------------------------------------------------
          | TOTAL ENERGY              -52.368343062308 Eh   |
          | GRADIENT NORM               0.000266633845 Eh/α |
          | HOMO-LUMO GAP               2.981042211168 eV   |
           -------------------------------------------------

 * finished run on 2024/12/20 at 07:02:31.034
