   * xtb version 6.7.1 (edcfbbe) compiled by 'conda@3ef47c1a292c' on 2024-11-25

   ID    Z sym.   atoms
    1    6 C      1-8, 10, 12, 14-28
    2    8 O      9
    3    7 N      11, 13
    4    1 H      29-51

          program call               : xtb C0884.xyz --opt --namespace C0884 --charge +1
          :  Hamiltonian                  GFN2-xTB          :
 * total energy  :   -74.7777583 Eh     change       -0.1932150E-08 Eh
 * total energy  :   -74.7881336 Eh     change       -0.1037531E-01 Eh
 * total energy  :   -74.7910982 Eh     change       -0.2964592E-02 Eh
 * total energy  :   -74.7918167 Eh     change       -0.7185190E-03 Eh
 * total energy  :   -74.7925651 Eh     change       -0.7484339E-03 Eh
 * total energy  :   -74.7929362 Eh     change       -0.3710397E-03 Eh
 * total energy  :   -74.7932232 Eh     change       -0.2870596E-03 Eh
 * total energy  :   -74.7934302 Eh     change       -0.2069344E-03 Eh
 * total energy  :   -74.7935440 Eh     change       -0.1138376E-03 Eh
 * total energy  :   -74.7936209 Eh     change       -0.7692080E-04 Eh
 * total energy  :   -74.7937932 Eh     change       -0.3708612E-05 Eh
 * total energy  :   -74.7938372 Eh     change       -0.4399559E-04 Eh
 * total energy  :   -74.7939116 Eh     change       -0.7446413E-04 Eh
 * total energy  :   -74.7939363 Eh     change       -0.2471541E-04 Eh
 * total energy  :   -74.7939527 Eh     change       -0.1631873E-04 Eh
 * total energy  :   -74.7939670 Eh     change       -0.1438499E-04 Eh
 * total energy  :   -74.7939764 Eh     change       -0.9314774E-05 Eh
 * total energy  :   -74.7939847 Eh     change       -0.8374330E-05 Eh
 * total energy  :   -74.7939878 Eh     change       -0.3117786E-05 Eh
   *** GEOMETRY OPTIMIZATION CONVERGED AFTER 22 ITERATIONS ***

 final structure:
================
51
 xtb: 6.7.1 (edcfbbe)
C            2.49641508699252        0.41227859294707       -0.68717874877651
C            1.02215353769128        0.30195341893963       -0.49130665861481
C            0.42516139244145       -0.94954435691661       -0.33829059492322
C           -0.93563654863771       -1.06447056750983       -0.17327697418953
C           -1.75365767766637        0.07290450027085       -0.14844808035582
C           -1.15821432631405        1.32646144213461       -0.30400015647199
C            0.20810922121850        1.43140504171646       -0.47104322228962
C           -3.19324409563020       -0.14272387971290        0.01328887443619
O           -3.71784272020568       -1.22777461729167       -0.03476303155786
C           -4.09610828433332        1.10389268617064        0.20215559158118
N           -3.73397319001942        1.93318913800771        1.32379596854837
C           -3.75400843278954        3.26337039664018        1.35373108284204
N           -3.43709259975329        3.68484980654177        2.57653206081069
C           -3.20293586890548        2.58545831431197        3.36729559518958
C           -3.38126618413256        1.47715680758545        2.56805138492690
C           -3.27509854666007        0.04418849475001        2.86978246312342
C           -2.02883750359719       -0.57259624738141        2.91864322295466
C           -1.94221326318198       -1.93186050537344        3.15537327740213
C           -3.09231270724621       -2.67974337731580        3.34296445888162
C           -4.33335123049616       -2.06663634255129        3.30277567737394
C           -4.42854547825124       -0.70800169393381        3.06759738296716
C           -2.90146467244517        2.65127623973988        4.79599447974903
C           -3.69095064059878        3.42908533232410        5.64342403215679
C           -3.42526914522937        3.46704791600210        6.99953007558042
C           -2.37303694271921        2.73469132185296        7.52413219170826
C           -1.59074203659447        1.95456541961747        6.68834355549421
C           -1.85198332676621        1.90805844274061        5.33162609223003
C           -3.32281272310481        5.06619737643617        2.96673009465515
H            3.02546098854768       -0.04670596603542        0.14682850311271
H            2.79234876919848       -0.11959739959445       -1.59043670186465
H            2.80988406123161        1.44872525305766       -0.77516408914134
H            1.04139062433380       -1.83567415391352       -0.35885628774097
H           -1.40413021473901       -2.02990037777452       -0.05853444454736
H           -1.75217165448028        2.22804279877073       -0.32554418722847
H            0.65372006858222        2.40683642345598       -0.60107011712395
H           -4.07230615614294        1.70211694626523       -0.71185581388319
H           -5.11377174945517        0.72404192781053        0.34416475830199
H           -3.99358775151076        3.90159883204198        0.52560881118375
H           -1.13358309251784        0.00690126301992        2.74332982029970
H           -0.97393632450494       -2.40710453389528        3.18405199550763
H           -3.02190082128313       -3.74205517595218        3.51618107943289
H           -5.23032998255067       -2.64784563924711        3.44706596988602
H           -5.39565047680733       -0.22809221304843        3.03768577766089
H           -4.53391844293902        3.97705241509399        5.24985160049364
H           -4.04486572914180        4.06690753458626        7.64773587020068
H           -2.16719200251451        2.76794767336654        8.58233812008167
H           -0.77338504010553        1.37896151626822        7.09355095815199
H           -1.23764072639580        1.30496772721133        4.68322200319096
H           -2.87966976519722        5.64237473682599        2.15565860806031
H           -4.30385104536933        5.48568442750987        3.19554634735935
H           -2.69221462930125        5.14076688344248        3.85077132317284

          :  Hamiltonian                  GFN2-xTB          :
         :: total energy             -74.793987849469 Eh    ::
         :: gradient norm              0.000262438628 Eh/a0 ::
         :: HOMO-LUMO gap              3.029145455706 eV    ::
         :: SCC energy               -76.100903747183 Eh    ::
         :: -> dispersion             -0.063416373032 Eh    ::
         :: repulsion energy           1.306915897715 Eh    ::

    * Orbital Energies and Occupations

         #    Occupation            Energy/Eh            Energy/eV
      -------------------------------------------------------------
         1        2.0000           -0.8735328             -23.7700
       ...           ...                  ...                  ...
        57        2.0000           -0.5442487             -14.8098
        58        2.0000           -0.5387185             -14.6593
        59        2.0000           -0.5334825             -14.5168
        60        2.0000           -0.5323331             -14.4855
        61        2.0000           -0.5285832             -14.3835
        62        2.0000           -0.5267478             -14.3335
        63        2.0000           -0.5186515             -14.1132
        64        2.0000           -0.5168126             -14.0632
        65        2.0000           -0.5164558             -14.0535
        66        2.0000           -0.5127701             -13.9532
        67        2.0000           -0.5104129             -13.8890
        68        2.0000           -0.5092763             -13.8581
        69        2.0000           -0.5039907             -13.7143 (HOMO)
        70                         -0.3926716             -10.6851 (LUMO)
        71                         -0.3881070             -10.5609
        72                         -0.3658302              -9.9547
        73                         -0.3377079              -9.1895
        74                         -0.3358392              -9.1386
        75                         -0.3314763              -9.0199
        76                         -0.3300761              -8.9818
        77                         -0.3146803              -8.5629
        78                         -0.3012918              -8.1986
        79                         -0.2081181              -5.6632
        80                         -0.2054060              -5.5894
       ...                                ...                  ...
       135                          0.5780367              15.7292
      -------------------------------------------------------------
                  HL-Gap            0.1113190 Eh            3.0291 eV

     #   Z          covCN         q      C6AA      α(0)
     1   6 C        3.758    -0.120    22.846     6.814
     2   6 C        2.966     0.040    27.092     8.538
     3   6 C        2.922    -0.032    28.801     8.801
     4   6 C        2.926    -0.014    28.369     8.735
     5   6 C        2.970    -0.025    28.611     8.774
     6   6 C        2.918    -0.031    28.782     8.798
     7   6 C        2.922    -0.036    28.908     8.817
     8   6 C        2.819     0.227    23.236     7.898
     9   8 O        0.858    -0.336    20.444     6.062
    10   6 C        3.740    -0.042    21.408     6.602
    11   7 N        2.856     0.043    20.497     6.724
    12   6 C        3.060     0.041    27.027     8.525
    13   7 N        2.856     0.044    20.464     6.719
    14   6 C        3.101     0.030    27.199     8.546
    15   6 C        3.107     0.032    27.151     8.538
    16   6 C        2.974     0.001    28.004     8.680
    17   6 C        2.923    -0.029    28.717     8.788
    18   6 C        2.920    -0.021    28.523     8.758
    19   6 C        2.921    -0.015    28.377     8.736
    20   6 C        2.920    -0.015    28.394     8.738
    21   6 C        2.924    -0.025    28.617     8.773
    22   6 C        2.972     0.002    27.971     8.675
    23   6 C        2.924    -0.034    28.840     8.807
    24   6 C        2.919    -0.022    28.557     8.763
    25   6 C        2.920    -0.017    28.441     8.745
    26   6 C        2.919    -0.020    28.510     8.756
    27   6 C        2.924    -0.030    28.759     8.794
    28   6 C        3.692    -0.075    22.120     6.730
    29   1 H        0.925     0.067     2.116     2.275
    30   1 H        0.925     0.072     2.065     2.247
    31   1 H        0.925     0.057     2.238     2.340
    32   1 H        0.926     0.059     2.206     2.323
    33   1 H        0.926     0.070     2.086     2.259
    34   1 H        0.926     0.023     2.692     2.566
    35   1 H        0.926     0.047     2.352     2.398
    36   1 H        0.924     0.088     1.903     2.157
    37   1 H        0.924     0.102     1.768     2.079
    38   1 H        0.926     0.097     1.812     2.105
    39   1 H        0.926     0.032     2.562     2.503
    40   1 H        0.926     0.054     2.269     2.355
    41   1 H        0.926     0.062     2.178     2.308
    42   1 H        0.926     0.062     2.178     2.308
    43   1 H        0.926     0.041     2.440     2.443
    44   1 H        0.926     0.040     2.446     2.446
    45   1 H        0.926     0.057     2.230     2.335
    46   1 H        0.926     0.061     2.191     2.315
    47   1 H        0.926     0.057     2.229     2.335
    48   1 H        0.926     0.045     2.385     2.415
    49   1 H        0.925     0.090     1.876     2.142
    50   1 H        0.924     0.094     1.839     2.120
    51   1 H        0.925     0.102     1.771     2.081

Wiberg/Mayer (AO) data.
largest (>0.10) Wiberg bond orders for each atom

     #   Z sym  total        # sym  WBO       # sym  WBO       # sym  WBO
 ---------------------------------------------------------------------------
     1   6 C    3.990 --     2 C    1.040    31 H    0.984    29 H    0.963
                            30 H    0.960
     2   6 C    3.983 --     7 C    1.389     3 C    1.380     1 C    1.040
     3   6 C    3.990 --     4 C    1.487     2 C    1.380    32 H    0.967
     4   6 C    3.986 --     3 C    1.487     5 C    1.342    33 H    0.964
     5   6 C    3.986 --     6 C    1.364     4 C    1.342     8 C    1.067
     6   6 C    3.992 --     7 C    1.472     5 C    1.364    34 H    0.967
     7   6 C    3.991 --     6 C    1.472     2 C    1.389    35 H    0.967
     8   6 C    3.931 --     9 O    1.830     5 C    1.067    10 C    0.929
     9   8 O    2.094 --     8 C    1.830
    10   6 C    3.940 --    11 N    0.978    36 H    0.954    37 H    0.950
                             8 C    0.929
    11   7 N    3.698 --    12 C    1.345    15 C    1.186    10 C    0.978
    12   6 C    3.939 --    13 N    1.347    11 N    1.345    38 H    0.956
    13   7 N    3.693 --    12 C    1.347    14 C    1.178    28 C    0.990
    14   6 C    3.941 --    15 C    1.479    13 N    1.178    22 C    1.048
    15   6 C    3.942 --    14 C    1.479    11 N    1.186    16 C    1.017
    16   6 C    3.979 --    21 C    1.394    17 C    1.390    15 C    1.017
                            19 C    0.108
    17   6 C    3.990 --    18 C    1.444    16 C    1.390    39 H    0.968
                            20 C    0.109
    18   6 C    3.990 --    17 C    1.444    19 C    1.438    40 H    0.968
                            21 C    0.109
    19   6 C    3.988 --    18 C    1.438    20 C    1.436    41 H    0.969
                            16 C    0.108
    20   6 C    3.988 --    21 C    1.446    19 C    1.436    42 H    0.967
                            17 C    0.109
    21   6 C    3.990 --    20 C    1.446    16 C    1.394    43 H    0.970
                            18 C    0.109
    22   6 C    3.981 --    27 C    1.384    23 C    1.380    14 C    1.048
                            25 C    0.105
    23   6 C    3.990 --    24 C    1.451    22 C    1.380    44 H    0.969
                            26 C    0.108
    24   6 C    3.990 --    23 C    1.451    25 C    1.434    45 H    0.968
                            27 C    0.108
    25   6 C    3.984 --    26 C    1.435    24 C    1.434    46 H    0.969
                            22 C    0.105
    26   6 C    3.990 --    27 C    1.451    25 C    1.435    47 H    0.968
                            23 C    0.108
    27   6 C    3.990 --    26 C    1.451    22 C    1.384    48 H    0.966
                            24 C    0.108
    28   6 C    3.939 --    13 N    0.990    49 H    0.972    51 H    0.970
                            50 H    0.963
    29   1 H    0.993 --     1 C    0.963
    30   1 H    0.992 --     1 C    0.960
    31   1 H    0.996 --     1 C    0.984
    32   1 H    0.996 --     3 C    0.967
    33   1 H    0.995 --     4 C    0.964
    34   1 H    0.999 --     6 C    0.967
    35   1 H    0.997 --     7 C    0.967
    36   1 H    0.992 --    10 C    0.954
    37   1 H    0.989 --    10 C    0.950
    38   1 H    0.989 --    12 C    0.956
    39   1 H    0.999 --    17 C    0.968
    40   1 H    0.996 --    18 C    0.968
    41   1 H    0.996 --    19 C    0.969
    42   1 H    0.995 --    20 C    0.967
    43   1 H    0.998 --    21 C    0.970
    44   1 H    0.998 --    23 C    0.969
    45   1 H    0.996 --    24 C    0.968
    46   1 H    0.996 --    25 C    0.969
    47   1 H    0.996 --    26 C    0.968
    48   1 H    0.998 --    27 C    0.966
    49   1 H    0.991 --    28 C    0.972
    50   1 H    0.990 --    28 C    0.963
    51   1 H    0.989 --    28 C    0.970
 ---------------------------------------------------------------------------

molecular dipole:
                 x           y           z       tot (Debye)
 q only:       -4.577       4.696       4.765
   full:       -4.696       5.058       4.508      20.953

           -------------------------------------------------
          | TOTAL ENERGY              -74.793987849469 Eh   |
          | GRADIENT NORM               0.000262438628 Eh/α |
          | HOMO-LUMO GAP               3.029145455706 eV   |
           -------------------------------------------------

 * finished run on 2024/12/20 at 07:02:36.165
