   * xtb version 6.7.1 (edcfbbe) compiled by 'conda@3ef47c1a292c' on 2024-11-25

   ID    Z sym.   atoms
    1    6 C      1, 2, 4, 6, 7
    2    7 N      3, 5
    3    1 H      8-16

          program call               : xtb C0889.xyz --opt --namespace C0889 --charge +1
          :  Hamiltonian                  GFN2-xTB          :
 * total energy  :   -20.7477042 Eh     change       -0.2738076E-10 Eh
 * total energy  :   -20.7499884 Eh     change       -0.2284192E-02 Eh
 * total energy  :   -20.7505637 Eh     change       -0.5752689E-03 Eh
 * total energy  :   -20.7506657 Eh     change       -0.1019844E-03 Eh
 * total energy  :   -20.7507153 Eh     change       -0.4958131E-04 Eh
 * total energy  :   -20.7507344 Eh     change       -0.1917778E-04 Eh
 * total energy  :   -20.7507548 Eh     change       -0.2033950E-04 Eh
 * total energy  :   -20.7507793 Eh     change       -0.2453940E-04 Eh
 * total energy  :   -20.7508032 Eh     change       -0.2387788E-04 Eh
 * total energy  :   -20.7508244 Eh     change       -0.2118568E-04 Eh
 * total energy  :   -20.7509714 Eh     change       -0.1656908E-04 Eh
 * total energy  :   -20.7509878 Eh     change       -0.1637034E-04 Eh
 * total energy  :   -20.7510051 Eh     change       -0.1731746E-04 Eh
 * total energy  :   -20.7510101 Eh     change       -0.5018590E-05 Eh
 * total energy  :   -20.7510152 Eh     change       -0.5067976E-05 Eh
 * total energy  :   -20.7510210 Eh     change       -0.5883641E-05 Eh
 * total energy  :   -20.7510273 Eh     change       -0.6216846E-05 Eh
 * total energy  :   -20.7510330 Eh     change       -0.5759220E-05 Eh
 * total energy  :   -20.7510379 Eh     change       -0.4918796E-05 Eh
   *** GEOMETRY OPTIMIZATION CONVERGED AFTER 27 ITERATIONS ***

 final structure:
================
16
 xtb: 6.7.1 (edcfbbe)
C            1.16161368164329       -0.16788214384537        0.09042857466764
C            0.22389978028340       -0.56375275780716        1.22706011237764
N            0.68979679479174       -0.02178995331181        2.48662234118350
C            0.40277609761543        1.17649732968422        2.97721238929919
N            1.06266171719803        1.34187505501278        4.12200045205740
C            1.79436265342771        0.22207290160593        4.37067837755078
C            1.56035986837426       -0.63413724997047        3.33756942798204
H            1.19300935232644        0.91190410016383       -0.03036426141697
H            0.80393050852008       -0.60470586048352       -0.83674838017153
H            2.16970668821271       -0.53101330591164        0.27253026832750
H           -0.78205137480060       -0.18559647206506        1.03569405517093
H            0.18134034239991       -1.65042632506177        1.31926667115040
H           -0.25772978873906        1.89232636700681        2.52631038312015
H            1.02418324938383        2.16178319205926        4.71326172743359
H            2.41223328305062        0.10824004252927        5.23801019219977
H            1.94314714631217       -1.61872491960533        3.15995766906802

          :  Hamiltonian                  GFN2-xTB          :
         :: total energy             -20.751037941126 Eh    ::
         :: gradient norm              0.000186285468 Eh/a0 ::
         :: HOMO-LUMO gap              4.738262950214 eV    ::
         :: SCC energy               -21.077232624393 Eh    ::
         :: -> dispersion             -0.009303367592 Eh    ::
         :: repulsion energy           0.326194683266 Eh    ::

    * Orbital Energies and Occupations

         #    Occupation            Energy/Eh            Energy/eV
      -------------------------------------------------------------
         1        2.0000           -0.9146367             -24.8885
       ...           ...                  ...                  ...
         7        2.0000           -0.7678908             -20.8954
         8        2.0000           -0.7607457             -20.7009
         9        2.0000           -0.7397904             -20.1307
        10        2.0000           -0.7110526             -19.3487
        11        2.0000           -0.7022648             -19.1096
        12        2.0000           -0.6877581             -18.7149
        13        2.0000           -0.6796793             -18.4950
        14        2.0000           -0.6736421             -18.3307
        15        2.0000           -0.6620497             -18.0153
        16        2.0000           -0.6224484             -16.9377
        17        2.0000           -0.6114888             -16.6395
        18        2.0000           -0.6057358             -16.4829
        19        2.0000           -0.5998607             -16.3230 (HOMO)
        20                         -0.4257328             -11.5848 (LUMO)
        21                         -0.3865956             -10.5198
        22                         -0.1945169              -5.2931
        23                         -0.1397219              -3.8020
        24                         -0.0678259              -1.8456
        25                         -0.0497006              -1.3524
        26                         -0.0438265              -1.1926
        27                         -0.0293930              -0.7998
        28                          0.0023691               0.0645
        29                          0.0253432               0.6896
        30                          0.0407324               1.1084
       ...                                ...                  ...
        37                          0.4503058              12.2534
      -------------------------------------------------------------
                  HL-Gap            0.1741280 Eh            4.7383 eV

     #   Z          covCN         q      C6AA      α(0)
     1   6 C        3.753    -0.127    22.989     6.837
     2   6 C        3.741    -0.028    21.143     6.560
     3   7 N        2.874     0.085    19.763     6.603
     4   6 C        3.076     0.060    26.566     8.450
     5   7 N        2.835    -0.008    21.415     6.873
     6   6 C        3.051     0.009    27.770     8.643
     7   6 C        3.078    -0.002    27.989     8.674
     8   1 H        0.925     0.066     2.133     2.284
     9   1 H        0.925     0.090     1.877     2.143
    10   1 H        0.925     0.070     2.086     2.259
    11   1 H        0.924     0.091     1.867     2.137
    12   1 H        0.924     0.098     1.802     2.099
    13   1 H        0.926     0.125     1.576     1.963
    14   1 H        0.860     0.231     0.960     1.535
    15   1 H        0.926     0.120     1.612     1.985
    16   1 H        0.926     0.119     1.624     1.993

Wiberg/Mayer (AO) data.
largest (>0.10) Wiberg bond orders for each atom

     #   Z sym  total        # sym  WBO       # sym  WBO       # sym  WBO
 ---------------------------------------------------------------------------
     1   6 C    3.979 --     2 C    0.999     8 H    0.984    10 H    0.983
                             9 H    0.975
     2   6 C    3.933 --     1 C    0.999    11 H    0.965    12 H    0.963
                             3 N    0.963
     3   7 N    3.731 --     4 C    1.390     7 C    1.229     2 C    0.963
     4   6 C    3.947 --     3 N    1.390     5 N    1.363    13 H    0.952
                             6 C    0.100
     5   7 N    3.670 --     4 C    1.363     6 C    1.240    14 H    0.921
     6   6 C    3.945 --     7 C    1.596     5 N    1.240    15 H    0.959
                             4 C    0.100
     7   6 C    3.949 --     6 C    1.596     3 N    1.229    16 H    0.959
     8   1 H    0.996 --     1 C    0.984
     9   1 H    0.991 --     1 C    0.975
    10   1 H    0.995 --     1 C    0.983
    11   1 H    0.992 --     2 C    0.965
    12   1 H    0.990 --     2 C    0.963
    13   1 H    0.984 --     4 C    0.952
    14   1 H    0.946 --     5 N    0.921
    15   1 H    0.985 --     6 C    0.959
    16   1 H    0.986 --     7 C    0.959
 ---------------------------------------------------------------------------

molecular dipole:
                 x           y           z       tot (Debye)
 q only:        1.716       0.839       5.517
   full:        1.643       1.033       5.670      15.232

           -------------------------------------------------
          | TOTAL ENERGY              -20.751037941126 Eh   |
          | GRADIENT NORM               0.000186285468 Eh/α |
          | HOMO-LUMO GAP               4.738262950214 eV   |
           -------------------------------------------------

 * finished run on 2024/12/20 at 07:02:38.443
