   * xtb version 6.7.1 (edcfbbe) compiled by 'conda@3ef47c1a292c' on 2024-11-25

   ID    Z sym.   atoms
    1    6 C      1-18, 20-22
    2    7 N      19
    3    1 H      23-68

          program call               : xtb C0883.xyz --opt --namespace C0883 --charge +1
          :  Hamiltonian                  GFN2-xTB          :
 * total energy  :   -70.9721396 Eh     change       -0.7396750E-10 Eh
 * total energy  :   -70.9786622 Eh     change       -0.6522568E-02 Eh
 * total energy  :   -70.9800955 Eh     change       -0.1433285E-02 Eh
 * total energy  :   -70.9801849 Eh     change       -0.8946544E-04 Eh
 * total energy  :   -70.9803301 Eh     change       -0.1451923E-03 Eh
 * total energy  :   -70.9803982 Eh     change       -0.6813263E-04 Eh
 * total energy  :   -70.9805601 Eh     change       -0.1618343E-03 Eh
 * total energy  :   -70.9807127 Eh     change       -0.1526085E-03 Eh
 * total energy  :   -70.9807940 Eh     change       -0.8130605E-04 Eh
 * total energy  :   -70.9809323 Eh     change       -0.1382898E-03 Eh
 * total energy  :   -70.9819546 Eh     change       -0.1068970E-04 Eh
 * total energy  :   -70.9819644 Eh     change       -0.9775632E-05 Eh
 * total energy  :   -70.9819718 Eh     change       -0.7338318E-05 Eh
 * total energy  :   -70.9819777 Eh     change       -0.5931664E-05 Eh
 * total energy  :   -70.9819838 Eh     change       -0.6074523E-05 Eh
 * total energy  :   -70.9819910 Eh     change       -0.7278828E-05 Eh
 * total energy  :   -70.9819990 Eh     change       -0.8000172E-05 Eh
 * total energy  :   -70.9820060 Eh     change       -0.6938791E-05 Eh
 * total energy  :   -70.9820109 Eh     change       -0.4913164E-05 Eh
   *** GEOMETRY OPTIMIZATION CONVERGED AFTER 41 ITERATIONS ***

 final structure:
================
68
 xtb: 6.7.1 (edcfbbe)
C            1.02099633013416        0.65182713764795       -0.56677271977042
C            1.06276565153423       -0.67995913955920       -1.30638722873660
C            1.32825737842133       -1.87237508192781       -0.38628013988421
C            0.25533347981804       -2.12080218968437        0.67619843926484
C           -1.15302150854490       -2.36561264530321        0.13040151232403
C           -1.27066528398719       -3.52852691753237       -0.85645149786789
C           -0.82931844119833       -4.88694154070665       -0.30916805939525
C           -1.61745364498972       -5.38224633028424        0.90484949169183
C           -3.12179023556280       -5.54542429385299        0.67711327000724
C           -3.50380112917831       -6.46609647888770       -0.48364408078360
C           -2.94472069301140       -7.88694893094176       -0.39207010880215
C           -3.37668499403347       -8.67316335080359        0.84694321292409
C           -4.88720369039964       -8.86733375152500        0.99491766653538
C           -5.56620096057003       -9.56462404867419       -0.18599425695006
C           -5.00163424957586      -10.94390573128417       -0.53210976718537
C           -5.04133754409751      -11.96862446850781        0.60460871233776
C           -6.43809022924901      -12.24380668848289        1.17506224400707
C           -7.44042068280571      -12.83539170020569        0.17724099458147
N           -7.62658703919805      -14.32101886948539        0.21225613961478
C           -8.28366726276171      -14.73237610438510        1.46609250297888
C           -8.49595539230877      -14.69992106579940       -0.91891855171795
C           -6.34072279261267      -15.02602519445810        0.07593671959689
H            0.17432844904306        0.69664116453326        0.11343876314067
H            0.92933246952668        1.47298593901713       -1.27416078660533
H            1.93324411678408        0.79604218080936        0.00825920052848
H            0.12447132645745       -0.82693337970045       -1.84404281377285
H            1.86124672373085       -0.64350731408208       -2.05190733364841
H            1.44266773495905       -2.76826290511978       -1.00024853766853
H            2.27978636585173       -1.70971551570232        0.12684458734399
H            0.56355765224401       -2.97969374037742        1.27668941018208
H            0.21407231406265       -1.26237501664345        1.34948420684601
H           -1.82106696220382       -2.54076464400628        0.97686030840301
H           -1.50567541128152       -1.46090310538185       -0.36892734724884
H           -2.30977941422361       -3.59242759959765       -1.18746903856140
H           -0.66910583997265       -3.30809576280447       -1.74050751391173
H           -0.90717548945715       -5.62116195946054       -1.11439134161430
H            0.22464109763402       -4.83429499216849       -0.02979653942748
H           -1.19372879693998       -6.33887425109386        1.22000201438021
H           -1.47482373375322       -4.68523132577904        1.73276811103170
H           -3.56861060012531       -5.92082437907550        1.60094480505328
H           -3.56291457634343       -4.56491594448096        0.48820182872361
H           -4.59402970813535       -6.50641867558386       -0.54490687060969
H           -3.15085139517200       -6.02560938327853       -1.41777239410278
H           -3.24217733509549       -8.43117000487035       -1.29176221181942
H           -1.85461737098930       -7.84088031936105       -0.39687766767820
H           -2.88328442415819       -9.64807173676319        0.82365822291712
H           -3.01594844231980       -8.15804098320827        1.73841858563925
H           -5.07320948534242       -9.43085209411870        1.91295660857247
H           -5.35915838883910       -7.89219182648703        1.12249724892530
H           -6.63640824125861       -9.64366905323897        0.02382177801685
H           -5.46687201230587       -8.93505611852900       -1.07084907572040
H           -5.53862114198668      -11.32469267038883       -1.40596432961259
H           -3.96039113177163      -10.83176771124961       -0.83445898374909
H           -4.57810146307826      -12.89119953946014        0.25054556292167
H           -4.42488809096863      -11.59846924318368        1.42360165536205
H           -6.34100718401550      -12.87661223214473        2.05757821550724
H           -6.84485082108845      -11.29504334037498        1.52450579900647
H           -8.42605537856499      -12.39723818595169        0.34479463827913
H           -7.12468737890948      -12.56842420455443       -0.83268996440271
H           -9.25435883101280      -14.24842214314302        1.55773881553380
H           -8.42838156854507      -15.81121517029217        1.47529374309743
H           -7.67759571556338      -14.45943594263448        2.32673173055854
H           -8.01366718840571      -14.45945478180181       -1.86475541283240
H           -8.69856557355222      -15.76933042265869       -0.89522034361491
H           -9.44309810811882      -14.16588854118259       -0.86529175885010
H           -5.83505578962251      -14.70630880090402       -0.83331497583803
H           -5.70019097517842      -14.81903225399910        0.92955675150988
H           -6.50915134809860      -16.10049468467713        0.02194815526760

          :  Hamiltonian                  GFN2-xTB          :
         :: total energy             -70.982010896639 Eh    ::
         :: gradient norm              0.000246065317 Eh/a0 ::
         :: HOMO-LUMO gap              5.927763873986 eV    ::
         :: SCC energy               -72.017263435612 Eh    ::
         :: -> dispersion             -0.055821524116 Eh    ::
         :: repulsion energy           1.035252538973 Eh    ::

    * Orbital Energies and Occupations

         #    Occupation            Energy/Eh            Energy/eV
      -------------------------------------------------------------
         1        2.0000           -0.8694943             -23.6601
       ...           ...                  ...                  ...
        55        2.0000           -0.5009003             -13.6302
        56        2.0000           -0.4961298             -13.5004
        57        2.0000           -0.4930535             -13.4167
        58        2.0000           -0.4864920             -13.2381
        59        2.0000           -0.4816431             -13.1062
        60        2.0000           -0.4786200             -13.0239
        61        2.0000           -0.4743073             -12.9066
        62        2.0000           -0.4660378             -12.6815
        63        2.0000           -0.4646013             -12.6424
        64        2.0000           -0.4622279             -12.5779
        65        2.0000           -0.4537074             -12.3460
        66        2.0000           -0.4480256             -12.1914
        67        2.0000           -0.4468237             -12.1587 (HOMO)
        68                         -0.2289824              -6.2309 (LUMO)
        69                         -0.1617931              -4.4026
        70                         -0.1505157              -4.0957
        71                         -0.1449597              -3.9446
        72                         -0.0714492              -1.9442
        73                         -0.0654663              -1.7814
        74                         -0.0362188              -0.9856
        75                         -0.0307955              -0.8380
        76                         -0.0110320              -0.3002
        77                         -0.0041830              -0.1138
        78                          0.0024347               0.0663
       ...                                ...                  ...
       134                          0.2749585               7.4820
      -------------------------------------------------------------
                  HL-Gap            0.2178413 Eh            5.9278 eV

     #   Z          covCN         q      C6AA      α(0)
     1   6 C        3.751    -0.101    22.498     6.764
     2   6 C        3.799    -0.052    21.505     6.603
     3   6 C        3.800    -0.057    21.596     6.617
     4   6 C        3.800    -0.057    21.591     6.616
     5   6 C        3.800    -0.056    21.581     6.614
     6   6 C        3.800    -0.056    21.587     6.615
     7   6 C        3.800    -0.056    21.589     6.615
     8   6 C        3.800    -0.056    21.588     6.615
     9   6 C        3.800    -0.056    21.591     6.616
    10   6 C        3.800    -0.057    21.600     6.617
    11   6 C        3.800    -0.058    21.614     6.619
    12   6 C        3.800    -0.058    21.627     6.621
    13   6 C        3.800    -0.059    21.644     6.624
    14   6 C        3.800    -0.062    21.683     6.630
    15   6 C        3.800    -0.063    21.707     6.634
    16   6 C        3.800    -0.070    21.846     6.655
    17   6 C        3.799    -0.073    21.900     6.663
    18   6 C        3.760    -0.044    21.402     6.595
    19   7 N        3.622     0.144    18.791     6.438
    20   6 C        3.722    -0.096    22.454     6.767
    21   6 C        3.730    -0.098    22.471     6.767
    22   6 C        3.721    -0.095    22.442     6.766
    23   1 H        0.925     0.034     2.528     2.487
    24   1 H        0.925     0.031     2.568     2.506
    25   1 H        0.925     0.034     2.536     2.490
    26   1 H        0.924     0.030     2.582     2.513
    27   1 H        0.924     0.026     2.640     2.541
    28   1 H        0.924     0.028     2.619     2.531
    29   1 H        0.924     0.028     2.610     2.527
    30   1 H        0.924     0.027     2.630     2.536
    31   1 H        0.924     0.032     2.565     2.505
    32   1 H        0.924     0.026     2.640     2.541
    33   1 H        0.924     0.031     2.570     2.507
    34   1 H        0.924     0.026     2.644     2.543
    35   1 H        0.924     0.031     2.566     2.505
    36   1 H        0.924     0.025     2.654     2.548
    37   1 H        0.924     0.032     2.554     2.499
    38   1 H        0.924     0.025     2.663     2.552
    39   1 H        0.924     0.033     2.544     2.494
    40   1 H        0.924     0.025     2.666     2.553
    41   1 H        0.924     0.033     2.538     2.492
    42   1 H        0.924     0.024     2.671     2.556
    43   1 H        0.924     0.035     2.517     2.481
    44   1 H        0.924     0.023     2.681     2.561
    45   1 H        0.924     0.037     2.484     2.465
    46   1 H        0.924     0.023     2.685     2.563
    47   1 H        0.924     0.039     2.457     2.451
    48   1 H        0.924     0.022     2.701     2.570
    49   1 H        0.924     0.042     2.425     2.435
    50   1 H        0.924     0.021     2.725     2.581
    51   1 H        0.924     0.047     2.362     2.403
    52   1 H        0.924     0.018     2.763     2.599
    53   1 H        0.925     0.054     2.269     2.356
    54   1 H        0.924     0.032     2.561     2.503
    55   1 H        0.925     0.062     2.178     2.308
    56   1 H        0.924     0.048     2.351     2.398
    57   1 H        0.925     0.079     1.992     2.207
    58   1 H        0.924     0.080     1.980     2.201
    59   1 H        0.924     0.094     1.839     2.121
    60   1 H        0.925     0.099     1.797     2.096
    61   1 H        0.925     0.098     1.800     2.098
    62   1 H        0.925     0.101     1.773     2.082
    63   1 H        0.925     0.099     1.790     2.092
    64   1 H        0.925     0.100     1.784     2.089
    65   1 H        0.925     0.099     1.796     2.096
    66   1 H        0.925     0.100     1.781     2.087
    67   1 H        0.925     0.106     1.735     2.060
    68   1 H        0.925     0.096     1.819     2.109

Wiberg/Mayer (AO) data.
largest (>0.10) Wiberg bond orders for each atom

     #   Z sym  total        # sym  WBO       # sym  WBO       # sym  WBO
 ---------------------------------------------------------------------------
     1   6 C    3.997 --     2 C    1.020    25 H    0.988    24 H    0.988
                            23 H    0.986
     2   6 C    3.998 --     1 C    1.020     3 C    1.008    27 H    0.979
                            26 H    0.976
     3   6 C    3.998 --     2 C    1.008     4 C    1.008    29 H    0.977
                            28 H    0.976
     4   6 C    3.998 --     5 C    1.008     3 C    1.008    31 H    0.976
                            30 H    0.975
     5   6 C    3.998 --     6 C    1.008     4 C    1.008    32 H    0.975
                            33 H    0.975
     6   6 C    3.998 --     7 C    1.008     5 C    1.008    34 H    0.975
                            35 H    0.975
     7   6 C    3.998 --     6 C    1.008     8 C    1.008    36 H    0.975
                            37 H    0.974
     8   6 C    3.997 --     7 C    1.008     9 C    1.007    38 H    0.976
                            39 H    0.975
     9   6 C    3.997 --    10 C    1.008     8 C    1.007    40 H    0.976
                            41 H    0.975
    10   6 C    3.997 --    11 C    1.008     9 C    1.008    42 H    0.975
                            43 H    0.974
    11   6 C    3.997 --    10 C    1.008    12 C    1.008    44 H    0.975
                            45 H    0.974
    12   6 C    3.997 --    11 C    1.008    13 C    1.007    46 H    0.975
                            47 H    0.974
    13   6 C    3.996 --    12 C    1.007    14 C    1.007    48 H    0.976
                            49 H    0.974
    14   6 C    3.996 --    15 C    1.007    13 C    1.007    50 H    0.975
                            51 H    0.973
    15   6 C    3.994 --    16 C    1.007    14 C    1.007    52 H    0.972
                            53 H    0.971
    16   6 C    3.992 --    15 C    1.007    17 C    1.005    54 H    0.975
                            55 H    0.970
    17   6 C    3.983 --    16 C    1.005    18 C    1.003    56 H    0.965
                            57 H    0.964
    18   6 C    3.922 --    17 C    1.003    58 H    0.970    59 H    0.959
                            19 N    0.919
    19   7 N    3.816 --    20 C    0.959    21 C    0.958    22 C    0.958
                            18 C    0.919
    20   6 C    3.928 --    60 H    0.975    61 H    0.975    62 H    0.970
                            19 N    0.959
    21   6 C    3.928 --    65 H    0.975    63 H    0.975    64 H    0.974
                            19 N    0.958
    22   6 C    3.926 --    68 H    0.975    66 H    0.974    67 H    0.971
                            19 N    0.958
    23   1 H    0.999 --     1 C    0.986
    24   1 H    0.999 --     1 C    0.988
    25   1 H    0.999 --     1 C    0.988
    26   1 H    0.999 --     2 C    0.976
    27   1 H    0.999 --     2 C    0.979
    28   1 H    0.999 --     3 C    0.976
    29   1 H    0.999 --     3 C    0.977
    30   1 H    0.999 --     4 C    0.975
    31   1 H    0.999 --     4 C    0.976
    32   1 H    0.999 --     5 C    0.975
    33   1 H    0.999 --     5 C    0.975
    34   1 H    0.999 --     6 C    0.975
    35   1 H    0.999 --     6 C    0.975
    36   1 H    0.999 --     7 C    0.975
    37   1 H    0.999 --     7 C    0.974
    38   1 H    0.999 --     8 C    0.976
    39   1 H    0.999 --     8 C    0.975
    40   1 H    0.999 --     9 C    0.976
    41   1 H    0.999 --     9 C    0.975
    42   1 H    0.999 --    10 C    0.975
    43   1 H    0.999 --    10 C    0.974
    44   1 H    0.999 --    11 C    0.975
    45   1 H    0.999 --    11 C    0.974
    46   1 H    0.999 --    12 C    0.975
    47   1 H    0.998 --    12 C    0.974
    48   1 H    0.999 --    13 C    0.976
    49   1 H    0.998 --    13 C    0.974
    50   1 H    1.000 --    14 C    0.975
    51   1 H    0.998 --    14 C    0.973
    52   1 H    1.000 --    15 C    0.972
    53   1 H    0.997 --    15 C    0.971
    54   1 H    0.999 --    16 C    0.975
    55   1 H    0.996 --    16 C    0.970
    56   1 H    0.998 --    17 C    0.965
    57   1 H    0.994 --    17 C    0.964
    58   1 H    0.994 --    18 C    0.970
    59   1 H    0.991 --    18 C    0.959
    60   1 H    0.990 --    20 C    0.975
    61   1 H    0.990 --    20 C    0.975
    62   1 H    0.990 --    20 C    0.970
    63   1 H    0.990 --    21 C    0.975
    64   1 H    0.990 --    21 C    0.974
    65   1 H    0.990 --    21 C    0.975
    66   1 H    0.990 --    22 C    0.974
    67   1 H    0.989 --    22 C    0.971
    68   1 H    0.991 --    22 C    0.975
 ---------------------------------------------------------------------------

molecular dipole:
                 x           y           z       tot (Debye)
 q only:      -13.853     -26.304       0.477
   full:      -13.956     -26.406       0.459      75.925

           -------------------------------------------------
          | TOTAL ENERGY              -70.982010896639 Eh   |
          | GRADIENT NORM               0.000246065317 Eh/α |
          | HOMO-LUMO GAP               5.927763873986 eV   |
           -------------------------------------------------

 * finished run on 2024/12/20 at 07:02:34.057
