   * xtb version 6.7.1 (edcfbbe) compiled by 'conda@3ef47c1a292c' on 2024-11-25

   ID    Z sym.   atoms
    1    8 O      1
    2    6 C      2-5, 7-11
    3    7 N      6
    4    1 H      12-23

          program call               : xtb C0885.xyz --opt --namespace C0885 --charge +1
          :  Hamiltonian                  GFN2-xTB          :
 * total energy  :   -31.9271633 Eh     change       -0.1332197E-09 Eh
 * total energy  :   -31.9303845 Eh     change       -0.3221216E-02 Eh
 * total energy  :   -31.9310503 Eh     change       -0.6657479E-03 Eh
 * total energy  :   -31.9312941 Eh     change       -0.2438509E-03 Eh
 * total energy  :   -31.9315287 Eh     change       -0.2346346E-03 Eh
 * total energy  :   -31.9317377 Eh     change       -0.2089233E-03 Eh
 * total energy  :   -31.9320683 Eh     change       -0.3306591E-03 Eh
 * total energy  :   -31.9323582 Eh     change       -0.2898672E-03 Eh
 * total energy  :   -31.9326400 Eh     change       -0.2817961E-03 Eh
 * total energy  :   -31.9328138 Eh     change       -0.1737784E-03 Eh
 * total energy  :   -31.9330816 Eh     change       -0.7436079E-04 Eh
 * total energy  :   -31.9331498 Eh     change       -0.6817387E-04 Eh
 * total energy  :   -31.9331891 Eh     change       -0.3933098E-04 Eh
 * total energy  :   -31.9332109 Eh     change       -0.2172213E-04 Eh
 * total energy  :   -31.9332223 Eh     change       -0.1144950E-04 Eh
 * total energy  :   -31.9332210 Eh     change        0.1268997E-05 Eh
 * total energy  :   -31.9332282 Eh     change       -0.7174892E-05 Eh
 * total energy  :   -31.9332321 Eh     change       -0.3866769E-05 Eh
 * total energy  :   -31.9332352 Eh     change       -0.3127988E-05 Eh
   *** GEOMETRY OPTIMIZATION CONVERGED AFTER 20 ITERATIONS ***

 final structure:
================
23
 xtb: 6.7.1 (edcfbbe)
O            0.96788903259699        0.08676103685927       -0.02484125991358
C            0.85770878333067       -1.02578808403439       -0.86570870720960
C            1.09261081926091       -0.61666834955381       -2.28295447679365
C            1.36259940938208        0.71498214057384       -2.60618927317486
C            1.57141675617969        1.07199792239553       -3.91670400196962
N            1.52967420762510        0.16459613948426       -4.90058970600761
C            1.27003769394262       -1.11968485953677       -4.61946510287652
C            1.04995391279548       -1.54118402774570       -3.32992426671809
C            1.67715099364332        0.59077412746975       -6.28541809444866
C            0.33246856389025        0.97500097410579       -6.85093074207463
C            0.07187907784213        2.15719740683004       -7.37261834325451
H            0.80935416478230       -0.17294041732030        0.88888507729062
H            1.59104528911641       -1.80632004977179       -0.60300668215549
H           -0.14343745692752       -1.48422277038477       -0.79960267650242
H            1.40336225698235        1.44863277271915       -1.81707406048664
H            1.77438815911028        2.09475303717759       -4.19779831596932
H            1.24402334837248       -1.81125546508237       -5.44886280342093
H            0.84695132724247       -2.58325790935154       -3.13864195763871
H            2.36031671797674        1.44054208213926       -6.33157887573566
H            2.10031755769874       -0.23433510195223       -6.86463503085355
H           -0.42008851078057        0.19992238208082       -6.81202283811227
H           -0.89361658039593        2.38570013042762       -7.78758174775863
H            0.81184447633325        2.93817688247054       -7.42917611421566

          :  Hamiltonian                  GFN2-xTB          :
         :: total energy             -31.933235212648 Eh    ::
         :: gradient norm              0.000757759782 Eh/a0 ::
         :: HOMO-LUMO gap              2.723293110489 eV    ::
         :: SCC energy               -32.435255269860 Eh    ::
         :: -> dispersion             -0.017003644762 Eh    ::
         :: repulsion energy           0.502020057212 Eh    ::

    * Orbital Energies and Occupations

         #    Occupation            Energy/Eh            Energy/eV
      -------------------------------------------------------------
         1        2.0000           -0.8725702             -23.7438
       ...           ...                  ...                  ...
        17        2.0000           -0.6756393             -18.3851
        18        2.0000           -0.6687104             -18.1965
        19        2.0000           -0.6546334             -17.8135
        20        2.0000           -0.6371872             -17.3387
        21        2.0000           -0.6364144             -17.3177
        22        2.0000           -0.6146376             -16.7251
        23        2.0000           -0.6140843             -16.7101
        24        2.0000           -0.6087638             -16.5653
        25        2.0000           -0.6019819             -16.3808
        26        2.0000           -0.5991476             -16.3036
        27        2.0000           -0.5733489             -15.6016
        28        2.0000           -0.5547670             -15.0960
        29        2.0000           -0.5491424             -14.9429 (HOMO)
        30                         -0.4490632             -12.2196 (LUMO)
        31                         -0.4197693             -11.4225
        32                         -0.3520272              -9.5791
        33                         -0.3013421              -8.1999
        34                         -0.1595884              -4.3426
        35                         -0.0937128              -2.5501
        36                         -0.0719210              -1.9571
        37                         -0.0435649              -1.1855
        38                         -0.0402485              -1.0952
        39                         -0.0362709              -0.9870
        40                         -0.0193127              -0.5255
       ...                                ...                  ...
        56                          0.4820908              13.1184
      -------------------------------------------------------------
                  HL-Gap            0.1000792 Eh            2.7233 eV

     #   Z          covCN         q      C6AA      α(0)
     1   8 O        1.657    -0.419    21.230     6.220
     2   6 C        3.680     0.074    19.542     6.332
     3   6 C        2.973     0.059    26.670     8.471
     4   6 C        2.919    -0.016    28.402     8.739
     5   6 C        2.889     0.032    27.293     8.565
     6   7 N        2.751     0.102    19.493     6.557
     7   6 C        2.889     0.030    27.319     8.569
     8   6 C        2.918    -0.029    28.719     8.788
     9   6 C        3.761    -0.034    21.232     6.569
    10   6 C        2.887    -0.040    28.984     8.826
    11   6 C        2.837    -0.076    29.899     8.961
    12   1 H        0.805     0.316     0.673     1.289
    13   1 H        0.923     0.075     2.028     2.227
    14   1 H        0.923     0.075     2.029     2.228
    15   1 H        0.926     0.130     1.534     1.937
    16   1 H        0.926     0.109     1.705     2.042
    17   1 H        0.926     0.107     1.722     2.052
    18   1 H        0.926     0.098     1.800     2.098
    19   1 H        0.924     0.096     1.819     2.109
    20   1 H        0.924     0.096     1.826     2.113
    21   1 H        0.926     0.059     2.213     2.326
    22   1 H        0.926     0.084     1.935     2.175
    23   1 H        0.926     0.071     2.079     2.255

Wiberg/Mayer (AO) data.
largest (>0.10) Wiberg bond orders for each atom

     #   Z sym  total        # sym  WBO       # sym  WBO       # sym  WBO
 ---------------------------------------------------------------------------
     1   8 O    1.973 --     2 C    1.020    12 H    0.885
     2   6 C    3.966 --     3 C    1.034     1 O    1.020    13 H    0.931
                            14 H    0.931
     3   6 C    3.974 --     4 C    1.370     8 C    1.369     2 C    1.034
     4   6 C    3.977 --     5 C    1.483     3 C    1.370    15 H    0.950
     5   6 C    3.958 --     4 C    1.483     6 N    1.315    16 H    0.954
     6   7 N    3.756 --     5 C    1.315     7 C    1.309     9 C    0.956
     7   6 C    3.960 --     8 C    1.493     6 N    1.309    17 H    0.954
     8   6 C    3.985 --     7 C    1.493     3 C    1.369    18 H    0.960
     9   6 C    3.935 --    10 C    0.988    19 H    0.960     6 N    0.956
                            20 H    0.953
    10   6 C    3.978 --    11 C    1.987     9 C    0.988    21 H    0.963
    11   6 C    3.980 --    10 C    1.987    23 H    0.971    22 H    0.968
    12   1 H    0.899 --     1 O    0.885
    13   1 H    0.993 --     2 C    0.931
    14   1 H    0.993 --     2 C    0.931
    15   1 H    0.983 --     4 C    0.950
    16   1 H    0.988 --     5 C    0.954
    17   1 H    0.988 --     7 C    0.954
    18   1 H    0.990 --     8 C    0.960
    19   1 H    0.990 --     9 C    0.960
    20   1 H    0.990 --     9 C    0.953
    21   1 H    0.997 --    10 C    0.963
    22   1 H    0.992 --    11 C    0.968
    23   1 H    0.995 --    11 C    0.971
 ---------------------------------------------------------------------------

molecular dipole:
                 x           y           z       tot (Debye)
 q only:        2.232      -0.228      -7.599
   full:        2.233      -0.498      -7.483      19.888

           -------------------------------------------------
          | TOTAL ENERGY              -31.933235212648 Eh   |
          | GRADIENT NORM               0.000757759782 Eh/α |
          | HOMO-LUMO GAP               2.723293110489 eV   |
           -------------------------------------------------

 * finished run on 2024/12/20 at 07:02:36.698
