   * xtb version 6.7.1 (edcfbbe) compiled by 'conda@3ef47c1a292c' on 2024-11-25

   ID    Z sym.   atoms
    1    6 C      1, 3-11
    2    7 N      2
    3    1 H      12-33

          program call               : xtb C0887.xyz --opt --namespace C0887 --charge +1
          :  Hamiltonian                  GFN2-xTB          :
 * total energy  :   -35.1610714 Eh     change       -0.1274714E-09 Eh
 * total energy  :   -35.1676342 Eh     change       -0.6562808E-02 Eh
 * total energy  :   -35.1692361 Eh     change       -0.1601935E-02 Eh
 * total energy  :   -35.1693548 Eh     change       -0.1187374E-03 Eh
 * total energy  :   -35.1694543 Eh     change       -0.9943167E-04 Eh
 * total energy  :   -35.1694850 Eh     change       -0.3070463E-04 Eh
 * total energy  :   -35.1695173 Eh     change       -0.3234372E-04 Eh
 * total energy  :   -35.1695314 Eh     change       -0.1407296E-04 Eh
 * total energy  :   -35.1695465 Eh     change       -0.1512899E-04 Eh
 * total energy  :   -35.1695518 Eh     change       -0.5288768E-05 Eh
 * total energy  :   -35.1695555 Eh     change       -0.3717161E-05 Eh
   *** GEOMETRY OPTIMIZATION CONVERGED AFTER 11 ITERATIONS ***

 final structure:
================
33
 xtb: 6.7.1 (edcfbbe)
C            1.12104907646673        0.07871489028004       -0.09426795665588
N            0.54116519091413       -1.21646653110993       -0.50601066529606
C            0.96682480462158       -2.30780289046012        0.48078288253041
C            0.33822134776253       -2.12451238186463        1.87227991110703
C           -0.93978493017232       -2.91409902948825        2.18807115776547
C           -0.64928167481641       -4.30336324467643        2.75303704914795
C           -0.15462477259508       -5.29842111188325        1.70963095838264
C            1.06863968555126       -4.83001558380714        0.92531361583302
C            0.75953796264451       -3.71559719349565       -0.08821278780396
C           -0.92337910647878       -1.07898393456228       -0.58927291183435
C            1.05920930383238       -1.50573304256099       -1.85939725782353
H            0.77789497835961        0.37175329721850        0.89410467153644
H            0.82621964271786        0.85551018832659       -0.79756360989979
H            2.20756591067832        0.01621989849598       -0.08041356065758
H            2.04707728326008       -2.15825530151360        0.58589754490893
H            1.09033511710737       -2.42620249824590        2.60301008039407
H            0.15609219316539       -1.06778181969096        2.06434683856603
H           -1.59041100097690       -3.00694204279786        1.31975645797312
H           -1.49168149955176       -2.35612393383913        2.94654891947336
H           -1.56412315127756       -4.69898649248388        3.19594099932084
H            0.08685770194812       -4.21599164843099        3.55428921120595
H           -0.96100641814286       -5.52360024189712        1.00808330945413
H            0.09771903972952       -6.22931933569915        2.21833620335949
H            1.44927171120763       -5.68595578365816        0.36648287895474
H            1.85836772159573       -4.51600433038027        1.60777357138533
H           -0.26350352897557       -3.85342931522292       -0.43779707552246
H            1.42835404918430       -3.85669501385035       -0.93672517586559
H           -1.17956332398294       -0.31015301915287       -1.31647269933376
H           -1.37268196722294       -2.01584473520937       -0.90943248249898
H           -1.33863287227011       -0.79737035498503        0.37446548496886
H            0.89132531891684       -0.64534567367006       -2.50550078896717
H            2.12874436289860       -1.70395039991392       -1.82068573274558
H            0.55105184390109       -2.36088138977106       -2.29670904136304

          :  Hamiltonian                  GFN2-xTB          :
         :: total energy             -35.169555532104 Eh    ::
         :: gradient norm              0.000329565534 Eh/a0 ::
         :: HOMO-LUMO gap              7.933496961588 eV    ::
         :: SCC energy               -35.669075717392 Eh    ::
         :: -> dispersion             -0.026248271736 Eh    ::
         :: repulsion energy           0.499520185288 Eh    ::

    * Orbital Energies and Occupations

         #    Occupation            Energy/Eh            Energy/eV
      -------------------------------------------------------------
         1        2.0000           -0.8625380             -23.4709
       ...           ...                  ...                  ...
        21        2.0000           -0.6415284             -17.4569
        22        2.0000           -0.6389865             -17.3877
        23        2.0000           -0.6271628             -17.0660
        24        2.0000           -0.6129741             -16.6799
        25        2.0000           -0.6097917             -16.5933
        26        2.0000           -0.6011538             -16.3582
        27        2.0000           -0.5936163             -16.1531
        28        2.0000           -0.5785005             -15.7418
        29        2.0000           -0.5717170             -15.5572
        30        2.0000           -0.5575896             -15.1728
        31        2.0000           -0.5399640             -14.6932
        32        2.0000           -0.5372923             -14.6205
        33        2.0000           -0.5353697             -14.5682 (HOMO)
        34                         -0.2438191              -6.6347 (LUMO)
        35                         -0.1673727              -4.5544
        36                         -0.1532068              -4.1690
        37                         -0.1424853              -3.8772
        38                         -0.0804598              -2.1894
        39                         -0.0778494              -2.1184
        40                         -0.0567744              -1.5449
        41                         -0.0463266              -1.2606
        42                         -0.0357903              -0.9739
        43                         -0.0282575              -0.7689
        44                         -0.0127154              -0.3460
       ...                                ...                  ...
        66                          0.2007208               5.4619
      -------------------------------------------------------------
                  HL-Gap            0.2915506 Eh            7.9335 eV

     #   Z          covCN         q      C6AA      α(0)
     1   6 C        3.727    -0.094    22.392     6.756
     2   7 N        3.618     0.127    19.077     6.487
     3   6 C        3.791     0.009    20.436     6.438
     4   6 C        3.801    -0.074    21.920     6.666
     5   6 C        3.800    -0.065    21.753     6.641
     6   6 C        3.802    -0.066    21.764     6.642
     7   6 C        3.802    -0.065    21.750     6.640
     8   6 C        3.801    -0.062    21.692     6.631
     9   6 C        3.801    -0.072    21.870     6.658
    10   6 C        3.719    -0.091    22.369     6.755
    11   6 C        3.727    -0.094    22.408     6.758
    12   1 H        0.925     0.098     1.803     2.100
    13   1 H        0.925     0.096     1.819     2.109
    14   1 H        0.925     0.096     1.822     2.111
    15   1 H        0.924     0.068     2.107     2.270
    16   1 H        0.924     0.075     2.036     2.232
    17   1 H        0.925     0.043     2.410     2.427
    18   1 H        0.925     0.042     2.417     2.431
    19   1 H        0.924     0.048     2.342     2.393
    20   1 H        0.924     0.051     2.310     2.377
    21   1 H        0.924     0.044     2.398     2.422
    22   1 H        0.924     0.041     2.439     2.442
    23   1 H        0.924     0.053     2.288     2.365
    24   1 H        0.924     0.054     2.267     2.355
    25   1 H        0.925     0.048     2.341     2.393
    26   1 H        0.925     0.055     2.259     2.351
    27   1 H        0.925     0.049     2.335     2.390
    28   1 H        0.925     0.093     1.846     2.124
    29   1 H        0.925     0.096     1.820     2.110
    30   1 H        0.925     0.104     1.747     2.067
    31   1 H        0.925     0.097     1.816     2.108
    32   1 H        0.925     0.095     1.827     2.114
    33   1 H        0.925     0.101     1.772     2.082

Wiberg/Mayer (AO) data.
largest (>0.10) Wiberg bond orders for each atom

     #   Z sym  total        # sym  WBO       # sym  WBO       # sym  WBO
 ---------------------------------------------------------------------------
     1   6 C    3.930 --    14 H    0.975    13 H    0.974    12 H    0.967
                             2 N    0.962
     2   7 N    3.804 --     1 C    0.962    10 C    0.961    11 C    0.960
                             3 C    0.882
     3   6 C    3.920 --     9 C    0.998     4 C    0.996    15 H    0.963
                             2 N    0.882
     4   6 C    3.986 --     5 C    1.003     3 C    0.996    16 H    0.964
                            17 H    0.963
     5   6 C    3.994 --     6 C    1.008     4 C    1.003    19 H    0.976
                            18 H    0.973
     6   6 C    3.994 --     7 C    1.010     5 C    1.008    21 H    0.975
                            20 H    0.974
     7   6 C    3.995 --     6 C    1.010     8 C    1.009    22 H    0.975
                            23 H    0.974
     8   6 C    3.990 --     7 C    1.009     9 C    0.994    24 H    0.975
                            25 H    0.975
     9   6 C    3.988 --     3 C    0.998     8 C    0.994    27 H    0.974
                            26 H    0.967
    10   6 C    3.929 --    28 H    0.974    29 H    0.971    30 H    0.971
                             2 N    0.961
    11   6 C    3.930 --    32 H    0.976    31 H    0.973    33 H    0.973
                             2 N    0.960
    12   1 H    0.990 --     1 C    0.967
    13   1 H    0.990 --     1 C    0.974
    14   1 H    0.991 --     1 C    0.975
    15   1 H    0.995 --     3 C    0.963
    16   1 H    0.994 --     4 C    0.964
    17   1 H    0.998 --     4 C    0.963
    18   1 H    0.998 --     5 C    0.973
    19   1 H    0.998 --     5 C    0.976
    20   1 H    0.997 --     6 C    0.974
    21   1 H    0.998 --     6 C    0.975
    22   1 H    0.998 --     7 C    0.975
    23   1 H    0.997 --     7 C    0.974
    24   1 H    0.997 --     8 C    0.975
    25   1 H    0.998 --     8 C    0.975
    26   1 H    0.997 --     9 C    0.967
    27   1 H    0.998 --     9 C    0.974
    28   1 H    0.991 --    10 C    0.974
    29   1 H    0.991 --    10 C    0.971
    30   1 H    0.989 --    10 C    0.971
    31   1 H    0.990 --    11 C    0.973
    32   1 H    0.991 --    11 C    0.976
    33   1 H    0.990 --    11 C    0.973
 ---------------------------------------------------------------------------

molecular dipole:
                 x           y           z       tot (Debye)
 q only:        0.866      -2.960      -0.454
   full:        0.933      -2.824      -0.539       7.683

           -------------------------------------------------
          | TOTAL ENERGY              -35.169555532104 Eh   |
          | GRADIENT NORM               0.000329565534 Eh/α |
          | HOMO-LUMO GAP               7.933496961588 eV   |
           -------------------------------------------------

 * finished run on 2024/12/20 at 07:02:37.393
