   * xtb version 6.7.1 (edcfbbe) compiled by 'conda@3ef47c1a292c' on 2024-11-25

   ID    Z sym.   atoms
    1    7 N      1-3, 5, 6, 8
    2    6 C      4, 7
    3    1 H      9-11

          program call               : xtb C0886.xyz --opt --namespace C0886 --charge +1
          :  Hamiltonian                  GFN2-xTB          :
 * total energy  :   -22.7326607 Eh     change       -0.1009148E-09 Eh
 * total energy  :   -22.7614949 Eh     change       -0.2883428E-01 Eh
 * total energy  :   -22.7702233 Eh     change       -0.8728362E-02 Eh
 * total energy  :   -22.7723442 Eh     change       -0.2120936E-02 Eh
 * total energy  :   -22.7775132 Eh     change       -0.5168943E-02 Eh
 * total energy  :   -22.7787648 Eh     change       -0.1251628E-02 Eh
 * total energy  :   -22.7798695 Eh     change       -0.1104674E-02 Eh
 * total energy  :   -22.7808925 Eh     change       -0.1023013E-02 Eh
 * total energy  :   -22.7813971 Eh     change       -0.5046475E-03 Eh
 * total energy  :   -22.7817255 Eh     change       -0.3284075E-03 Eh
 * total energy  :   -22.7819506 Eh     change       -0.2250955E-03 Eh
 * total energy  :   -22.7820226 Eh     change       -0.7194441E-04 Eh
 * total energy  :   -22.7821027 Eh     change       -0.8008838E-04 Eh
 * total energy  :   -22.7821336 Eh     change       -0.3092847E-04 Eh
 * total energy  :   -22.7821559 Eh     change       -0.2232816E-04 Eh
 * total energy  :   -22.7821652 Eh     change       -0.9230708E-05 Eh
 * total energy  :   -22.7821715 Eh     change       -0.6328841E-05 Eh
 * total energy  :   -22.7821748 Eh     change       -0.3324523E-05 Eh
 * total energy  :   -22.7821759 Eh     change       -0.1076634E-05 Eh
   *** GEOMETRY OPTIMIZATION CONVERGED AFTER 19 ITERATIONS ***

 final structure:
================
11
 xtb: 6.7.1 (edcfbbe)
N            1.24052581590506       -0.38482087248138       -0.28420397051826
N            2.16733517311838        0.09133075556392        0.09541658027856
N            3.17566800647269        0.71585764113429        0.30367526162503
C            3.99455470960545        0.78658477418949        1.32976997357578
N            3.92269951797488        0.15591190092095        2.46982936596478
N            5.03025887458679        0.57101308815634        3.23024315227601
C            5.74102127397727        1.55146363380568        2.30864550326432
N            5.11547517896367        1.64222444336293        1.23885535216967
H            5.61781430010098       -0.24097733261393        3.49280716778420
H            4.72089950933230        1.00105166103974        4.12085550191496
H            6.64239763996242        2.05138030692218        2.60615611166497

          :  Hamiltonian                  GFN2-xTB          :
         :: total energy             -22.782175883649 Eh    ::
         :: gradient norm              0.000544060964 Eh/a0 ::
         :: HOMO-LUMO gap              2.750140685361 eV    ::
         :: SCC energy               -23.092304425209 Eh    ::
         :: -> dispersion             -0.006966396186 Eh    ::
         :: repulsion energy           0.310128541560 Eh    ::

    * Orbital Energies and Occupations

         #    Occupation            Energy/Eh            Energy/eV
      -------------------------------------------------------------
         1        2.0000           -0.9551196             -25.9901
       ...           ...                  ...                  ...
         8        2.0000           -0.8359653             -22.7478
         9        2.0000           -0.8096776             -22.0324
        10        2.0000           -0.7928079             -21.5734
        11        2.0000           -0.7834509             -21.3188
        12        2.0000           -0.7756093             -21.1054
        13        2.0000           -0.7357922             -20.0219
        14        2.0000           -0.7262963             -19.7635
        15        2.0000           -0.6830069             -18.5856
        16        2.0000           -0.6556888             -17.8422
        17        2.0000           -0.6445202             -17.5383
        18        2.0000           -0.6318825             -17.1944
        19        2.0000           -0.6152066             -16.7406
        20        2.0000           -0.6094291             -16.5834 (HOMO)
        21                         -0.5083633             -13.8333 (LUMO)
        22                         -0.4442017             -12.0873
        23                         -0.4339844             -11.8093
        24                         -0.3524609              -9.5910
        25                         -0.2964457              -8.0667
        26                         -0.2512871              -6.8379
        27                         -0.1676337              -4.5615
        28                         -0.1626137              -4.4249
        29                         -0.1098260              -2.9885
        30                         -0.0027877              -0.0759
        31                          0.0609498               1.6585
       ...                                ...                  ...
        35                          0.9438440              25.6833
      -------------------------------------------------------------
                  HL-Gap            0.1010658 Eh            2.7501 eV

     #   Z          covCN         q      C6AA      α(0)
     1   7 N        0.992    -0.044    21.706     6.697
     2   7 N        1.983     0.363    16.145     5.959
     3   7 N        1.912    -0.081    23.561     7.197
     4   6 C        3.067     0.249    22.771     7.825
     5   7 N        1.935    -0.231    26.887     7.689
     6   7 N        3.712     0.056    20.253     6.684
     7   6 C        2.983     0.107    25.628     8.304
     8   7 N        1.861    -0.115    24.281     7.304
     9   1 H        0.858     0.272     0.804     1.405
    10   1 H        0.858     0.272     0.804     1.405
    11   1 H        0.926     0.151     1.383     1.839

Wiberg/Mayer (AO) data.
largest (>0.10) Wiberg bond orders for each atom

     #   Z sym  total        # sym  WBO       # sym  WBO       # sym  WBO
 ---------------------------------------------------------------------------
     1   7 N    3.002 --     2 N    2.345     3 N    0.471     5 N    0.104
     2   7 N    3.855 --     1 N    2.345     3 N    1.471
     3   7 N    3.367 --     2 N    1.471     4 C    1.262     1 N    0.471
                             5 N    0.106
     4   6 C    3.967 --     5 N    1.525     3 N    1.262     8 N    1.036
     5   7 N    2.927 --     4 C    1.525     6 N    1.021     7 C    0.110
                             3 N    0.106     1 N    0.104
     6   7 N    3.768 --     5 N    1.021     9 H    0.878    10 H    0.878
                             7 C    0.875
     7   6 C    3.921 --     8 N    1.946    11 H    0.942     6 N    0.875
                             5 N    0.110
     8   7 N    3.157 --     7 C    1.946     4 C    1.036
     9   1 H    0.922 --     6 N    0.878
    10   1 H    0.922 --     6 N    0.878
    11   1 H    0.976 --     7 C    0.942
 ---------------------------------------------------------------------------

molecular dipole:
                 x           y           z       tot (Debye)
 q only:        8.862       1.282       4.787
   full:        9.379       1.331       5.427      27.748

           -------------------------------------------------
          | TOTAL ENERGY              -22.782175883649 Eh   |
          | GRADIENT NORM               0.000544060964 Eh/α |
          | HOMO-LUMO GAP               2.750140685361 eV   |
           -------------------------------------------------

 * finished run on 2024/12/20 at 07:02:36.849
