   * xtb version 6.7.1 (edcfbbe) compiled by 'conda@3ef47c1a292c' on 2024-11-25

   ID    Z sym.   atoms
    1    6 C      1-3, 5, 7, 8, 10-13
    2    8 O      4
    3    7 N      6, 9
    4    9 F      14-16
    5    1 H      17-30

          program call               : xtb C0892.xyz --opt --namespace C0892 --charge +1
          :  Hamiltonian                  GFN2-xTB          :
 * total energy  :   -52.2835091 Eh     change       -0.9897860E-10 Eh
 * total energy  :   -52.2902763 Eh     change       -0.6767200E-02 Eh
 * total energy  :   -52.2920286 Eh     change       -0.1752247E-02 Eh
 * total energy  :   -52.2925628 Eh     change       -0.5342599E-03 Eh
 * total energy  :   -52.2931793 Eh     change       -0.6164523E-03 Eh
 * total energy  :   -52.2936596 Eh     change       -0.4802926E-03 Eh
 * total energy  :   -52.2943804 Eh     change       -0.7208355E-03 Eh
 * total energy  :   -52.2952764 Eh     change       -0.8960083E-03 Eh
 * total energy  :   -52.2960476 Eh     change       -0.7711926E-03 Eh
 * total energy  :   -52.2953260 Eh     change        0.7215753E-03 Eh
 * total energy  :   -52.2985836 Eh     change       -0.1914114E-04 Eh
 * total energy  :   -52.2986152 Eh     change       -0.3160189E-04 Eh
 * total energy  :   -52.2986638 Eh     change       -0.4858029E-04 Eh
 * total energy  :   -52.2986922 Eh     change       -0.2845995E-04 Eh
 * total energy  :   -52.2987565 Eh     change       -0.6430045E-04 Eh
 * total energy  :   -52.2987765 Eh     change       -0.2000184E-04 Eh
 * total energy  :   -52.2987892 Eh     change       -0.1267677E-04 Eh
 * total energy  :   -52.2987979 Eh     change       -0.8699402E-05 Eh
 * total energy  :   -52.2988026 Eh     change       -0.4713127E-05 Eh
   *** GEOMETRY OPTIMIZATION CONVERGED AFTER 29 ITERATIONS ***

 final structure:
================
30
 xtb: 6.7.1 (edcfbbe)
C            0.26487062317375       -0.60447158532787        1.10570366937453
C            0.12133227635674       -0.74551724879287       -0.40555646936763
C            1.02271392383466       -1.73822668024484       -1.06231527161732
O            0.75155372283484       -2.36911594880415       -2.04772476905561
C            2.41666087044930       -1.93463479944380       -0.40814902232959
N            3.25367897474318       -2.64578948956913       -1.32843724279744
C            4.36152396140822       -2.16681970495733       -1.96394679000489
C            4.72358765090763       -3.08839267080295       -2.89519677935786
N            3.82040518691239       -4.10848526997570       -2.82755168667093
C            2.93622910813770       -3.81623611172850       -1.87463200534459
C            3.86232611181636       -5.33027994527792       -3.59788766215254
C            4.91187098531272       -6.30827151470193       -3.05273711321506
C            4.67586408061143       -6.62012487096727       -1.58004526501684
F            3.38329401176501       -6.87397774563309       -1.32413764611047
F            5.38760425153426       -7.65212406892168       -1.15848666601375
F            4.99598166475419       -5.56603429136078       -0.79818917849289
H            0.10988422723478       -1.55867664340902        1.60239606809071
H           -0.49247614368385        0.08444473598994        1.46839568834742
H            1.23509438232870       -0.20849884497974        1.39243023478336
H           -0.90564741977279       -1.00656067343059       -0.67020594103982
H            0.32933583306350        0.21870043588923       -0.88295470384125
H            2.86920322460274       -0.97429402211582       -0.16235258800915
H            2.27522164710958       -2.50862462110209        0.51218525806480
H            4.81373404649933       -1.22889954333249       -1.71325752145172
H            5.53833881422946       -3.08056543182497       -3.58995297752203
H            2.11580366298284       -4.44257903908417       -1.58143938943851
H            2.87198554176084       -5.79062481932808       -3.56520208500557
H            4.10458532775284       -5.08923702858706       -4.63534573696786
H            4.85633635770261       -7.24597242086439       -3.60768817982275
H            5.92310309364116       -5.90759013731308       -3.14527822801285

          :  Hamiltonian                  GFN2-xTB          :
         :: total energy             -52.298802626739 Eh    ::
         :: gradient norm              0.000944345759 Eh/a0 ::
         :: HOMO-LUMO gap              3.783913825370 eV    ::
         :: SCC energy               -52.845166058825 Eh    ::
         :: -> dispersion             -0.024460731005 Eh    ::
         :: repulsion energy           0.546363432086 Eh    ::

    * Orbital Energies and Occupations

         #    Occupation            Energy/Eh            Energy/eV
      -------------------------------------------------------------
         1        2.0000           -1.0057102             -27.3668
       ...           ...                  ...                  ...
        33        2.0000           -0.6558655             -17.8470
        34        2.0000           -0.6533913             -17.7797
        35        2.0000           -0.6501310             -17.6910
        36        2.0000           -0.6425830             -17.4856
        37        2.0000           -0.6342682             -17.2593
        38        2.0000           -0.6276965             -17.0805
        39        2.0000           -0.6234876             -16.9660
        40        2.0000           -0.6137372             -16.7006
        41        2.0000           -0.5986470             -16.2900
        42        2.0000           -0.5904683             -16.0675
        43        2.0000           -0.5839142             -15.8891
        44        2.0000           -0.5682727             -15.4635
        45        2.0000           -0.5470185             -14.8851 (HOMO)
        46                         -0.4079623             -11.1012 (LUMO)
        47                         -0.3992196             -10.8633
        48                         -0.3738586             -10.1732
        49                         -0.1918578              -5.2207
        50                         -0.1403998              -3.8205
        51                         -0.1187584              -3.2316
        52                         -0.0998338              -2.7166
        53                         -0.0916137              -2.4929
        54                         -0.0860384              -2.3412
        55                         -0.0596983              -1.6245
        56                         -0.0524867              -1.4282
       ...                                ...                  ...
        78                          0.4891389              13.3101
      -------------------------------------------------------------
                  HL-Gap            0.1390563 Eh            3.7839 eV

     #   Z          covCN         q      C6AA      α(0)
     1   6 C        3.751    -0.121    22.885     6.822
     2   6 C        3.802    -0.091    22.230     6.713
     3   6 C        2.811     0.240    23.000     7.857
     4   8 O        0.857    -0.335    20.428     6.060
     5   6 C        3.744    -0.057    21.674     6.641
     6   7 N        2.873     0.083    19.797     6.608
     7   6 C        3.067    -0.006    28.099     8.692
     8   6 C        3.065    -0.005    28.078     8.689
     9   7 N        2.871     0.064    20.115     6.661
    10   6 C        3.089     0.061    26.527     8.442
    11   6 C        3.742    -0.027    21.133     6.558
    12   6 C        3.804    -0.101    22.426     6.742
    13   6 C        3.329     0.487    17.358     6.613
    14   9 F        0.791    -0.203    11.271     3.966
    15   9 F        0.791    -0.174    10.972     3.913
    16   9 F        0.791    -0.218    11.421     3.992
    17   1 H        0.925     0.056     2.249     2.345
    18   1 H        0.925     0.077     2.014     2.219
    19   1 H        0.925     0.050     2.318     2.381
    20   1 H        0.924     0.099     1.793     2.094
    21   1 H        0.924     0.101     1.774     2.083
    22   1 H        0.925     0.110     1.695     2.036
    23   1 H        0.924     0.118     1.632     1.998
    24   1 H        0.926     0.110     1.700     2.039
    25   1 H        0.926     0.110     1.698     2.038
    26   1 H        0.926     0.132     1.521     1.929
    27   1 H        0.924     0.109     1.706     2.042
    28   1 H        0.924     0.110     1.693     2.034
    29   1 H        0.924     0.118     1.629     1.996
    30   1 H        0.924     0.103     1.755     2.071

Wiberg/Mayer (AO) data.
largest (>0.10) Wiberg bond orders for each atom

     #   Z sym  total        # sym  WBO       # sym  WBO       # sym  WBO
 ---------------------------------------------------------------------------
     1   6 C    3.987 --     2 C    1.009    17 H    0.985    19 H    0.985
                            18 H    0.981
     2   6 C    3.985 --     3 C    1.017     1 C    1.009    20 H    0.953
                            21 H    0.917
     3   6 C    3.916 --     4 O    1.872     2 C    1.017     5 C    0.928
     4   8 O    2.125 --     3 C    1.872
     5   6 C    3.945 --     6 N    0.995    22 H    0.954    23 H    0.934
                             3 C    0.928
     6   7 N    3.718 --    10 C    1.359     7 C    1.211     5 C    0.995
     7   6 C    3.947 --     8 C    1.606     6 N    1.211    24 H    0.961
     8   6 C    3.948 --     7 C    1.606     9 N    1.214    25 H    0.961
     9   7 N    3.704 --    10 C    1.350     8 C    1.214    11 C    0.980
    10   6 C    3.944 --     6 N    1.359     9 N    1.350    26 H    0.950
    11   6 C    3.946 --    12 C    0.995     9 N    0.980    27 H    0.963
                            28 H    0.959
    12   6 C    3.976 --    11 C    0.995    30 H    0.964    29 H    0.958
                            13 C    0.958
    13   6 C    3.840 --    15 F    0.981    12 C    0.958    14 F    0.947
                            16 F    0.932
    14   9 F    1.074 --    13 C    0.947
    15   9 F    1.109 --    13 C    0.981
    16   9 F    1.057 --    13 C    0.932
    17   1 H    0.997 --     1 C    0.985
    18   1 H    0.993 --     1 C    0.981
    19   1 H    0.997 --     1 C    0.985
    20   1 H    0.989 --     2 C    0.953
    21   1 H    0.990 --     2 C    0.917
    22   1 H    0.987 --     5 C    0.954
    23   1 H    0.986 --     5 C    0.934
    24   1 H    0.988 --     7 C    0.961
    25   1 H    0.988 --     8 C    0.961
    26   1 H    0.983 --    10 C    0.950
    27   1 H    0.988 --    11 C    0.963
    28   1 H    0.987 --    11 C    0.959
    29   1 H    0.985 --    12 C    0.958
    30   1 H    0.989 --    12 C    0.964
 ---------------------------------------------------------------------------

molecular dipole:
                 x           y           z       tot (Debye)
 q only:        6.324      -5.387      -3.829
   full:        6.407      -5.355      -3.783      23.301

           -------------------------------------------------
          | TOTAL ENERGY              -52.298802626739 Eh   |
          | GRADIENT NORM               0.000944345759 Eh/α |
          | HOMO-LUMO GAP               3.783913825370 eV   |
           -------------------------------------------------

 * finished run on 2024/12/20 at 07:02:41.020
