   * xtb version 6.7.1 (edcfbbe) compiled by 'conda@3ef47c1a292c' on 2024-11-25

   ID    Z sym.   atoms
    1    6 C      1, 2, 4-10, 12, 14, 15, 17, 18
    2    8 O      3, 11
    3    7 N      13, 16
    4    1 H      19-35

          program call               : xtb C0896.xyz --opt --namespace C0896 --charge +1
          :  Hamiltonian                  GFN2-xTB          :
 * total energy  :   -52.2134971 Eh     change       -0.4189715E-09 Eh
 * total energy  :   -52.2206305 Eh     change       -0.7133341E-02 Eh
 * total energy  :   -52.2224483 Eh     change       -0.1817793E-02 Eh
 * total energy  :   -52.2229562 Eh     change       -0.5079345E-03 Eh
 * total energy  :   -52.2233844 Eh     change       -0.4281855E-03 Eh
 * total energy  :   -52.2236816 Eh     change       -0.2972161E-03 Eh
 * total energy  :   -52.2240541 Eh     change       -0.3725075E-03 Eh
 * total energy  :   -52.2245587 Eh     change       -0.5046076E-03 Eh
 * total energy  :   -52.2252157 Eh     change       -0.6570029E-03 Eh
 * total energy  :   -52.2260373 Eh     change       -0.8216240E-03 Eh
 * total energy  :   -52.2471359 Eh     change       -0.1716565E-04 Eh
 * total energy  :   -52.2471541 Eh     change       -0.1815953E-04 Eh
 * total energy  :   -52.2471712 Eh     change       -0.1717620E-04 Eh
 * total energy  :   -52.2471872 Eh     change       -0.1595106E-04 Eh
 * total energy  :   -52.2472022 Eh     change       -0.1504155E-04 Eh
 * total energy  :   -52.2472148 Eh     change       -0.1256434E-04 Eh
 * total energy  :   -52.2472225 Eh     change       -0.7735208E-05 Eh
 * total energy  :   -52.2472256 Eh     change       -0.3056212E-05 Eh
 * total energy  :   -52.2472294 Eh     change       -0.3811430E-05 Eh
   *** GEOMETRY OPTIMIZATION CONVERGED AFTER 171 ITERATIONS ***

 final structure:
================
35
 xtb: 6.7.1 (edcfbbe)
C           -1.37345863248131        2.41737107972103       -2.99195782725148
C           -0.81131181974298        1.03881031093069       -3.31768575491106
O            0.10258963594752        0.57854471534666       -2.33028412486884
C            1.35907743861668        1.05704105703308       -2.28385899481226
C            1.93720452772762        1.94031621328172       -3.20076974838333
C            3.25585508237921        2.33675273633560       -3.05092288486512
C            4.01937790177290        1.87544331530078       -1.99952851430908
C            3.45471333600459        0.99518787330043       -1.06618702828673
C            2.12918948952577        0.59164658359418       -1.21684377861065
C            4.30372454804482        0.53985973723030        0.02651182462764
O            5.48863318403011        0.76005384117787        0.12554795111886
C            3.62007517165381       -0.30012394796359        1.14784716826167
N            4.53078822840118       -0.39172257796128        2.24917118806918
C            4.38655811645921        0.18068952565377        3.47841581677322
C            5.57166285686312        0.04002474451922        4.13074892487442
N            6.42758188267400       -0.60153374477655        3.28594811001010
C            5.78062992545065       -0.84496105666567        2.15011309640690
C            7.79245948471362       -0.94023617909047        3.58393898045760
H           -1.86429713005092        2.39686171245888       -2.02224504111645
H           -2.10174112060789        2.69926463153858       -3.74643217021752
H           -0.58803005224510        3.16917497963463       -2.96400359969762
H           -1.61291534094712        0.29650825784370       -3.30158445232857
H           -0.34588292301514        1.02228270412614       -4.30926603057090
H            1.37095293665196        2.31814185362283       -4.03649620212750
H            3.68680768536090        3.01601421143556       -3.76969818277313
H            5.04542461147399        2.18182384340016       -1.87474545034864
H            1.65361591399602       -0.10009331841118       -0.54117332111187
H            2.69652714906125        0.17316109122431        1.47784376602761
H            3.40099637402096       -1.29080926141838        0.74105095952243
H            3.47184872870972        0.63433670671669        3.80047186635650
H            5.85747939249151        0.34931795657026        5.11531603314102
H            6.19480821676741       -1.34354902844593        1.29608821389863
H            8.26336638009410       -1.37888438448254        2.70733209964780
H            8.34366686751816       -0.04470408433949        3.87214085568703
H            7.83291195274423       -1.65367209840216        4.40822625162065

          :  Hamiltonian                  GFN2-xTB          :
         :: total energy             -52.247229407247 Eh    ::
         :: gradient norm              0.000897203376 Eh/a0 ::
         :: HOMO-LUMO gap              2.181274696889 eV    ::
         :: SCC energy               -53.012628756094 Eh    ::
         :: -> dispersion             -0.030775623117 Eh    ::
         :: repulsion energy           0.765399348847 Eh    ::

    * Orbital Energies and Occupations

         #    Occupation            Energy/Eh            Energy/eV
      -------------------------------------------------------------
         1        2.0000           -0.8822730             -24.0079
       ...           ...                  ...                  ...
        35        2.0000           -0.5905408             -16.0694
        36        2.0000           -0.5892218             -16.0335
        37        2.0000           -0.5868630             -15.9694
        38        2.0000           -0.5765239             -15.6880
        39        2.0000           -0.5730019             -15.5922
        40        2.0000           -0.5553217             -15.1111
        41        2.0000           -0.5491308             -14.9426
        42        2.0000           -0.5454446             -14.8423
        43        2.0000           -0.5421105             -14.7516
        44        2.0000           -0.5281608             -14.3720
        45        2.0000           -0.5225292             -14.2187
        46        2.0000           -0.5200910             -14.1524
        47        2.0000           -0.4851508             -13.2016 (HOMO)
        48                         -0.4049904             -11.0203 (LUMO)
        49                         -0.3913775             -10.6499
        50                         -0.3592046              -9.7745
        51                         -0.3273348              -8.9072
        52                         -0.3038900              -8.2693
        53                         -0.1949691              -5.3054
        54                         -0.1682475              -4.5782
        55                         -0.1181408              -3.2148
        56                         -0.0809355              -2.2024
        57                         -0.0733841              -1.9969
        58                         -0.0399707              -1.0877
       ...                                ...                  ...
        89                          0.5596480              15.2288
      -------------------------------------------------------------
                  HL-Gap            0.0801604 Eh            2.1813 eV

     #   Z          covCN         q      C6AA      α(0)
     1   6 C        3.750    -0.119    22.852     6.818
     2   6 C        3.688     0.073    19.550     6.329
     3   8 O        1.706    -0.257    18.262     5.770
     4   6 C        2.856     0.161    24.524     8.117
     5   6 C        2.917    -0.047    29.175     8.857
     6   6 C        2.916    -0.021    28.542     8.761
     7   6 C        2.925    -0.025    28.616     8.773
     8   6 C        2.969    -0.017    28.427     8.746
     9   6 C        2.921    -0.059    29.459     8.901
    10   6 C        2.823     0.229    23.203     7.893
    11   8 O        0.857    -0.356    20.818     6.117
    12   6 C        3.744    -0.053    21.594     6.629
    13   7 N        2.872     0.074    19.959     6.635
    14   6 C        3.066    -0.008    28.154     8.701
    15   6 C        3.071    -0.009    28.166     8.702
    16   7 N        2.867     0.078    19.890     6.624
    17   6 C        3.094     0.057    26.606     8.454
    18   6 C        3.692    -0.086    22.324     6.761
    19   1 H        0.925     0.058     2.221     2.330
    20   1 H        0.925     0.059     2.211     2.325
    21   1 H        0.925     0.049     2.333     2.389
    22   1 H        0.924     0.068     2.111     2.272
    23   1 H        0.924     0.042     2.428     2.437
    24   1 H        0.926     0.067     2.123     2.279
    25   1 H        0.926     0.066     2.130     2.282
    26   1 H        0.926     0.073     2.055     2.242
    27   1 H        0.926     0.055     2.257     2.349
    28   1 H        0.925     0.103     1.759     2.074
    29   1 H        0.924     0.103     1.758     2.074
    30   1 H        0.926     0.103     1.754     2.071
    31   1 H        0.926     0.108     1.717     2.049
    32   1 H        0.926     0.122     1.594     1.974
    33   1 H        0.925     0.100     1.782     2.088
    34   1 H        0.924     0.107     1.722     2.052
    35   1 H        0.924     0.103     1.755     2.072

Wiberg/Mayer (AO) data.
largest (>0.10) Wiberg bond orders for each atom

     #   Z sym  total        # sym  WBO       # sym  WBO       # sym  WBO
 ---------------------------------------------------------------------------
     1   6 C    3.989 --     2 C    1.011    19 H    0.986    21 H    0.984
                            20 H    0.982
     2   6 C    3.931 --     1 C    1.011    22 H    0.969    23 H    0.967
                             3 O    0.950
     3   8 O    2.274 --     4 C    1.110     2 C    0.950
     4   6 C    3.946 --     9 C    1.361     5 C    1.336     3 O    1.110
     5   6 C    3.989 --     6 C    1.439     4 C    1.336    24 H    0.962
     6   6 C    3.989 --     7 C    1.457     5 C    1.439    25 H    0.967
     7   6 C    3.984 --     6 C    1.457     8 C    1.332    26 H    0.965
     8   6 C    3.981 --     9 C    1.372     7 C    1.332    10 C    1.084
     9   6 C    3.988 --     8 C    1.372     4 C    1.361    27 H    0.964
    10   6 C    3.930 --    11 O    1.804     8 C    1.084    12 C    0.917
    11   8 O    2.108 --    10 C    1.804
    12   6 C    3.945 --    13 N    0.996    28 H    0.957    29 H    0.942
                            10 C    0.917
    13   7 N    3.710 --    17 C    1.343    14 C    1.213    12 C    0.996
    14   6 C    3.947 --    15 C    1.601    13 N    1.213    30 H    0.962
    15   6 C    3.948 --    14 C    1.601    16 N    1.220    31 H    0.962
    16   7 N    3.717 --    17 C    1.360    15 C    1.220    18 C    0.991
    17   6 C    3.945 --    16 N    1.360    13 N    1.343    32 H    0.952
    18   6 C    3.935 --    16 N    0.991    33 H    0.976    34 H    0.963
                            35 H    0.963
    19   1 H    0.997 --     1 C    0.986
    20   1 H    0.996 --     1 C    0.982
    21   1 H    0.998 --     1 C    0.984
    22   1 H    0.995 --     2 C    0.969
    23   1 H    0.998 --     2 C    0.967
    24   1 H    0.995 --     5 C    0.962
    25   1 H    0.995 --     6 C    0.967
    26   1 H    0.995 --     7 C    0.965
    27   1 H    0.997 --     9 C    0.964
    28   1 H    0.989 --    12 C    0.957
    29   1 H    0.988 --    12 C    0.942
    30   1 H    0.989 --    14 C    0.962
    31   1 H    0.988 --    15 C    0.962
    32   1 H    0.985 --    17 C    0.952
    33   1 H    0.990 --    18 C    0.976
    34   1 H    0.988 --    18 C    0.963
    35   1 H    0.988 --    18 C    0.963
 ---------------------------------------------------------------------------

molecular dipole:
                 x           y           z       tot (Debye)
 q only:        8.357      -0.142       3.173
   full:        8.205      -0.204       3.067      22.271

           -------------------------------------------------
          | TOTAL ENERGY              -52.247229407247 Eh   |
          | GRADIENT NORM               0.000897203376 Eh/α |
          | HOMO-LUMO GAP               2.181274696889 eV   |
           -------------------------------------------------

 * finished run on 2024/12/20 at 07:02:45.835
