   * xtb version 6.7.1 (edcfbbe) compiled by 'conda@3ef47c1a292c' on 2024-11-25

   ID    Z sym.   atoms
    1    6 C      1-4, 6-9, 11-17
    2    7 N      5, 10
    3    1 H      18-38

          program call               : xtb C0890.xyz --opt --namespace C0890 --charge +1
          :  Hamiltonian                  GFN2-xTB          :
 * total energy  :   -48.2812731 Eh     change       -0.1100958E-08 Eh
 * total energy  :   -48.3008427 Eh     change       -0.1956961E-01 Eh
 * total energy  :   -48.3046498 Eh     change       -0.3807159E-02 Eh
 * total energy  :   -48.3053330 Eh     change       -0.6831937E-03 Eh
 * total energy  :   -48.3059009 Eh     change       -0.5678582E-03 Eh
 * total energy  :   -48.3061530 Eh     change       -0.2520791E-03 Eh
 * total energy  :   -48.3063908 Eh     change       -0.2377990E-03 Eh
 * total energy  :   -48.3065914 Eh     change       -0.2006616E-03 Eh
 * total energy  :   -48.3067622 Eh     change       -0.1707995E-03 Eh
 * total energy  :   -48.3069110 Eh     change       -0.1487480E-03 Eh
 * total energy  :   -48.3069972 Eh     change       -0.8625478E-04 Eh
 * total energy  :   -48.3070287 Eh     change       -0.3150030E-04 Eh
 * total energy  :   -48.3070447 Eh     change       -0.1595660E-04 Eh
 * total energy  :   -48.3070465 Eh     change       -0.1804933E-05 Eh
 * total energy  :   -48.3070555 Eh     change       -0.8973602E-05 Eh
 * total energy  :   -48.3070575 Eh     change       -0.2048426E-05 Eh
 * total energy  :   -48.3070598 Eh     change       -0.2247193E-05 Eh
   *** GEOMETRY OPTIMIZATION CONVERGED AFTER 17 ITERATIONS ***

 final structure:
================
38
 xtb: 6.7.1 (edcfbbe)
C            1.46618076929937       -0.25151513545576       -0.88964409520621
C            0.65347092540575       -1.50169449515838       -1.20619994278533
C            0.97439781063537       -2.66929995958957       -0.27134309889453
C            0.37579724311837       -2.52064398531225        1.13303638610244
N           -1.06689017851496       -2.55819758184240        1.12008753340392
C           -1.93840258869169       -1.54283570001314        1.23966581646677
C           -1.54929442877576       -0.14632218580040        1.53200129262085
C           -3.21474163688450       -2.06399169650285        1.07039684402986
C           -3.07243993030201       -3.42490770404058        0.84385856882949
N           -1.75684662137580       -3.69814833381079        0.87706878056687
C           -1.15016117875298       -4.97906337042466        0.75074766896377
C           -0.60190395687159       -5.59221641482371        1.87020071454906
C           -0.02569643148523       -6.84422275129230        1.74059072383376
C           -0.00408062576353       -7.47632663834617        0.50800959468695
C           -0.56483124700567       -6.86370310769216       -0.60136852765692
C           -1.14136606491461       -5.61089696419089       -0.48622819502586
C           -4.10140534854559       -4.46002169985860        0.61320983966811
H            1.30042433942706        0.09913604555952        0.12640390479641
H            1.20067163786920        0.55109238451553       -1.57215392125139
H            2.52734011525900       -0.45474274649439       -1.00608715988731
H           -0.41591161963058       -1.27802429863537       -1.17174524519535
H            0.88282235925258       -1.81005171762469       -2.22680702028107
H            0.62135224609020       -3.60300035131480       -0.71249252738532
H            2.05610807854637       -2.75026694166825       -0.16012491890429
H            0.74241604017264       -3.32956301856025        1.76993609184787
H            0.67673782382361       -1.57021264455726        1.57244225810670
H           -0.94413785582694       -0.09105170704618        2.43610948158164
H           -0.97710200579865        0.28437237240219        0.71191349346180
H           -2.44241813003688        0.45400676982300        1.67785327855515
H           -4.13490054471206       -1.51947691095253        1.11266913584400
H           -0.64236419850466       -5.10389504878814        2.83254955475367
H            0.40084396181157       -7.32637607064748        2.60550620771999
H            0.44559667398274       -8.45174997441915        0.41296042611976
H           -0.55470642942234       -7.36015452052297       -1.55816712521055
H           -1.57959912781487       -5.12398124729577       -1.34408299597158
H           -4.28586504762521       -4.58203739758092       -0.45419081861948
H           -3.78509188989703       -5.42079895705748        1.01262699894488
H           -5.03613293753988       -4.16268629497994        1.07976099682148

          :  Hamiltonian                  GFN2-xTB          :
         :: total energy             -48.307059772790 Eh    ::
         :: gradient norm              0.000640467969 Eh/a0 ::
         :: HOMO-LUMO gap              3.921214876841 eV    ::
         :: SCC energy               -49.112546534261 Eh    ::
         :: -> dispersion             -0.037096462141 Eh    ::
         :: repulsion energy           0.805486761471 Eh    ::

    * Orbital Energies and Occupations

         #    Occupation            Energy/Eh            Energy/eV
      -------------------------------------------------------------
         1        2.0000           -0.8774937             -23.8778
       ...           ...                  ...                  ...
        33        2.0000           -0.6065013             -16.5037
        34        2.0000           -0.5988975             -16.2968
        35        2.0000           -0.5938160             -16.1586
        36        2.0000           -0.5878383             -15.9959
        37        2.0000           -0.5690295             -15.4841
        38        2.0000           -0.5645622             -15.3625
        39        2.0000           -0.5605873             -15.2544
        40        2.0000           -0.5593485             -15.2206
        41        2.0000           -0.5532334             -15.0542
        42        2.0000           -0.5501827             -14.9712
        43        2.0000           -0.5451473             -14.8342
        44        2.0000           -0.5438837             -14.7998
        45        2.0000           -0.5410974             -14.7240 (HOMO)
        46                         -0.3969954             -10.8028 (LUMO)
        47                         -0.3675191             -10.0007
        48                         -0.3628222              -9.8729
        49                         -0.3215423              -8.7496
        50                         -0.2385256              -6.4906
        51                         -0.2011816              -5.4744
        52                         -0.1217436              -3.3128
        53                         -0.0598862              -1.6296
        54                         -0.0489216              -1.3312
        55                         -0.0363947              -0.9903
        56                         -0.0195547              -0.5321
       ...                                ...                  ...
        89                          0.5326304              14.4936
      -------------------------------------------------------------
                  HL-Gap            0.1441020 Eh            3.9212 eV

     #   Z          covCN         q      C6AA      α(0)
     1   6 C        3.752    -0.113    22.725     6.798
     2   6 C        3.800    -0.059    21.630     6.622
     3   6 C        3.802    -0.071    21.852     6.655
     4   6 C        3.738    -0.025    21.110     6.556
     5   7 N        2.951     0.064    20.116     6.661
     6   6 C        3.060     0.064    26.503     8.442
     7   6 C        3.755    -0.129    23.034     6.843
     8   6 C        3.039    -0.080    29.968     8.979
     9   6 C        3.055     0.065    26.490     8.441
    10   7 N        2.969     0.060    20.197     6.675
    11   6 C        2.915     0.041    27.078     8.533
    12   6 C        2.920    -0.036    28.905     8.816
    13   6 C        2.921    -0.018    28.465     8.749
    14   6 C        2.919    -0.016    28.403     8.740
    15   6 C        2.921    -0.018    28.461     8.749
    16   6 C        2.920    -0.034    28.849     8.808
    17   6 C        3.755    -0.126    22.983     6.836
    18   1 H        0.925     0.034     2.533     2.489
    19   1 H        0.925     0.052     2.299     2.371
    20   1 H        0.925     0.051     2.308     2.376
    21   1 H        0.924     0.029     2.604     2.523
    22   1 H        0.924     0.054     2.276     2.359
    23   1 H        0.924     0.045     2.383     2.414
    24   1 H        0.924     0.070     2.090     2.261
    25   1 H        0.924     0.075     2.035     2.231
    26   1 H        0.925     0.093     1.848     2.126
    27   1 H        0.925     0.081     1.968     2.194
    28   1 H        0.925     0.094     1.844     2.123
    29   1 H        0.925     0.089     1.890     2.150
    30   1 H        0.927     0.087     1.911     2.162
    31   1 H        0.926     0.052     2.290     2.367
    32   1 H        0.926     0.069     2.093     2.262
    33   1 H        0.926     0.072     2.066     2.247
    34   1 H        0.926     0.070     2.086     2.259
    35   1 H        0.926     0.057     2.238     2.340
    36   1 H        0.925     0.092     1.861     2.133
    37   1 H        0.925     0.077     2.010     2.217
    38   1 H        0.925     0.091     1.869     2.138

Wiberg/Mayer (AO) data.
largest (>0.10) Wiberg bond orders for each atom

     #   Z sym  total        # sym  WBO       # sym  WBO       # sym  WBO
 ---------------------------------------------------------------------------
     1   6 C    3.993 --     2 C    1.021    20 H    0.986    19 H    0.985
                            18 H    0.982
     2   6 C    3.995 --     1 C    1.021     3 C    1.007    21 H    0.976
                            22 H    0.975
     3   6 C    3.986 --     2 C    1.007     4 C    0.986    23 H    0.972
                            24 H    0.968
     4   6 C    3.942 --     3 C    0.986     5 N    0.972    25 H    0.959
                            26 H    0.957
     5   7 N    3.635 --     6 C    1.301    10 N    1.090     4 C    0.972
                             9 C    0.110
     6   6 C    3.953 --     8 C    1.410     5 N    1.301     7 C    1.044
                            10 N    0.108
     7   6 C    3.982 --     6 C    1.044    29 H    0.975    27 H    0.957
                            28 H    0.950
     8   6 C    3.972 --     9 C    1.416     6 C    1.410    30 H    0.967
     9   6 C    3.955 --     8 C    1.416    10 N    1.290    17 C    1.046
                             5 N    0.110
    10   7 N    3.632 --     9 C    1.290     5 N    1.090    11 C    0.967
                             6 C    0.108
    11   6 C    3.937 --    12 C    1.396    16 C    1.394    10 N    0.967
                            14 C    0.106
    12   6 C    3.989 --    13 C    1.440    11 C    1.396    31 H    0.967
                            15 C    0.109
    13   6 C    3.987 --    12 C    1.440    14 C    1.439    32 H    0.967
                            16 C    0.109
    14   6 C    3.985 --    13 C    1.439    15 C    1.437    33 H    0.967
                            11 C    0.106
    15   6 C    3.987 --    16 C    1.442    14 C    1.437    34 H    0.967
                            12 C    0.109
    16   6 C    3.988 --    15 C    1.442    11 C    1.394    35 H    0.967
                            13 C    0.109
    17   6 C    3.983 --     9 C    1.046    38 H    0.970    37 H    0.970
                            36 H    0.947
    18   1 H    0.999 --     1 C    0.982
    19   1 H    0.997 --     1 C    0.985
    20   1 H    0.997 --     1 C    0.986
    21   1 H    0.999 --     2 C    0.976
    22   1 H    0.997 --     2 C    0.975
    23   1 H    0.998 --     3 C    0.972
    24   1 H    0.995 --     3 C    0.968
    25   1 H    0.994 --     4 C    0.959
    26   1 H    0.990 --     4 C    0.957
    27   1 H    0.993 --     7 C    0.957
    28   1 H    0.990 --     7 C    0.950
    29   1 H    0.991 --     7 C    0.975
    30   1 H    0.991 --     8 C    0.967
    31   1 H    0.997 --    12 C    0.967
    32   1 H    0.994 --    13 C    0.967
    33   1 H    0.995 --    14 C    0.967
    34   1 H    0.994 --    15 C    0.967
    35   1 H    0.997 --    16 C    0.967
    36   1 H    0.991 --    17 C    0.947
    37   1 H    0.994 --    17 C    0.970
    38   1 H    0.991 --    17 C    0.970
 ---------------------------------------------------------------------------

molecular dipole:
                 x           y           z       tot (Debye)
 q only:       -2.285      -6.393       1.478
   full:       -2.305      -6.414       1.552      17.766

           -------------------------------------------------
          | TOTAL ENERGY              -48.307059772790 Eh   |
          | GRADIENT NORM               0.000640467969 Eh/α |
          | HOMO-LUMO GAP               3.921214876841 eV   |
           -------------------------------------------------

 * finished run on 2024/12/20 at 07:02:39.058
