   * xtb version 6.7.1 (edcfbbe) compiled by 'conda@3ef47c1a292c' on 2024-11-25

   ID    Z sym.   atoms
    1    6 C      1, 2, 4-6, 10, 11, 13, 15-17
    2    7 N      3, 12, 14, 18
    3    9 F      7-9
    4    1 H      19-32

          program call               : xtb C0899.xyz --opt --namespace C0899 --charge +1
          :  Hamiltonian                  GFN2-xTB          :
 * total energy  :   -56.2142612 Eh     change       -0.3146639E-09 Eh
 * total energy  :   -56.2228290 Eh     change       -0.8567792E-02 Eh
 * total energy  :   -56.2246922 Eh     change       -0.1863196E-02 Eh
 * total energy  :   -56.2250432 Eh     change       -0.3509352E-03 Eh
 * total energy  :   -56.2254638 Eh     change       -0.4206413E-03 Eh
 * total energy  :   -56.2256936 Eh     change       -0.2298354E-03 Eh
 * total energy  :   -56.2258988 Eh     change       -0.2051367E-03 Eh
 * total energy  :   -56.2261403 Eh     change       -0.2415398E-03 Eh
 * total energy  :   -56.2263619 Eh     change       -0.2215434E-03 Eh
 * total energy  :   -56.2265327 Eh     change       -0.1708012E-03 Eh
 * total energy  :   -56.2313257 Eh     change       -0.4504343E-04 Eh
 * total energy  :   -56.2313417 Eh     change       -0.1603080E-04 Eh
 * total energy  :   -56.2313577 Eh     change       -0.1596432E-04 Eh
 * total energy  :   -56.2313729 Eh     change       -0.1515148E-04 Eh
 * total energy  :   -56.2313823 Eh     change       -0.9391115E-05 Eh
 * total energy  :   -56.2313906 Eh     change       -0.8343987E-05 Eh
 * total energy  :   -56.2313955 Eh     change       -0.4898800E-05 Eh
 * total energy  :   -56.2314020 Eh     change       -0.6550389E-05 Eh
 * total energy  :   -56.2314055 Eh     change       -0.3439290E-05 Eh
   *** GEOMETRY OPTIMIZATION CONVERGED AFTER 94 ITERATIONS ***

 final structure:
================
32
 xtb: 6.7.1 (edcfbbe)
C            0.29062176892793       -0.49040886670978        0.47278245496702
C            0.39048956635894        0.47310011550712       -0.63219010823631
N           -0.06369912250102        0.34757703590863       -1.88635010352672
C           -0.66561035223158       -0.81598840799866       -2.49933857142511
C            0.33629414934557       -1.58200104722193       -3.37327606060251
C            1.51904393778535       -2.10374470511812       -2.56859383670242
F            1.12381345379391       -2.78743188787310       -1.48557152330157
F            2.30614870262459       -2.89096115950579       -3.28578455175183
F            2.28533534738258       -1.09314521011820       -2.10095502662661
C            0.22112686760685        1.49886715107232       -2.57573846184144
C            0.85676550434579        2.33425674742090       -1.72185239346547
N            0.96199596229579        1.68197069050318       -0.52383634839947
C            1.55502136832113        2.23172814749252        0.68843266270007
N            0.55193948039719        2.75141574345346        1.56155684391402
C            0.26846988173313        4.04442862639598        1.86206124629739
C           -0.78371420722175        4.02602234068619        2.73866466116883
C           -1.08501162065600        2.66409577083922        2.91046773979917
N           -0.27836635503601        1.91014334719466        2.19809242420541
H           -0.41342122771456       -1.28761257804486        0.25927720803738
H           -0.02631906650674        0.04221101594403        1.37735515917037
H            1.26122658754111       -0.94776800740111        0.66986562471599
H           -1.05684526257449       -1.47348076645684       -1.72079050393519
H           -1.49720629460060       -0.48578298430498       -3.12640916635563
H           -0.16075476009333       -2.44323375242449       -3.82300698633608
H            0.73416551047884       -0.95283804945205       -4.17184411159142
H           -0.05373041164306        1.63529528147416       -3.60124505362294
H            1.23970530838584        3.32171951101156       -1.87659469178036
H            2.10709035899792        1.43041992352273        1.19363057968892
H            2.24231686331090        3.03232470216688        0.40356938409377
H            0.83402422879263        4.85603704171817        1.45252873418606
H           -1.26856387656012        4.86086563861068        3.19789448619133
H           -1.84619229108979        2.21829859171727        3.51764829036080

          :  Hamiltonian                  GFN2-xTB          :
         :: total energy             -56.231405486143 Eh    ::
         :: gradient norm              0.000380400091 Eh/a0 ::
         :: HOMO-LUMO gap              3.179437774175 eV    ::
         :: SCC energy               -56.862251383529 Eh    ::
         :: -> dispersion             -0.030287314286 Eh    ::
         :: repulsion energy           0.630845897386 Eh    ::

    * Orbital Energies and Occupations

         #    Occupation            Energy/Eh            Energy/eV
      -------------------------------------------------------------
         1        2.0000           -1.0059647             -27.3737
       ...           ...                  ...                  ...
        37        2.0000           -0.6417822             -17.4638
        38        2.0000           -0.6390556             -17.3896
        39        2.0000           -0.6356575             -17.2971
        40        2.0000           -0.6279803             -17.0882
        41        2.0000           -0.6230391             -16.9538
        42        2.0000           -0.6149993             -16.7350
        43        2.0000           -0.6074219             -16.5288
        44        2.0000           -0.5868992             -15.9703
        45        2.0000           -0.5757632             -15.6673
        46        2.0000           -0.5737637             -15.6129
        47        2.0000           -0.5308723             -14.4458
        48        2.0000           -0.5220438             -14.2055
        49        2.0000           -0.5212054             -14.1827 (HOMO)
        50                         -0.4043632             -11.0033 (LUMO)
        51                         -0.3726010             -10.1390
        52                         -0.3432313              -9.3398
        53                         -0.2752387              -7.4896
        54                         -0.2007067              -5.4615
        55                         -0.1474435              -4.0121
        56                         -0.1242248              -3.3803
        57                         -0.1203952              -3.2761
        58                         -0.1007673              -2.7420
        59                         -0.0857594              -2.3336
        60                         -0.0783199              -2.1312
       ...                                ...                  ...
        86                          0.5628012              15.3146
      -------------------------------------------------------------
                  HL-Gap            0.1168422 Eh            3.1794 eV

     #   Z          covCN         q      C6AA      α(0)
     1   6 C        3.754    -0.158    23.628     6.931
     2   6 C        3.078     0.126    25.162     8.224
     3   7 N        2.872     0.038    20.580     6.738
     4   6 C        3.742    -0.023    21.052     6.546
     5   6 C        3.804    -0.100    22.410     6.740
     6   6 C        3.329     0.488    17.357     6.613
     7   9 F        0.791    -0.200    11.234     3.959
     8   9 F        0.791    -0.177    10.998     3.917
     9   9 F        0.791    -0.219    11.432     3.994
    10   6 C        3.044    -0.010    28.216     8.712
    11   6 C        3.034    -0.005    28.109     8.696
    12   7 N        2.879     0.029    20.728     6.762
    13   6 C        3.681     0.030    20.276     6.449
    14   7 N        3.039     0.065    20.099     6.659
    15   6 C        3.019    -0.011    28.258     8.720
    16   6 C        3.021    -0.057    29.399     8.894
    17   6 C        3.113     0.040    26.953     8.505
    18   7 N        2.002    -0.240    27.067     7.716
    19   1 H        0.925     0.098     1.805     2.101
    20   1 H        0.924     0.142     1.447     1.881
    21   1 H        0.924     0.117     1.636     2.000
    22   1 H        0.924     0.104     1.749     2.068
    23   1 H        0.924     0.106     1.733     2.059
    24   1 H        0.924     0.116     1.646     2.006
    25   1 H        0.924     0.101     1.773     2.082
    26   1 H        0.926     0.105     1.737     2.061
    27   1 H        0.926     0.106     1.730     2.057
    28   1 H        0.924     0.111     1.685     2.030
    29   1 H        0.924     0.105     1.744     2.065
    30   1 H        0.926     0.053     2.281     2.362
    31   1 H        0.927     0.060     2.198     2.318
    32   1 H        0.926     0.058     2.217     2.328

Wiberg/Mayer (AO) data.
largest (>0.10) Wiberg bond orders for each atom

     #   Z sym  total        # sym  WBO       # sym  WBO       # sym  WBO
 ---------------------------------------------------------------------------
     1   6 C    3.963 --     2 C    1.061    19 H    0.964    21 H    0.932
                            20 H    0.918
     2   6 C    3.947 --     3 N    1.326    12 N    1.316     1 C    1.061
     3   7 N    3.682 --     2 C    1.326    10 C    1.187     4 C    0.981
     4   6 C    3.949 --     5 C    0.995     3 N    0.981    23 H    0.960
                            22 H    0.958
     5   6 C    3.978 --     4 C    0.995    25 H    0.964     6 C    0.959
                            24 H    0.958
     6   6 C    3.840 --     8 F    0.978     5 C    0.959     7 F    0.951
                             9 F    0.931
     7   9 F    1.077 --     6 C    0.951
     8   9 F    1.106 --     6 C    0.978
     9   9 F    1.056 --     6 C    0.931
    10   6 C    3.947 --    11 C    1.633     3 N    1.187    26 H    0.961
    11   6 C    3.949 --    10 C    1.633    12 N    1.195    27 H    0.961
    12   7 N    3.678 --     2 C    1.316    11 C    1.195    13 C    0.957
    13   6 C    3.944 --    14 N    1.010    29 H    0.959    12 N    0.957
                            28 H    0.949
    14   7 N    3.631 --    15 C    1.234    18 N    1.162    13 C    1.010
    15   6 C    3.955 --    16 C    1.548    14 N    1.234    30 H    0.967
                            18 N    0.165
    16   6 C    3.983 --    15 C    1.548    17 C    1.342    31 H    0.971
    17   6 C    3.977 --    18 N    1.535    16 C    1.342    32 H    0.967
    18   7 N    2.984 --    17 C    1.535    14 N    1.162    15 C    0.165
    19   1 H    0.990 --     1 C    0.964
    20   1 H    0.980 --     1 C    0.918
    21   1 H    0.986 --     1 C    0.932
    22   1 H    0.989 --     4 C    0.958
    23   1 H    0.988 --     4 C    0.960
    24   1 H    0.986 --     5 C    0.958
    25   1 H    0.990 --     5 C    0.964
    26   1 H    0.989 --    10 C    0.961
    27   1 H    0.988 --    11 C    0.961
    28   1 H    0.988 --    13 C    0.949
    29   1 H    0.989 --    13 C    0.959
    30   1 H    0.997 --    15 C    0.967
    31   1 H    0.996 --    16 C    0.971
    32   1 H    0.997 --    17 C    0.967
 ---------------------------------------------------------------------------

molecular dipole:
                 x           y           z       tot (Debye)
 q only:        0.202       2.114      -2.266
   full:        0.236       2.522      -2.385       8.843

           -------------------------------------------------
          | TOTAL ENERGY              -56.231405486143 Eh   |
          | GRADIENT NORM               0.000380400091 Eh/α |
          | HOMO-LUMO GAP               3.179437774175 eV   |
           -------------------------------------------------

 * finished run on 2024/12/20 at 07:03:02.837
