   * xtb version 6.7.1 (edcfbbe) compiled by 'conda@3ef47c1a292c' on 2024-11-25

   ID    Z sym.   atoms
    1    6 C      1-6, 8, 10-14
    2    8 O      7
    3    7 N      9
    4    1 H      15-34

          program call               : xtb C0891.xyz --opt --namespace C0891 --charge +1
          :  Hamiltonian                  GFN2-xTB          :
 * total energy  :   -42.4636530 Eh     change       -0.2144240E-08 Eh
 * total energy  :   -42.4672040 Eh     change       -0.3550989E-02 Eh
 * total energy  :   -42.4680097 Eh     change       -0.8057691E-03 Eh
 * total energy  :   -42.4681649 Eh     change       -0.1551338E-03 Eh
 * total energy  :   -42.4682856 Eh     change       -0.1207575E-03 Eh
 * total energy  :   -42.4683311 Eh     change       -0.4545770E-04 Eh
 * total energy  :   -42.4684063 Eh     change       -0.7522390E-04 Eh
 * total energy  :   -42.4685129 Eh     change       -0.1065683E-03 Eh
 * total energy  :   -42.4686210 Eh     change       -0.1081293E-03 Eh
 * total energy  :   -42.4687247 Eh     change       -0.1036362E-03 Eh
 * total energy  :   -42.4695759 Eh     change       -0.1620326E-04 Eh
 * total energy  :   -42.4695815 Eh     change       -0.5599722E-05 Eh
 * total energy  :   -42.4695905 Eh     change       -0.8933847E-05 Eh
 * total energy  :   -42.4696018 Eh     change       -0.1136857E-04 Eh
 * total energy  :   -42.4696126 Eh     change       -0.1080738E-04 Eh
 * total energy  :   -42.4696231 Eh     change       -0.1045893E-04 Eh
 * total energy  :   -42.4696326 Eh     change       -0.9526640E-05 Eh
 * total energy  :   -42.4696391 Eh     change       -0.6468222E-05 Eh
 * total energy  :   -42.4696431 Eh     change       -0.4059295E-05 Eh
   *** GEOMETRY OPTIMIZATION CONVERGED AFTER 33 ITERATIONS ***

 final structure:
================
34
 xtb: 6.7.1 (edcfbbe)
C           -0.08867511914273        0.99584040731004        0.84080031374704
C            0.26533061685570       -0.01705242891393       -0.24089961110061
C            1.10590443232618       -1.18556059730019        0.27895496172850
C            0.43203961918911       -2.02626408014591        1.36775634312483
C           -0.91239399470530       -2.64876610372563        0.98052509397809
C           -0.90450353119655       -3.56805182648516       -0.23965276371040
O           -0.27462062851650       -4.83865795164198        0.01169746422805
C            1.04927130476116       -4.94576474275963       -0.28084784004911
N            1.26258891605786       -5.28220309606796       -1.72769206695536
C            2.39646917134822       -4.93005654917159       -2.34201386936664
C            2.61254487667849       -5.25435813970464       -3.66512862801196
C            1.63247843567146       -5.95212288855530       -4.36212367378818
C            0.46431029397532       -6.30767831450104       -3.70049699638526
C            0.31046836971302       -5.95972872389326       -2.37408043581093
H           -0.77280533120682        0.57363954970523        1.57178661586969
H           -0.56800416712993        1.86313899771962        0.39484107539311
H            0.80762455838076        1.33042054355210        1.35730233662621
H           -0.64948579271531       -0.39158243497875       -0.70515252897247
H            0.84076006735132        0.48795031324095       -1.02037976106653
H            1.38319778999137       -1.81443568187164       -0.57503993431965
H            2.03403247538306       -0.78610325054411        0.69401010897609
H            1.11988233255210       -2.81013676005762        1.69684833507513
H            0.25688364887060       -1.38836604599116        2.23400649348729
H           -1.28601660237841       -3.22476513694245        1.82856180639823
H           -1.63169115420399       -1.85489354653138        0.77929282526769
H           -1.93588496597261       -3.82277033182767       -0.49434424447274
H           -0.44110948336458       -3.08286249702126       -1.10449431941866
H            1.63034470006841       -4.03850975877140       -0.07814272720395
H            1.45467767071927       -5.78400438187011        0.30111846334206
H            3.12806719445002       -4.38569994733513       -1.76237242184893
H            3.53340651429276       -4.95988454309656       -4.14263543280355
H            1.77800850445939       -6.21208741823082       -5.39909183123878
H           -0.31967178610487       -6.85113768992624       -4.20314021871099
H           -0.57199893646023       -6.20445494367580       -1.79805293200321

          :  Hamiltonian                  GFN2-xTB          :
         :: total energy             -42.469643142299 Eh    ::
         :: gradient norm              0.000389311326 Eh/a0 ::
         :: HOMO-LUMO gap              1.320947381903 eV    ::
         :: SCC energy               -43.093013597118 Eh    ::
         :: -> dispersion             -0.026460318283 Eh    ::
         :: repulsion energy           0.623370454819 Eh    ::

    * Orbital Energies and Occupations

         #    Occupation            Energy/Eh            Energy/eV
      -------------------------------------------------------------
         1        2.0000           -0.8860998             -24.1120
       ...           ...                  ...                  ...
        27        2.0000           -0.6199927             -16.8709
        28        2.0000           -0.6162575             -16.7692
        29        2.0000           -0.6129178             -16.6783
        30        2.0000           -0.5942723             -16.1710
        31        2.0000           -0.5764252             -15.6853
        32        2.0000           -0.5761449             -15.6777
        33        2.0000           -0.5689575             -15.4821
        34        2.0000           -0.5493313             -14.9481
        35        2.0000           -0.5423161             -14.7572
        36        2.0000           -0.5398349             -14.6897
        37        2.0000           -0.5240952             -14.2614
        38        2.0000           -0.5171384             -14.0721
        39        2.0000           -0.5124508             -13.9445 (HOMO)
        40                         -0.4639068             -12.6235 (LUMO)
        41                         -0.4331619             -11.7869
        42                         -0.3121188              -8.4932
        43                         -0.2092220              -5.6932
        44                         -0.1352971              -3.6816
        45                         -0.0771593              -2.0996
        46                         -0.0478907              -1.3032
        47                         -0.0388737              -1.0578
        48                         -0.0335831              -0.9138
        49                         -0.0306517              -0.8341
        50                         -0.0194240              -0.5286
       ...                                ...                  ...
        76                          0.4413644              12.0101
      -------------------------------------------------------------
                  HL-Gap            0.0485439 Eh            1.3209 eV

     #   Z          covCN         q      C6AA      α(0)
     1   6 C        3.752    -0.108    22.631     6.784
     2   6 C        3.799    -0.055    21.563     6.612
     3   6 C        3.800    -0.056    21.591     6.616
     4   6 C        3.799    -0.064    21.724     6.636
     5   6 C        3.799    -0.075    21.942     6.670
     6   6 C        3.689     0.063    19.701     6.353
     7   8 O        1.700    -0.280    18.648     5.830
     8   6 C        3.639     0.117    19.012     6.271
     9   7 N        2.746     0.069    20.038     6.648
    10   6 C        2.883     0.036    27.201     8.550
    11   6 C        2.916    -0.008    28.222     8.711
    12   6 C        2.925     0.016    27.648     8.623
    13   6 C        2.915    -0.008    28.219     8.711
    14   6 C        2.886     0.044    27.011     8.521
    15   1 H        0.925     0.039     2.461     2.453
    16   1 H        0.925     0.044     2.392     2.419
    17   1 H        0.925     0.043     2.414     2.430
    18   1 H        0.924     0.028     2.612     2.527
    19   1 H        0.924     0.035     2.515     2.480
    20   1 H        0.924     0.001     3.035     2.725
    21   1 H        0.924     0.042     2.422     2.434
    22   1 H        0.924     0.025     2.652     2.546
    23   1 H        0.925     0.060     2.202     2.320
    24   1 H        0.924     0.063     2.168     2.303
    25   1 H        0.925     0.064     2.155     2.295
    26   1 H        0.924     0.070     2.090     2.261
    27   1 H        0.924     0.033     2.538     2.491
    28   1 H        0.924     0.087     1.913     2.163
    29   1 H        0.923     0.105     1.738     2.062
    30   1 H        0.926     0.106     1.730     2.057
    31   1 H        0.926     0.112     1.678     2.026
    32   1 H        0.926     0.111     1.686     2.030
    33   1 H        0.926     0.113     1.675     2.024
    34   1 H        0.925     0.129     1.544     1.943

Wiberg/Mayer (AO) data.
largest (>0.10) Wiberg bond orders for each atom

     #   Z sym  total        # sym  WBO       # sym  WBO       # sym  WBO
 ---------------------------------------------------------------------------
     1   6 C    3.995 --     2 C    1.021    17 H    0.987    16 H    0.986
                            15 H    0.986
     2   6 C    3.997 --     1 C    1.021     3 C    1.007    19 H    0.978
                            18 H    0.977
     3   6 C    3.997 --     4 C    1.007     2 C    1.007    21 H    0.976
                            20 H    0.972
     4   6 C    3.994 --     3 C    1.007     5 C    1.007    22 H    0.974
                            23 H    0.971
     5   6 C    3.989 --     4 C    1.007     6 C    1.003    24 H    0.973
                            25 H    0.967
     6   6 C    3.920 --     5 C    1.003    27 H    0.971    26 H    0.970
                             7 O    0.930
     7   8 O    2.148 --     8 C    1.080     6 C    0.930
     8   6 C    3.928 --     7 O    1.080    28 H    0.944    29 H    0.939
                             9 N    0.892
     9   7 N    3.746 --    14 C    1.337    10 C    1.329     8 C    0.892
    10   6 C    3.957 --    11 C    1.466     9 N    1.329    30 H    0.954
    11   6 C    3.980 --    10 C    1.466    12 C    1.417    31 H    0.958
    12   6 C    3.968 --    13 C    1.428    11 C    1.417    32 H    0.960
    13   6 C    3.980 --    14 C    1.454    12 C    1.428    33 H    0.958
    14   6 C    3.948 --    13 C    1.454     9 N    1.337    34 H    0.946
    15   1 H    0.998 --     1 C    0.986
    16   1 H    0.998 --     1 C    0.986
    17   1 H    0.998 --     1 C    0.987
    18   1 H    0.999 --     2 C    0.977
    19   1 H    0.999 --     2 C    0.978
    20   1 H    1.000 --     3 C    0.972
    21   1 H    0.998 --     3 C    0.976
    22   1 H    0.999 --     4 C    0.974
    23   1 H    0.996 --     4 C    0.971
    24   1 H    0.996 --     5 C    0.973
    25   1 H    0.996 --     5 C    0.967
    26   1 H    0.995 --     6 C    0.970
    27   1 H    0.999 --     6 C    0.971
    28   1 H    0.992 --     8 C    0.944
    29   1 H    0.989 --     8 C    0.939
    30   1 H    0.989 --    10 C    0.954
    31   1 H    0.987 --    11 C    0.958
    32   1 H    0.987 --    12 C    0.960
    33   1 H    0.987 --    13 C    0.958
    34   1 H    0.983 --    14 C    0.946
 ---------------------------------------------------------------------------

molecular dipole:
                 x           y           z       tot (Debye)
 q only:        2.271      -9.295      -4.115
   full:        2.435      -9.275      -4.192      26.602

           -------------------------------------------------
          | TOTAL ENERGY              -42.469643142299 Eh   |
          | GRADIENT NORM               0.000389311326 Eh/α |
          | HOMO-LUMO GAP               1.320947381903 eV   |
           -------------------------------------------------

 * finished run on 2024/12/20 at 07:02:40.069
