   * xtb version 6.7.1 (edcfbbe) compiled by 'conda@3ef47c1a292c' on 2024-11-25

   ID    Z sym.   atoms
    1    6 C      1-3, 5, 6, 8-10
    2    7 N      4, 7
    3    1 H      11-19

          program call               : xtb C0895.xyz --opt --namespace C0895 --charge +1
          :  Hamiltonian                  GFN2-xTB          :
 * total energy  :   -27.0529468 Eh     change       -0.4326353E-09 Eh
 * total energy  :   -27.0777054 Eh     change       -0.2475866E-01 Eh
 * total energy  :   -27.0796511 Eh     change       -0.1945696E-02 Eh
 * total energy  :   -27.0797518 Eh     change       -0.1006151E-03 Eh
 * total energy  :   -27.0800080 Eh     change       -0.2562494E-03 Eh
 * total energy  :   -27.0800637 Eh     change       -0.5572711E-04 Eh
 * total energy  :   -27.0800882 Eh     change       -0.2445801E-04 Eh
 * total energy  :   -27.0801013 Eh     change       -0.1307098E-04 Eh
 * total energy  :   -27.0801123 Eh     change       -0.1103579E-04 Eh
 * total energy  :   -27.0801152 Eh     change       -0.2875776E-05 Eh
 * total energy  :   -27.0801172 Eh     change       -0.2057334E-05 Eh
   *** GEOMETRY OPTIMIZATION CONVERGED AFTER 11 ITERATIONS ***

 final structure:
================
19
 xtb: 6.7.1 (edcfbbe)
C            0.78189583619036       -0.05111232258412        0.09927681932625
C           -0.41265537387331        0.00036670581183        0.07223668736843
C           -1.86536666149242        0.03277048188922        0.03919848650187
N           -2.41022578567609       -1.23275259040785        0.49492458284511
C           -2.13850415035960       -2.44388186269206       -0.06665368356204
C           -2.81172099813129       -3.38053585895909        0.65340300178038
N           -3.48599607743124       -2.72819395026430        1.64845974473226
C           -3.22058512280857       -1.42337320583876        1.52942801667294
C           -4.29951831874158       -3.37059327409562        2.59756401453131
C           -4.98551705941980       -2.76147713439839        3.54947587218007
H            1.83177796024363       -0.07050416879641        0.11690979254603
H           -2.23586763692872        0.83547875308637        0.68238977051911
H           -2.19892680560861        0.21793660970115       -0.98863690017538
H           -1.49427489466396       -2.55030164009566       -0.91585161951079
H           -2.85623394169332       -4.44329679653205        0.52719068887543
H           -3.59897432121430       -0.64756242532062        2.16523614106776
H           -4.31636389116154       -4.44320912165255        2.47385779530163
H           -5.58251084141785       -3.33862430920713        4.23203344538045
H           -4.99168191581184       -1.69604388964405        3.69825734361926

          :  Hamiltonian                  GFN2-xTB          :
         :: total energy             -27.080117228958 Eh    ::
         :: gradient norm              0.000601644419 Eh/a0 ::
         :: HOMO-LUMO gap              3.347767250861 eV    ::
         :: SCC energy               -27.601606717578 Eh    ::
         :: -> dispersion             -0.013732824936 Eh    ::
         :: repulsion energy           0.521489488620 Eh    ::

    * Orbital Energies and Occupations

         #    Occupation            Energy/Eh            Energy/eV
      -------------------------------------------------------------
         1        2.0000           -0.9028663             -24.5682
       ...           ...                  ...                  ...
        13        2.0000           -0.6987434             -19.0138
        14        2.0000           -0.6905935             -18.7920
        15        2.0000           -0.6812370             -18.5374
        16        2.0000           -0.6687723             -18.1982
        17        2.0000           -0.6581615             -17.9095
        18        2.0000           -0.6473034             -17.6140
        19        2.0000           -0.6409667             -17.4416
        20        2.0000           -0.6167940             -16.7838
        21        2.0000           -0.6102992             -16.6071
        22        2.0000           -0.5963411             -16.2273
        23        2.0000           -0.5777569             -15.7216
        24        2.0000           -0.5642972             -15.3553
        25        2.0000           -0.5564897             -15.1429 (HOMO)
        26                         -0.4334616             -11.7951 (LUMO)
        27                         -0.3843128             -10.4577
        28                         -0.3406491              -9.2695
        29                         -0.3104296              -8.4472
        30                         -0.2944677              -8.0129
        31                         -0.1737500              -4.7280
        32                         -0.1265510              -3.4436
        33                         -0.0864815              -2.3533
        34                         -0.0612992              -1.6680
        35                         -0.0492186              -1.3393
        36                         -0.0248859              -0.6772
       ...                                ...                  ...
        49                          1.2906196              35.1195
      -------------------------------------------------------------
                  HL-Gap            0.1230282 Eh            3.3478 eV

     #   Z          covCN         q      C6AA      α(0)
     1   6 C        1.909    -0.068    32.955     9.271
     2   6 C        1.968    -0.026    31.745     9.099
     3   6 C        3.744    -0.005    20.747     6.498
     4   7 N        2.876     0.076    19.914     6.628
     5   6 C        3.062    -0.002    28.022     8.681
     6   6 C        3.072    -0.005    28.072     8.687
     7   7 N        2.867     0.081    19.825     6.613
     8   6 C        3.085     0.047    26.843     8.493
     9   6 C        2.830     0.006    27.871     8.651
    10   6 C        2.837    -0.077    29.905     8.962
    11   1 H        0.928     0.127     1.556     1.950
    12   1 H        0.924     0.103     1.761     2.075
    13   1 H        0.924     0.112     1.683     2.029
    14   1 H        0.926     0.114     1.663     2.017
    15   1 H        0.926     0.112     1.680     2.027
    16   1 H        0.926     0.114     1.660     2.015
    17   1 H        0.926     0.097     1.813     2.106
    18   1 H        0.926     0.109     1.705     2.042
    19   1 H        0.926     0.084     1.939     2.177

Wiberg/Mayer (AO) data.
largest (>0.10) Wiberg bond orders for each atom

     #   Z sym  total        # sym  WBO       # sym  WBO       # sym  WBO
 ---------------------------------------------------------------------------
     1   6 C    3.964 --     2 C    2.907    11 H    0.960
     2   6 C    3.975 --     1 C    2.907     3 C    1.031
     3   6 C    3.940 --     2 C    1.031     4 N    0.955    12 H    0.949
                            13 H    0.935
     4   7 N    3.723 --     8 C    1.373     5 C    1.221     3 C    0.955
     5   6 C    3.949 --     6 C    1.603     4 N    1.221    14 H    0.960
     6   6 C    3.948 --     5 C    1.603     7 N    1.205    15 H    0.960
     7   7 N    3.731 --     8 C    1.328     6 C    1.205     9 C    1.033
     8   6 C    3.946 --     4 N    1.373     7 N    1.328    16 H    0.952
     9   6 C    3.941 --    10 C    1.912     7 N    1.033    17 H    0.953
    10   6 C    3.973 --     9 C    1.912    19 H    0.967    18 H    0.964
    11   1 H    0.983 --     1 C    0.960
    12   1 H    0.989 --     3 C    0.949
    13   1 H    0.986 --     3 C    0.935
    14   1 H    0.986 --     5 C    0.960
    15   1 H    0.987 --     6 C    0.960
    16   1 H    0.987 --     8 C    0.952
    17   1 H    0.990 --     9 C    0.953
    18   1 H    0.987 --    10 C    0.964
    19   1 H    0.993 --    10 C    0.967
 ---------------------------------------------------------------------------

molecular dipole:
                 x           y           z       tot (Debye)
 q only:       -5.419      -3.524       2.202
   full:       -5.493      -3.483       2.217      17.466

           -------------------------------------------------
          | TOTAL ENERGY              -27.080117228958 Eh   |
          | GRADIENT NORM               0.000601644419 Eh/α |
          | HOMO-LUMO GAP               3.347767250861 eV   |
           -------------------------------------------------

 * finished run on 2024/12/20 at 07:02:42.597
