   * xtb version 6.7.1 (edcfbbe) compiled by 'conda@3ef47c1a292c' on 2024-11-25

   ID    Z sym.   atoms
    1    6 C      1-15, 17, 18
    2    7 N      16
    3    1 H      19-48

          program call               : xtb C0897.xyz --opt --namespace C0897 --charge +1
          :  Hamiltonian                  GFN2-xTB          :
 * total energy  :   -54.2284520 Eh     change       -0.1442977E-08 Eh
 * total energy  :   -54.2311658 Eh     change       -0.2713845E-02 Eh
 * total energy  :   -54.2317126 Eh     change       -0.5468354E-03 Eh
 * total energy  :   -54.2318456 Eh     change       -0.1329758E-03 Eh
 * total energy  :   -54.2319837 Eh     change       -0.1380557E-03 Eh
 * total energy  :   -54.2321040 Eh     change       -0.1203237E-03 Eh
 * total energy  :   -54.2322447 Eh     change       -0.1407081E-03 Eh
 * total energy  :   -54.2323885 Eh     change       -0.1437741E-03 Eh
 * total energy  :   -54.2324693 Eh     change       -0.8081221E-04 Eh
 * total energy  :   -54.2325118 Eh     change       -0.4254487E-04 Eh
 * total energy  :   -54.2330709 Eh     change       -0.2376287E-04 Eh
 * total energy  :   -54.2330909 Eh     change       -0.2005096E-04 Eh
 * total energy  :   -54.2331048 Eh     change       -0.1386189E-04 Eh
 * total energy  :   -54.2331157 Eh     change       -0.1089186E-04 Eh
 * total energy  :   -54.2331251 Eh     change       -0.9443297E-05 Eh
 * total energy  :   -54.2331349 Eh     change       -0.9800140E-05 Eh
 * total energy  :   -54.2331456 Eh     change       -0.1070214E-04 Eh
 * total energy  :   -54.2331528 Eh     change       -0.7173230E-05 Eh
 * total energy  :   -54.2331559 Eh     change       -0.3073415E-05 Eh
   *** GEOMETRY OPTIMIZATION CONVERGED AFTER 35 ITERATIONS ***

 final structure:
================
48
 xtb: 6.7.1 (edcfbbe)
C            1.09883517638343        0.43327009254917       -0.32808100984809
C            1.01689024980461       -0.52562002732948       -1.50968815683757
C            1.33684020252437       -1.97382043503213       -1.13642513515189
C            0.39432157674313       -2.59888014205389       -0.10565662840215
C           -1.08005619379859       -2.63012151909264       -0.51240874342823
C           -1.37982469164148       -3.40105659866422       -1.79958785510929
C           -0.96901018498472       -4.87494768213728       -1.78166583224523
C           -1.59592785926275       -5.70668306283280       -0.66096289427797
C           -3.12617157574368       -5.71908946349281       -0.64203128746551
C           -3.78399222155931       -6.25161774521407       -1.91766223532834
C           -3.40067735244970       -7.67926755337739       -2.29809895813946
C           -3.81150924685043       -8.74827030152555       -1.25485474539543
C           -5.28362029174995       -8.86920908769947       -1.19582605930959
C           -5.97620069182963       -9.70162737532811       -2.08771191944121
C           -7.34704587604807       -9.76666790103327       -2.05266958839785
N           -8.03519588657093       -9.02953027632984       -1.16861344185923
C           -7.41999220971315       -8.21526161894820       -0.29928579893834
C           -6.05014998599307       -8.11752587240848       -0.29274891820408
H            0.32214815986030        0.22422543374247        0.40350003777925
H            0.97500867099372        1.45923758285934       -0.66696306253915
H            2.06606788862815        0.35012387301376        0.16285801130764
H            0.02359424807458       -0.46681789396613       -1.95879336471588
H            1.73397171141652       -0.20770619223493       -2.27042640312498
H            1.33305324238607       -2.57861185448718       -2.04591771485477
H            2.35027060193177       -2.01036607785261       -0.72906108403919
H            0.73665908051363       -3.61608877451498        0.09783545486791
H            0.47522034634928       -2.04425538392131        0.83094420894950
H           -1.65302507343083       -3.06152123042419        0.31210382342344
H           -1.43552578046037       -1.60642396594910       -0.64216442959292
H           -2.45059007617447       -3.32337555111081       -2.00486369170146
H           -0.86361856030270       -2.91861723769332       -2.63107193353637
H           -1.22195452753509       -5.31398166573647       -2.74989218263838
H            0.11515206718968       -4.94015821370317       -1.67912163508216
H           -1.22058566478611       -6.72999248438627       -0.73830004640725
H           -1.25463585505188       -5.31890682228851        0.29993858160946
H           -3.44972284598255       -6.30764321071741        0.22092336168799
H           -3.48622711953520       -4.70215147707083       -0.48171069373130
H           -4.87087298882237       -6.17641040751988       -1.81287082303510
H           -3.50019180126219       -5.60518536104596       -2.74897486679586
H           -3.85874597205886       -7.92943192953940       -3.25729397103026
H           -2.32059784388439       -7.74285824529068       -2.42033560998551
H           -3.37292835929598       -9.69850387449220       -1.56106936939421
H           -3.40691260319535       -8.46413670947451       -0.28478520680500
H           -5.43259204586365      -10.29956838853728       -2.80233909354379
H           -7.91004584186309      -10.40156395066232       -2.72004786562844
H           -9.04941634265098       -9.09251641256279       -1.15447701583239
H           -8.03910012611171       -7.65251683520788        0.38309985094734
H           -5.56707952633063       -7.46391016927916        0.41621594119125

          :  Hamiltonian                  GFN2-xTB          :
         :: total energy             -54.233155884159 Eh    ::
         :: gradient norm              0.000261845813 Eh/a0 ::
         :: HOMO-LUMO gap              0.290891490584 eV    ::
         :: SCC energy               -55.094385522252 Eh    ::
         :: -> dispersion             -0.040066542427 Eh    ::
         :: repulsion energy           0.861229638092 Eh    ::

    * Orbital Energies and Occupations

         #    Occupation            Energy/Eh            Energy/eV
      -------------------------------------------------------------
         1        2.0000           -0.8801293             -23.9495
       ...           ...                  ...                  ...
        39        2.0000           -0.5411085             -14.7243
        40        2.0000           -0.5354838             -14.5713
        41        2.0000           -0.5285076             -14.3814
        42        2.0000           -0.5256637             -14.3040
        43        2.0000           -0.5152760             -14.0214
        44        2.0000           -0.5112009             -13.9105
        45        2.0000           -0.5045054             -13.7283
        46        2.0000           -0.4946325             -13.4596
        47        2.0000           -0.4913337             -13.3699
        48        2.0000           -0.4875984             -13.2682
        49        2.0000           -0.4735289             -12.8854
        50        1.9993           -0.4695308             -12.7766
        51        1.9932           -0.4674187             -12.7191 (HOMO)
        52        0.0076           -0.4567287             -12.4282 (LUMO)
        53                         -0.4252052             -11.5704
        54                         -0.3072966              -8.3620
        55                         -0.1546962              -4.2095
        56                         -0.0763278              -2.0770
        57                         -0.0447614              -1.2180
        58                         -0.0410417              -1.1168
        59                         -0.0327759              -0.8919
        60                         -0.0253120              -0.6888
        61                         -0.0154024              -0.4191
        62                         -0.0006903              -0.0188
       ...                                ...                  ...
       102                          0.4432647              12.0618
      -------------------------------------------------------------
                  HL-Gap            0.0106901 Eh            0.2909 eV

     #   Z          covCN         q      C6AA      α(0)
     1   6 C        3.751    -0.103    22.520     6.768
     2   6 C        3.799    -0.052    21.517     6.605
     3   6 C        3.800    -0.058    21.615     6.619
     4   6 C        3.800    -0.058    21.613     6.619
     5   6 C        3.800    -0.057    21.602     6.618
     6   6 C        3.800    -0.058    21.619     6.620
     7   6 C        3.800    -0.060    21.647     6.624
     8   6 C        3.800    -0.060    21.665     6.627
     9   6 C        3.800    -0.060    21.651     6.625
    10   6 C        3.800    -0.063    21.709     6.634
    11   6 C        3.802    -0.056    21.578     6.613
    12   6 C        3.807    -0.076    21.948     6.669
    13   6 C        2.973     0.077    26.274     8.408
    14   6 C        2.920    -0.022    28.544     8.761
    15   6 C        2.865     0.042    27.059     8.527
    16   7 N        2.704     0.013    21.022     6.810
    17   6 C        2.865     0.042    27.063     8.527
    18   6 C        2.919    -0.020    28.508     8.756
    19   1 H        0.925     0.034     2.534     2.489
    20   1 H        0.925     0.034     2.528     2.486
    21   1 H        0.925     0.036     2.500     2.472
    22   1 H        0.924     0.030     2.589     2.516
    23   1 H        0.924     0.030     2.580     2.512
    24   1 H        0.924     0.028     2.615     2.529
    25   1 H        0.924     0.032     2.554     2.499
    26   1 H        0.924     0.027     2.627     2.535
    27   1 H        0.924     0.035     2.511     2.478
    28   1 H        0.924     0.024     2.674     2.557
    29   1 H        0.924     0.036     2.505     2.475
    30   1 H        0.924     0.023     2.691     2.565
    31   1 H        0.924     0.038     2.470     2.458
    32   1 H        0.924     0.025     2.662     2.551
    33   1 H        0.924     0.041     2.433     2.439
    34   1 H        0.924     0.026     2.637     2.540
    35   1 H        0.924     0.044     2.400     2.423
    36   1 H        0.924     0.019     2.752     2.594
    37   1 H        0.924     0.046     2.366     2.406
    38   1 H        0.924     0.019     2.754     2.595
    39   1 H        0.924     0.061     2.193     2.316
    40   1 H        0.924     0.042     2.417     2.431
    41   1 H        0.925     0.075     2.032     2.229
    42   1 H        0.924     0.078     2.000     2.212
    43   1 H        0.925     0.085     1.928     2.172
    44   1 H        0.926     0.105     1.738     2.062
    45   1 H        0.926     0.109     1.706     2.043
    46   1 H        0.860     0.228     0.973     1.545
    47   1 H        0.926     0.109     1.707     2.043
    48   1 H        0.926     0.108     1.713     2.047

Wiberg/Mayer (AO) data.
largest (>0.10) Wiberg bond orders for each atom

     #   Z sym  total        # sym  WBO       # sym  WBO       # sym  WBO
 ---------------------------------------------------------------------------
     1   6 C    3.996 --     2 C    1.020    20 H    0.987    21 H    0.987
                            19 H    0.986
     2   6 C    3.996 --     1 C    1.020     3 C    1.008    23 H    0.977
                            22 H    0.975
     3   6 C    3.996 --     2 C    1.008     4 C    1.007    25 H    0.976
                            24 H    0.975
     4   6 C    3.995 --     5 C    1.008     3 C    1.007    26 H    0.975
                            27 H    0.975
     5   6 C    3.996 --     4 C    1.008     6 C    1.007    28 H    0.975
                            29 H    0.974
     6   6 C    3.996 --     7 C    1.008     5 C    1.007    30 H    0.975
                            31 H    0.974
     7   6 C    3.996 --     6 C    1.008     8 C    1.007    32 H    0.975
                            33 H    0.974
     8   6 C    3.995 --     7 C    1.007     9 C    1.007    34 H    0.975
                            35 H    0.973
     9   6 C    3.995 --     8 C    1.007    10 C    1.006    37 H    0.973
                            36 H    0.972
    10   6 C    3.994 --    11 C    1.011     9 C    1.006    38 H    0.974
                            39 H    0.965
    11   6 C    3.983 --    10 C    1.011    40 H    0.977    41 H    0.964
                            12 C    0.936
    12   6 C    3.985 --    13 C    1.060    42 H    0.958    43 H    0.958
                            11 C    0.936
    13   6 C    3.957 --    14 C    1.350    18 C    1.348    12 C    1.060
    14   6 C    3.982 --    15 C    1.503    13 C    1.350    44 H    0.958
    15   6 C    3.949 --    14 C    1.503    16 N    1.308    45 H    0.957
    16   7 N    3.696 --    17 C    1.311    15 C    1.308    46 H    0.919
    17   6 C    3.951 --    18 C    1.500    16 N    1.311    47 H    0.957
    18   6 C    3.981 --    17 C    1.500    13 C    1.348    48 H    0.955
    19   1 H    0.998 --     1 C    0.986
    20   1 H    0.999 --     1 C    0.987
    21   1 H    0.998 --     1 C    0.987
    22   1 H    0.998 --     2 C    0.975
    23   1 H    0.998 --     2 C    0.977
    24   1 H    0.999 --     3 C    0.975
    25   1 H    0.998 --     3 C    0.976
    26   1 H    0.999 --     4 C    0.975
    27   1 H    0.998 --     4 C    0.975
    28   1 H    0.999 --     5 C    0.975
    29   1 H    0.999 --     5 C    0.974
    30   1 H    0.999 --     6 C    0.975
    31   1 H    0.998 --     6 C    0.974
    32   1 H    0.999 --     7 C    0.975
    33   1 H    0.998 --     7 C    0.974
    34   1 H    0.999 --     8 C    0.975
    35   1 H    0.998 --     8 C    0.973
    36   1 H    0.999 --     9 C    0.972
    37   1 H    0.998 --     9 C    0.973
    38   1 H    1.000 --    10 C    0.974
    39   1 H    0.994 --    10 C    0.965
    40   1 H    0.998 --    11 C    0.977
    41   1 H    0.992 --    11 C    0.964
    42   1 H    0.993 --    12 C    0.958
    43   1 H    0.992 --    12 C    0.958
    44   1 H    0.989 --    14 C    0.958
    45   1 H    0.988 --    15 C    0.957
    46   1 H    0.948 --    16 N    0.919
    47   1 H    0.988 --    17 C    0.957
    48   1 H    0.988 --    18 C    0.955
 ---------------------------------------------------------------------------

molecular dipole:
                 x           y           z       tot (Debye)
 q only:      -11.921     -16.170      -2.352
   full:      -12.273     -16.270      -2.356      52.146

           -------------------------------------------------
          | TOTAL ENERGY              -54.233155884159 Eh   |
          | GRADIENT NORM               0.000261845813 Eh/α |
          | HOMO-LUMO GAP               0.290891490584 eV   |
           -------------------------------------------------

 * finished run on 2024/12/20 at 07:02:47.607
