   * xtb version 6.7.1 (edcfbbe) compiled by 'conda@3ef47c1a292c' on 2024-11-25

   ID    Z sym.   atoms
    1    6 C      1-3, 5-13
    2    7 N      4
    3    1 H      14-33

          program call               : xtb C0893.xyz --opt --namespace C0893 --charge +1
          :  Hamiltonian                  GFN2-xTB          :
 * total energy  :   -38.4003669 Eh     change       -0.2016748E-08 Eh
 * total energy  :   -38.4068594 Eh     change       -0.6492472E-02 Eh
 * total energy  :   -38.4084513 Eh     change       -0.1591955E-02 Eh
 * total energy  :   -38.4086452 Eh     change       -0.1938527E-03 Eh
 * total energy  :   -38.4088105 Eh     change       -0.1653139E-03 Eh
 * total energy  :   -38.4089019 Eh     change       -0.9138758E-04 Eh
 * total energy  :   -38.4090342 Eh     change       -0.1322867E-03 Eh
 * total energy  :   -38.4091533 Eh     change       -0.1190970E-03 Eh
 * total energy  :   -38.4092169 Eh     change       -0.6366374E-04 Eh
 * total energy  :   -38.4092549 Eh     change       -0.3801935E-04 Eh
 * total energy  :   -38.4093091 Eh     change       -0.5417265E-04 Eh
 * total energy  :   -38.4093536 Eh     change       -0.4444876E-04 Eh
 * total energy  :   -38.4094008 Eh     change       -0.4722219E-04 Eh
 * total energy  :   -38.4094320 Eh     change       -0.3122481E-04 Eh
 * total energy  :   -38.4094504 Eh     change       -0.1837275E-04 Eh
 * total energy  :   -38.4094625 Eh     change       -0.1210841E-04 Eh
 * total energy  :   -38.4094769 Eh     change       -0.1437871E-04 Eh
 * total energy  :   -38.4094842 Eh     change       -0.7307643E-05 Eh
 * total energy  :   -38.4094884 Eh     change       -0.4257391E-05 Eh
   *** GEOMETRY OPTIMIZATION CONVERGED AFTER 19 ITERATIONS ***

 final structure:
================
33
 xtb: 6.7.1 (edcfbbe)
C            1.59114324280658        0.49810805385927       -0.23072383094022
C            0.52664995221803       -0.14834699601413       -1.11365145202668
C            0.96486927653224       -1.48060034712330       -1.73653629582677
N            0.51804164044525       -2.72698238629431       -1.04289634253125
C           -0.96939943844807       -2.91938587444240       -1.16159731892242
C           -1.47365750911391       -3.03214911876616       -2.57699187451388
C           -1.87911039345279       -1.89750284221349       -3.27395397338034
C           -2.35993877437190       -2.00401203414215       -4.56728339821939
C           -2.44813945264069       -3.24485554899113       -5.17604118264801
C           -2.06624692970112       -4.38136502937060       -4.48267890561992
C           -1.58344825029082       -4.27683557784497       -3.19002945636227
C            1.20927390073520       -3.86670834864907       -1.67426050674725
C            0.87617373207388       -2.69895628658033        0.38515262477038
H            1.81717207783791       -0.08942819399360        0.65468099372552
H            1.24340259132905        1.47340302299445        0.09924793317915
H            2.51094107828089        0.64766039521915       -0.79113898124917
H           -0.40098407296146       -0.25636148733648       -0.55114492440490
H            0.31568020055262        0.53933431379726       -1.93422228922278
H            0.58964026802120       -1.55165834733594       -2.75919291702609
H            2.05601720584853       -1.50151973251493       -1.77580297193073
H           -1.21970723544807       -3.82911098824935       -0.61164030089579
H           -1.45602372063330       -2.07696928493307       -0.66815940614522
H           -1.84026898603875       -0.92772283320596       -2.79955309658712
H           -2.67450420146002       -1.11754157486445       -5.09512261376106
H           -2.82725832674396       -3.32741249580601       -6.18205200267595
H           -2.15171200768349       -5.35261759874590       -4.94392384397128
H           -1.31205054782893       -5.17346105621752       -2.65179904116154
H            2.28548396780790       -3.77485730047355       -1.53815643031144
H            0.88083181727349       -4.80039205670222       -1.22105909954408
H            0.98865263725971       -3.89694637467680       -2.73988431598374
H            1.94593778352888       -2.53050822846036        0.49508055769865
H            0.33625734768932       -1.90881577982512        0.90091447899159
H            0.62405112657944       -3.64989206209583        0.85186018424291

          :  Hamiltonian                  GFN2-xTB          :
         :: total energy             -38.409488440103 Eh    ::
         :: gradient norm              0.000704326371 Eh/a0 ::
         :: HOMO-LUMO gap              4.645478298623 eV    ::
         :: SCC energy               -39.038172609119 Eh    ::
         :: -> dispersion             -0.028293013430 Eh    ::
         :: repulsion energy           0.628684169016 Eh    ::

    * Orbital Energies and Occupations

         #    Occupation            Energy/Eh            Energy/eV
      -------------------------------------------------------------
         1        2.0000           -0.8597797             -23.3958
       ...           ...                  ...                  ...
        24        2.0000           -0.6268000             -17.0561
        25        2.0000           -0.6225617             -16.9408
        26        2.0000           -0.6084693             -16.5573
        27        2.0000           -0.6023648             -16.3912
        28        2.0000           -0.6004445             -16.3389
        29        2.0000           -0.5995921             -16.3157
        30        2.0000           -0.5912976             -16.0900
        31        2.0000           -0.5775165             -15.7150
        32        2.0000           -0.5708549             -15.5338
        33        2.0000           -0.5485889             -14.9279
        34        2.0000           -0.5437393             -14.7959
        35        2.0000           -0.5300412             -14.4232
        36        2.0000           -0.5291627             -14.3993 (HOMO)
        37                         -0.3584445              -9.7538 (LUMO)
        38                         -0.3475729              -9.4579
        39                         -0.2363744              -6.4321
        40                         -0.2091822              -5.6921
        41                         -0.1552437              -4.2244
        42                         -0.1434881              -3.9045
        43                         -0.1380143              -3.7556
        44                         -0.0647536              -1.7620
        45                         -0.0568912              -1.5481
        46                         -0.0405182              -1.1026
        47                         -0.0298660              -0.8127
       ...                                ...                  ...
        72                          0.5376727              14.6308
      -------------------------------------------------------------
                  HL-Gap            0.1707182 Eh            4.6455 eV

     #   Z          covCN         q      C6AA      α(0)
     1   6 C        3.751    -0.122    22.898     6.824
     2   6 C        3.798    -0.065    21.750     6.640
     3   6 C        3.759    -0.041    21.365     6.590
     4   7 N        3.620     0.129    19.042     6.481
     5   6 C        3.764    -0.040    21.340     6.585
     6   6 C        2.967    -0.008    28.209     8.712
     7   6 C        2.923    -0.039    28.970     8.827
     8   6 C        2.918    -0.022    28.562     8.764
     9   6 C        2.920    -0.018    28.457     8.748
    10   6 C        2.918    -0.022    28.556     8.763
    11   6 C        2.923    -0.039    28.968     8.826
    12   6 C        3.726    -0.092    22.366     6.752
    13   6 C        3.721    -0.092    22.373     6.756
    14   1 H        0.925     0.046     2.374     2.410
    15   1 H        0.925     0.065     2.138     2.287
    16   1 H        0.925     0.054     2.275     2.359
    17   1 H        0.924     0.052     2.290     2.366
    18   1 H        0.924     0.071     2.080     2.255
    19   1 H        0.924     0.086     1.923     2.168
    20   1 H        0.924     0.087     1.910     2.161
    21   1 H        0.924     0.083     1.952     2.185
    22   1 H        0.924     0.085     1.932     2.174
    23   1 H        0.926     0.042     2.425     2.435
    24   1 H        0.926     0.059     2.216     2.328
    25   1 H        0.926     0.062     2.171     2.304
    26   1 H        0.926     0.059     2.209     2.324
    27   1 H        0.926     0.041     2.437     2.441
    28   1 H        0.925     0.094     1.839     2.120
    29   1 H        0.925     0.096     1.822     2.111
    30   1 H        0.925     0.099     1.791     2.093
    31   1 H        0.925     0.098     1.805     2.101
    32   1 H        0.925     0.101     1.771     2.081
    33   1 H        0.925     0.093     1.850     2.127

Wiberg/Mayer (AO) data.
largest (>0.10) Wiberg bond orders for each atom

     #   Z sym  total        # sym  WBO       # sym  WBO       # sym  WBO
 ---------------------------------------------------------------------------
     1   6 C    3.989 --     2 C    1.020    16 H    0.985    14 H    0.984
                            15 H    0.983
     2   6 C    3.987 --     1 C    1.020     3 C    1.003    18 H    0.970
                            17 H    0.966
     3   6 C    3.928 --     2 C    1.003    20 H    0.965    19 H    0.964
                             4 N    0.927
     4   7 N    3.809 --    13 C    0.961    12 C    0.961     3 C    0.927
                             5 C    0.911
     5   6 C    3.930 --     6 C    1.005    21 H    0.965    22 H    0.961
                             4 N    0.911
     6   6 C    3.978 --    11 C    1.407     7 C    1.407     5 C    1.005
                             9 C    0.109
     7   6 C    3.991 --     8 C    1.444     6 C    1.407    23 H    0.967
                            10 C    0.109
     8   6 C    3.990 --     7 C    1.444     9 C    1.438    24 H    0.969
                            11 C    0.109
     9   6 C    3.988 --     8 C    1.438    10 C    1.437    25 H    0.969
                             6 C    0.109
    10   6 C    3.990 --    11 C    1.445     9 C    1.437    26 H    0.969
                             7 C    0.109
    11   6 C    3.991 --    10 C    1.445     6 C    1.407    27 H    0.968
                             8 C    0.109
    12   6 C    3.930 --    28 H    0.975    29 H    0.974    30 H    0.972
                             4 N    0.961
    13   6 C    3.930 --    33 H    0.975    31 H    0.973    32 H    0.972
                             4 N    0.961
    14   1 H    0.998 --     1 C    0.984
    15   1 H    0.995 --     1 C    0.983
    16   1 H    0.997 --     1 C    0.985
    17   1 H    0.997 --     2 C    0.966
    18   1 H    0.995 --     2 C    0.970
    19   1 H    0.993 --     3 C    0.964
    20   1 H    0.992 --     3 C    0.965
    21   1 H    0.993 --     5 C    0.965
    22   1 H    0.993 --     5 C    0.961
    23   1 H    0.998 --     7 C    0.967
    24   1 H    0.996 --     8 C    0.969
    25   1 H    0.996 --     9 C    0.969
    26   1 H    0.996 --    10 C    0.969
    27   1 H    0.998 --    11 C    0.968
    28   1 H    0.991 --    12 C    0.975
    29   1 H    0.990 --    12 C    0.974
    30   1 H    0.990 --    12 C    0.972
    31   1 H    0.990 --    13 C    0.973
    32   1 H    0.990 --    13 C    0.972
    33   1 H    0.991 --    13 C    0.975
 ---------------------------------------------------------------------------

molecular dipole:
                 x           y           z       tot (Debye)
 q only:        0.623      -4.882      -2.676
   full:        0.609      -4.951      -2.614      14.314

           -------------------------------------------------
          | TOTAL ENERGY              -38.409488440103 Eh   |
          | GRADIENT NORM               0.000704326371 Eh/α |
          | HOMO-LUMO GAP               4.645478298623 eV   |
           -------------------------------------------------

 * finished run on 2024/12/20 at 07:02:41.843
