   * xtb version 6.7.1 (edcfbbe) compiled by 'conda@3ef47c1a292c' on 2024-11-25

   ID    Z sym.   atoms
    1    6 C      1-11, 13, 15, 16, 18, 19, 21-31
    2    8 O      12, 20
    3    7 N      14, 17
    4    1 H      32-84

          program call               : xtb C0898.xyz --opt --namespace C0898 --charge +1
          :  Hamiltonian                  GFN2-xTB          :
 * total energy  :   -98.4591069 Eh     change       -0.9597017E-09 Eh
 * total energy  :   -98.4699954 Eh     change       -0.1088844E-01 Eh
 * total energy  :   -98.4723544 Eh     change       -0.2358998E-02 Eh
 * total energy  :   -98.4728486 Eh     change       -0.4942771E-03 Eh
 * total energy  :   -98.4732125 Eh     change       -0.3638441E-03 Eh
 * total energy  :   -98.4733982 Eh     change       -0.1856872E-03 Eh
 * total energy  :   -98.4735692 Eh     change       -0.1709845E-03 Eh
 * total energy  :   -98.4737495 Eh     change       -0.1803058E-03 Eh
 * total energy  :   -98.4739289 Eh     change       -0.1794568E-03 Eh
 * total energy  :   -98.4741059 Eh     change       -0.1769601E-03 Eh
 * total energy  :   -98.4841250 Eh     change       -0.2885834E-04 Eh
 * total energy  :   -98.4841386 Eh     change       -0.1352523E-04 Eh
 * total energy  :   -98.4841594 Eh     change       -0.2084284E-04 Eh
 * total energy  :   -98.4841535 Eh     change        0.5937114E-05 Eh
 * total energy  :   -98.4841684 Eh     change       -0.1494602E-04 Eh
 * total energy  :   -98.4841760 Eh     change       -0.7580618E-05 Eh
 * total energy  :   -98.4841828 Eh     change       -0.6843467E-05 Eh
 * total energy  :   -98.4841899 Eh     change       -0.7102668E-05 Eh
 * total energy  :   -98.4841926 Eh     change       -0.2677960E-05 Eh
   *** GEOMETRY OPTIMIZATION CONVERGED AFTER 169 ITERATIONS ***

 final structure:
================
84
 xtb: 6.7.1 (edcfbbe)
C            1.00103094954884        1.29062079352107        0.01208712104696
C           -0.08234025016226        0.89105690751191        1.00720334771715
C           -0.27936220182147        1.90836909216069        2.13192821402087
C           -0.69322614230562        3.30853562810725        1.67345177967513
C           -2.01076439752686        3.36257196053700        0.89667435011969
C           -3.24331576376864        2.87401822164985        1.66126870481279
C           -3.50933202584681        3.56202842946352        3.00287422000248
C           -3.65902239417595        5.08423997278490        2.94756395556893
C           -4.82726495141924        5.55019289270890        2.07912485559303
C           -5.14258567075389        7.04274335911644        2.22926453742840
C           -4.01352231737184        8.02710877436385        1.91300442931045
O           -3.77462564042035        8.21825550107235        0.51162315785009
C           -2.90550813225348        7.35495657043149       -0.10398178401377
N           -1.50454188393992        7.76197700863190        0.12112341906693
C           -0.59967049206788        7.15643762724672        0.94283469098555
C            0.54229302031763        7.89547756504246        0.90157155749075
N            0.31157257700764        8.94777694349126        0.06642416743565
C           -0.93198935755146        8.84755771242829       -0.39117905722467
C            1.28097623626821        9.97029400411253       -0.36212859918960
O            1.20720408421021       10.18979004442879       -1.71325222642491
C            1.62257303377698        9.13218242410973       -2.58745860312427
C            3.08715767007245        8.69977799744046       -2.47428033113802
C            3.41441643671592        7.57324857185458       -1.48310325820280
C            2.55862687936045        6.30999812922340       -1.60653591851171
C            2.58498030133135        5.64735143298890       -2.98517727346994
C            3.96173670540307        5.15473819028270       -3.43504969221135
C            4.62566482724605        4.14440881794623       -2.49647049569929
C            3.79093412970028        2.89933055502265       -2.18921225296750
C            3.36746500870492        2.08420257698327       -3.41258583061623
C            4.52228218559238        1.52063663127657       -4.24141742631091
C            5.38174239463032        0.52393001964805       -3.47312755052698
H            0.70427159538144        2.16235729565435       -0.56748001755783
H            1.18901179458764        0.47632788623741       -0.68298624057240
H            1.93089036985390        1.51688285070837        0.52971123967372
H           -1.02289349249453        0.73131955247231        0.47741326409650
H            0.19550296057868       -0.06060987515422        1.46452258996825
H           -1.02732147174228        1.52166439624000        2.82572132732947
H            0.65869756981587        2.00106732909363        2.68522170382842
H           -0.76395708663594        3.94364644344036        2.56104858066914
H            0.09764196049849        3.72060966234694        1.03984003159482
H           -2.17649913782958        4.39272948362147        0.56299930590571
H           -1.91373385053582        2.75998533036642       -0.00770168222032
H           -4.11471567668583        2.99575156779757        1.01433916669135
H           -3.13762537026681        1.80540742272615        1.85114762504735
H           -4.42531528827686        3.13874159219908        3.41923925776799
H           -2.70111424068105        3.32269708420105        3.69635033896554
H           -3.82080151647882        5.44478510268876        3.96620423118801
H           -2.72135461003889        5.52278876720620        2.59801358009607
H           -4.65270047347842        5.30368268363094        1.03046022349616
H           -5.71933171447992        5.00021308001737        2.38472467861813
H           -5.99044411535143        7.29302282841504        1.58985993040489
H           -5.43962349050404        7.23013759154027        3.26269049490807
H           -4.31014877711147        9.01893644146488        2.26081131318293
H           -3.08519801957110        7.74712251441466        2.42180917591621
H           -2.98919563304989        6.31791510989473        0.23899950327704
H           -3.10024153723492        7.41268958453660       -1.18039075924101
H           -0.80800186465430        6.24668809627050        1.47005744406183
H            1.47680857178917        7.74557404916630        1.40200494526457
H           -1.39564648353127        9.53588830643908       -1.07185949309626
H            1.02425514439924       10.92163534147068        0.11950399539726
H            2.26841306656381        9.63939055216744       -0.01758704317187
H            0.95103064801345        8.27316387976058       -2.47195530662784
H            1.45034368098822        9.56736732398366       -3.57296319883885
H            3.39623905858232        8.37205389480696       -3.46681633909106
H            3.68679223853672        9.57884947785982       -2.22916246312212
H            4.45766535650562        7.30048291755610       -1.64605265447550
H            3.34975279845317        7.93058240949653       -0.45166044426392
H            2.91149604787128        5.59416441493864       -0.86240449388223
H            1.51676656631688        6.53543301905280       -1.35243734381271
H            1.89643745228926        4.80062447384871       -2.96372831834940
H            2.20660319881046        6.34846185785246       -3.73257312284912
H            3.84756392946073        4.70229439165753       -4.42118181735804
H            4.63402282846348        6.00720214382871       -3.55354878153893
H            5.57035893080266        3.83844299876904       -2.94794863443100
H            4.87310897085038        4.63271852094843       -1.55046698455758
H            4.36902777906484        2.25992372621323       -1.52022476593060
H            2.88951602923172        3.19153618869590       -1.64537035498760
H            2.75231319071894        1.25073827237810       -3.06368608295182
H            2.73951190123086        2.69971968413985       -4.06040943189360
H            4.09724005099553        1.01878281952729       -5.11385708545082
H            5.14888077836740        2.33450248253347       -4.61001765317914
H            4.76394267423752       -0.26790366341453       -3.05473513012746
H            6.11436399000614        0.07058588553525       -4.13627696592137
H            5.91798789903877        1.00871045333445       -2.66129354650134

          :  Hamiltonian                  GFN2-xTB          :
         :: total energy             -98.484192609551 Eh    ::
         :: gradient norm              0.000364255860 Eh/a0 ::
         :: HOMO-LUMO gap              1.784507010194 eV    ::
         :: SCC energy               -99.829877643321 Eh    ::
         :: -> dispersion             -0.077818745908 Eh    ::
         :: repulsion energy           1.345685033771 Eh    ::

    * Orbital Energies and Occupations

         #    Occupation            Energy/Eh            Energy/eV
      -------------------------------------------------------------
         1        2.0000           -0.8970329             -24.4095
       ...           ...                  ...                  ...
        79        2.0000           -0.5162122             -14.0468
        80        2.0000           -0.5146764             -14.0051
        81        2.0000           -0.5122326             -13.9386
        82        2.0000           -0.5077013             -13.8153
        83        2.0000           -0.5055626             -13.7571
        84        2.0000           -0.5012702             -13.6403
        85        2.0000           -0.5005106             -13.6196
        86        2.0000           -0.4966129             -13.5135
        87        2.0000           -0.4962962             -13.5049
        88        2.0000           -0.4933485             -13.4247
        89        2.0000           -0.4832078             -13.1488
        90        2.0000           -0.4789324             -13.0324
        91        2.0000           -0.4759402             -12.9510 (HOMO)
        92                         -0.4103607             -11.1665 (LUMO)
        93                         -0.3733250             -10.1587
        94                         -0.2024826              -5.5098
        95                         -0.1509440              -4.1074
        96                         -0.1193413              -3.2474
        97                         -0.1133760              -3.0851
        98                         -0.0736177              -2.0032
        99                         -0.0567922              -1.5454
       100                         -0.0498181              -1.3556
       101                         -0.0374525              -1.0191
       102                         -0.0361872              -0.9847
       ...                                ...                  ...
       177                          0.4619188              12.5695
      -------------------------------------------------------------
                  HL-Gap            0.0655794 Eh            1.7845 eV

     #   Z          covCN         q      C6AA      α(0)
     1   6 C        3.751    -0.100    22.477     6.761
     2   6 C        3.800    -0.055    21.567     6.612
     3   6 C        3.801    -0.059    21.643     6.624
     4   6 C        3.799    -0.054    21.553     6.610
     5   6 C        3.799    -0.051    21.497     6.602
     6   6 C        3.800    -0.062    21.687     6.631
     7   6 C        3.800    -0.062    21.690     6.631
     8   6 C        3.800    -0.056    21.581     6.614
     9   6 C        3.800    -0.063    21.706     6.633
    10   6 C        3.799    -0.077    21.979     6.675
    11   6 C        3.688     0.065    19.675     6.349
    12   8 O        1.701    -0.289    18.804     5.855
    13   6 C        3.630     0.124    18.934     6.266
    14   7 N        2.866     0.029    20.742     6.764
    15   6 C        3.068    -0.000    27.962     8.671
    16   6 C        3.066    -0.000    27.966     8.671
    17   7 N        2.868     0.036    20.606     6.742
    18   6 C        3.091     0.072    26.278     8.402
    19   6 C        3.629     0.123    18.948     6.268
    20   8 O        1.701    -0.290    18.823     5.858
    21   6 C        3.687     0.062    19.723     6.357
    22   6 C        3.798    -0.078    21.989     6.677
    23   6 C        3.799    -0.062    21.689     6.631
    24   6 C        3.799    -0.055    21.566     6.612
    25   6 C        3.800    -0.059    21.643     6.624
    26   6 C        3.800    -0.060    21.650     6.625
    27   6 C        3.800    -0.058    21.627     6.621
    28   6 C        3.800    -0.058    21.610     6.619
    29   6 C        3.801    -0.058    21.612     6.619
    30   6 C        3.800    -0.053    21.534     6.607
    31   6 C        3.751    -0.103    22.531     6.769
    32   1 H        0.925     0.025     2.653     2.547
    33   1 H        0.925     0.038     2.480     2.463
    34   1 H        0.925     0.035     2.513     2.479
    35   1 H        0.924     0.033     2.540     2.493
    36   1 H        0.924     0.037     2.494     2.470
    37   1 H        0.924     0.037     2.493     2.469
    38   1 H        0.924     0.033     2.548     2.496
    39   1 H        0.924     0.020     2.734     2.586
    40   1 H        0.924     0.021     2.722     2.580
    41   1 H        0.924    -0.003     3.106     2.756
    42   1 H        0.924     0.039     2.460     2.453
    43   1 H        0.924     0.032     2.553     2.498
    44   1 H        0.924     0.045     2.383     2.414
    45   1 H        0.924     0.040     2.445     2.445
    46   1 H        0.924     0.040     2.455     2.450
    47   1 H        0.924     0.036     2.496     2.471
    48   1 H        0.924     0.010     2.891     2.659
    49   1 H        0.924     0.031     2.573     2.509
    50   1 H        0.924     0.053     2.288     2.366
    51   1 H        0.924     0.062     2.177     2.307
    52   1 H        0.924     0.056     2.247     2.344
    53   1 H        0.924     0.071     2.077     2.254
    54   1 H        0.924     0.030     2.580     2.512
    55   1 H        0.924     0.085     1.929     2.172
    56   1 H        0.924     0.092     1.858     2.132
    57   1 H        0.926     0.114     1.664     2.017
    58   1 H        0.926     0.109     1.706     2.042
    59   1 H        0.926     0.129     1.544     1.943
    60   1 H        0.924     0.100     1.783     2.088
    61   1 H        0.924     0.082     1.958     2.188
    62   1 H        0.924     0.030     2.589     2.516
    63   1 H        0.924     0.078     1.995     2.209
    64   1 H        0.925     0.064     2.158     2.297
    65   1 H        0.924     0.056     2.248     2.345
    66   1 H        0.924     0.057     2.233     2.337
    67   1 H        0.924     0.014     2.821     2.627
    68   1 H        0.924     0.043     2.411     2.428
    69   1 H        0.924    -0.003     3.103     2.755
    70   1 H        0.924     0.037     2.484     2.465
    71   1 H        0.924     0.026     2.637     2.540
    72   1 H        0.924     0.042     2.429     2.437
    73   1 H        0.924     0.029     2.594     2.519
    74   1 H        0.924     0.040     2.442     2.444
    75   1 H        0.924     0.024     2.676     2.558
    76   1 H        0.924     0.036     2.499     2.472
    77   1 H        0.924     0.022     2.710     2.574
    78   1 H        0.924     0.030     2.584     2.514
    79   1 H        0.924     0.026     2.643     2.542
    80   1 H        0.924     0.030     2.583     2.513
    81   1 H        0.924     0.032     2.565     2.504
    82   1 H        0.925     0.035     2.521     2.483
    83   1 H        0.925     0.036     2.501     2.473
    84   1 H        0.925     0.034     2.530     2.487

Wiberg/Mayer (AO) data.
largest (>0.10) Wiberg bond orders for each atom

     #   Z sym  total        # sym  WBO       # sym  WBO       # sym  WBO
 ---------------------------------------------------------------------------
     1   6 C    3.997 --     2 C    1.020    34 H    0.987    33 H    0.987
                            32 H    0.986
     2   6 C    3.997 --     1 C    1.020     3 C    1.008    36 H    0.977
                            35 H    0.976
     3   6 C    3.996 --     2 C    1.008     4 C    1.007    38 H    0.977
                            37 H    0.975
     4   6 C    3.998 --     5 C    1.007     3 C    1.007    40 H    0.976
                            39 H    0.974
     5   6 C    3.997 --     6 C    1.007     4 C    1.007    42 H    0.974
                            41 H    0.967
     6   6 C    3.996 --     7 C    1.008     5 C    1.007    43 H    0.976
                            44 H    0.974
     7   6 C    3.995 --     6 C    1.008     8 C    1.006    45 H    0.976
                            46 H    0.974
     8   6 C    3.997 --     9 C    1.009     7 C    1.006    47 H    0.976
                            48 H    0.969
     9   6 C    3.995 --     8 C    1.009    10 C    1.006    50 H    0.973
                            49 H    0.971
    10   6 C    3.990 --     9 C    1.006    11 C    1.001    51 H    0.973
                            52 H    0.971
    11   6 C    3.926 --    10 C    1.001    54 H    0.969    53 H    0.969
                            12 O    0.941
    12   8 O    2.129 --    13 C    1.052    11 C    0.941
    13   6 C    3.925 --    12 O    1.052    56 H    0.953    55 H    0.941
                            14 N    0.915
    14   7 N    3.695 --    18 C    1.369    15 C    1.223    13 C    0.915
    15   6 C    3.946 --    16 C    1.596    14 N    1.223    57 H    0.952
    16   6 C    3.947 --    15 C    1.596    17 N    1.222    58 H    0.960
    17   7 N    3.701 --    18 C    1.375    16 C    1.222    19 C    0.920
    18   6 C    3.946 --    17 N    1.375    14 N    1.369    59 H    0.951
    19   6 C    3.928 --    20 O    1.053    60 H    0.946    61 H    0.946
                            17 N    0.920
    20   8 O    2.126 --    19 C    1.053    21 C    0.942
    21   6 C    3.926 --    22 C    1.001    63 H    0.968    62 H    0.966
                            20 O    0.942
    22   6 C    3.990 --    23 C    1.006    21 C    1.001    65 H    0.972
                            64 H    0.970
    23   6 C    3.995 --    24 C    1.007    22 C    1.006    66 H    0.972
                            67 H    0.971
    24   6 C    3.997 --    23 C    1.007    25 C    1.007    68 H    0.973
                            69 H    0.972
    25   6 C    3.996 --    26 C    1.007    24 C    1.007    71 H    0.976
                            70 H    0.974
    26   6 C    3.996 --    27 C    1.007    25 C    1.007    73 H    0.975
                            72 H    0.974
    27   6 C    3.997 --    28 C    1.008    26 C    1.007    75 H    0.976
                            74 H    0.974
    28   6 C    3.997 --    27 C    1.008    29 C    1.008    76 H    0.975
                            77 H    0.974
    29   6 C    3.998 --    30 C    1.008    28 C    1.008    78 H    0.977
                            79 H    0.975
    30   6 C    3.998 --    31 C    1.020    29 C    1.008    80 H    0.978
                            81 H    0.976
    31   6 C    3.997 --    30 C    1.020    82 H    0.987    83 H    0.987
                            84 H    0.986
    32   1 H    0.999 --     1 C    0.986
    33   1 H    0.999 --     1 C    0.987
    34   1 H    0.999 --     1 C    0.987
    35   1 H    0.999 --     2 C    0.976
    36   1 H    0.999 --     2 C    0.977
    37   1 H    0.999 --     3 C    0.975
    38   1 H    0.999 --     3 C    0.977
    39   1 H    1.000 --     4 C    0.974
    40   1 H    1.000 --     4 C    0.976
    41   1 H    1.000 --     5 C    0.967
    42   1 H    0.998 --     5 C    0.974
    43   1 H    0.999 --     6 C    0.976
    44   1 H    0.998 --     6 C    0.974
    45   1 H    0.998 --     7 C    0.976
    46   1 H    0.998 --     7 C    0.974
    47   1 H    0.999 --     8 C    0.976
    48   1 H    1.000 --     8 C    0.969
    49   1 H    0.999 --     9 C    0.971
    50   1 H    0.997 --     9 C    0.973
    51   1 H    0.996 --    10 C    0.973
    52   1 H    0.997 --    10 C    0.971
    53   1 H    0.995 --    11 C    0.969
    54   1 H    0.999 --    11 C    0.969
    55   1 H    0.992 --    13 C    0.941
    56   1 H    0.991 --    13 C    0.953
    57   1 H    0.987 --    15 C    0.952
    58   1 H    0.988 --    16 C    0.960
    59   1 H    0.983 --    18 C    0.951
    60   1 H    0.990 --    19 C    0.946
    61   1 H    0.993 --    19 C    0.946
    62   1 H    0.999 --    21 C    0.966
    63   1 H    0.994 --    21 C    0.968
    64   1 H    0.996 --    22 C    0.970
    65   1 H    0.997 --    22 C    0.972
    66   1 H    0.997 --    23 C    0.972
    67   1 H    1.000 --    23 C    0.971
    68   1 H    0.998 --    24 C    0.973
    69   1 H    1.000 --    24 C    0.972
    70   1 H    0.999 --    25 C    0.974
    71   1 H    0.999 --    25 C    0.976
    72   1 H    0.998 --    26 C    0.974
    73   1 H    0.999 --    26 C    0.975
    74   1 H    0.998 --    27 C    0.974
    75   1 H    0.999 --    27 C    0.976
    76   1 H    0.999 --    28 C    0.975
    77   1 H    1.000 --    28 C    0.974
    78   1 H    0.999 --    29 C    0.977
    79   1 H    0.999 --    29 C    0.975
    80   1 H    0.999 --    30 C    0.978
    81   1 H    0.999 --    30 C    0.976
    82   1 H    0.999 --    31 C    0.987
    83   1 H    0.999 --    31 C    0.987
    84   1 H    0.999 --    31 C    0.986
 ---------------------------------------------------------------------------

molecular dipole:
                 x           y           z       tot (Debye)
 q only:       -0.747      14.210       0.376
   full:       -0.662      14.159       0.489      36.048

           -------------------------------------------------
          | TOTAL ENERGY              -98.484192609551 Eh   |
          | GRADIENT NORM               0.000364255860 Eh/α |
          | HOMO-LUMO GAP               1.784507010194 eV   |
           -------------------------------------------------

 * finished run on 2024/12/20 at 07:03:00.904
