   * xtb version 6.7.1 (edcfbbe) compiled by 'conda@3ef47c1a292c' on 2024-11-25

   ID    Z sym.   atoms
    1    6 C      1, 3, 5-7
    2    8 O      2
    3    7 N      4
    4    1 H      8-21

          program call               : xtb C0894.xyz --opt --namespace C0894 --charge +1
          :  Hamiltonian                  GFN2-xTB          :
 * total energy  :   -24.4087031 Eh     change       -0.6441070E-11 Eh
 * total energy  :   -24.4133559 Eh     change       -0.4652764E-02 Eh
 * total energy  :   -24.4146156 Eh     change       -0.1259704E-02 Eh
 * total energy  :   -24.4148467 Eh     change       -0.2311306E-03 Eh
 * total energy  :   -24.4150401 Eh     change       -0.1933816E-03 Eh
 * total energy  :   -24.4151363 Eh     change       -0.9624793E-04 Eh
 * total energy  :   -24.4151909 Eh     change       -0.5453395E-04 Eh
 * total energy  :   -24.4152196 Eh     change       -0.2869407E-04 Eh
 * total energy  :   -24.4152495 Eh     change       -0.2990980E-04 Eh
 * total energy  :   -24.4152652 Eh     change       -0.1567752E-04 Eh
 * total energy  :   -24.4153023 Eh     change       -0.3717853E-04 Eh
 * total energy  :   -24.4153206 Eh     change       -0.1821195E-04 Eh
 * total energy  :   -24.4153441 Eh     change       -0.2358170E-04 Eh
 * total energy  :   -24.4153647 Eh     change       -0.2055539E-04 Eh
 * total energy  :   -24.4153847 Eh     change       -0.1997674E-04 Eh
 * total energy  :   -24.4153898 Eh     change       -0.5175712E-05 Eh
 * total energy  :   -24.4153928 Eh     change       -0.2990052E-05 Eh
   *** GEOMETRY OPTIMIZATION CONVERGED AFTER 17 ITERATIONS ***

 final structure:
================
21
 xtb: 6.7.1 (edcfbbe)
C            1.08392669330350        0.47007068049022        0.87008537448243
O            0.52185549057243       -0.62449166451242        0.16070414371616
C            1.08683731604976       -1.85043849907630        0.48626996083326
N            0.41587114299807       -2.89252502091303       -0.34217565585966
C            0.62471676296701       -2.58019785890677       -1.76999089682742
C            0.98367539121047       -4.21527671100903       -0.03090530985151
C           -1.03047829723153       -2.88527303573091       -0.04647018640266
H            0.55602659832669        1.35184499025210        0.51800748797821
H            2.15131714616190        0.56984956915036        0.65501020389717
H            0.93629846878590        0.35563781036279        1.94744940866770
H            2.16779468963578       -1.86610809992905        0.26890735020418
H            0.93701253793521       -2.09345063828303        1.55147643603224
H            1.68511103611904       -2.62287318951793       -2.01223651697766
H            0.09028762319873       -3.29651584164194       -2.39009871854169
H            0.25595823958791       -1.57674909725621       -1.97512818635985
H            0.82887738889998       -4.45896537315368        1.01901709944683
H            0.49884083975809       -4.97587146568418       -0.64049891098241
H            2.05216892574154       -4.22995154663082       -0.23996321735566
H           -1.20089061534297       -3.13961225504538        0.99809663553421
H           -1.43094411933422       -1.89116290550205       -0.23721156975081
H           -1.54287325934343       -3.60966984746266       -0.67583493188299

          :  Hamiltonian                  GFN2-xTB          :
         :: total energy             -24.415392830967 Eh    ::
         :: gradient norm              0.000693031069 Eh/a0 ::
         :: HOMO-LUMO gap              8.904888020780 eV    ::
         :: SCC energy               -24.702104811071 Eh    ::
         :: -> dispersion             -0.011747492532 Eh    ::
         :: repulsion energy           0.286711980103 Eh    ::

    * Orbital Energies and Occupations

         #    Occupation            Energy/Eh            Energy/eV
      -------------------------------------------------------------
         1        2.0000           -0.8883848             -24.1742
       ...           ...                  ...                  ...
        10        2.0000           -0.7308376             -19.8871
        11        2.0000           -0.7148411             -19.4518
        12        2.0000           -0.7014586             -19.0877
        13        2.0000           -0.6721591             -18.2904
        14        2.0000           -0.6687569             -18.1978
        15        2.0000           -0.6679046             -18.1746
        16        2.0000           -0.6517413             -17.7348
        17        2.0000           -0.6504941             -17.7008
        18        2.0000           -0.6472710             -17.6131
        19        2.0000           -0.6469770             -17.6051
        20        2.0000           -0.6409573             -17.4413
        21        2.0000           -0.6049682             -16.4620
        22        2.0000           -0.5656300             -15.3916 (HOMO)
        23                         -0.2383814              -6.4867 (LUMO)
        24                         -0.1757233              -4.7817
        25                         -0.1619034              -4.4056
        26                         -0.1548780              -4.2144
        27                         -0.1018768              -2.7722
        28                         -0.0791110              -2.1527
        29                         -0.0273019              -0.7429
        30                         -0.0068478              -0.1863
        31                          0.0115767               0.3150
        32                          0.0119258               0.3245
        33                          0.0167125               0.4548
       ...                                ...                  ...
        42                          0.1067337               2.9044
      -------------------------------------------------------------
                  HL-Gap            0.3272486 Eh            8.9049 eV

     #   Z          covCN         q      C6AA      α(0)
     1   6 C        3.652     0.017    20.591     6.516
     2   8 O        1.701    -0.294    18.883     5.867
     3   6 C        3.671     0.114    18.945     6.239
     4   7 N        3.623     0.140    18.867     6.451
     5   6 C        3.722    -0.101    22.548     6.781
     6   6 C        3.720    -0.103    22.581     6.787
     7   6 C        3.722    -0.101    22.546     6.781
     8   1 H        0.925     0.098     1.807     2.102
     9   1 H        0.924     0.058     2.227     2.334
    10   1 H        0.924     0.058     2.223     2.332
    11   1 H        0.923     0.072     2.069     2.249
    12   1 H        0.923     0.072     2.068     2.249
    13   1 H        0.925     0.101     1.776     2.084
    14   1 H        0.925     0.105     1.744     2.065
    15   1 H        0.925     0.123     1.592     1.973
    16   1 H        0.925     0.102     1.768     2.079
    17   1 H        0.925     0.111     1.686     2.031
    18   1 H        0.925     0.102     1.769     2.080
    19   1 H        0.925     0.101     1.775     2.083
    20   1 H        0.925     0.123     1.592     1.973
    21   1 H        0.925     0.104     1.745     2.066

Wiberg/Mayer (AO) data.
largest (>0.10) Wiberg bond orders for each atom

     #   Z sym  total        # sym  WBO       # sym  WBO       # sym  WBO
 ---------------------------------------------------------------------------
     1   6 C    3.915 --    10 H    0.978     9 H    0.978     8 H    0.974
                             2 O    0.956
     2   8 O    2.083 --     3 C    1.024     1 C    0.956
     3   6 C    3.931 --     2 O    1.024    11 H    0.955    12 H    0.955
                             4 N    0.931
     4   7 N    3.815 --     6 C    0.957     7 C    0.949     5 C    0.949
                             3 C    0.931
     5   6 C    3.914 --    13 H    0.975    14 H    0.974    15 H    0.969
                             4 N    0.949
     6   6 C    3.922 --    18 H    0.974    16 H    0.974    17 H    0.972
                             4 N    0.957
     7   6 C    3.914 --    19 H    0.975    21 H    0.974    20 H    0.969
                             4 N    0.949
     8   1 H    0.990 --     1 C    0.974
     9   1 H    0.997 --     1 C    0.978
    10   1 H    0.997 --     1 C    0.978
    11   1 H    0.995 --     3 C    0.955
    12   1 H    0.995 --     3 C    0.955
    13   1 H    0.990 --     5 C    0.975
    14   1 H    0.989 --     5 C    0.974
    15   1 H    0.985 --     5 C    0.969
    16   1 H    0.990 --     6 C    0.974
    17   1 H    0.987 --     6 C    0.972
    18   1 H    0.990 --     6 C    0.974
    19   1 H    0.990 --     7 C    0.975
    20   1 H    0.985 --     7 C    0.969
    21   1 H    0.989 --     7 C    0.974
 ---------------------------------------------------------------------------

molecular dipole:
                 x           y           z       tot (Debye)
 q only:        1.027      -5.109      -0.363
   full:        1.197      -5.188      -0.216      13.543

           -------------------------------------------------
          | TOTAL ENERGY              -24.415392830967 Eh   |
          | GRADIENT NORM               0.000693031069 Eh/α |
          | HOMO-LUMO GAP               8.904888020780 eV   |
           -------------------------------------------------

 * finished run on 2024/12/20 at 07:02:42.226
