   * xtb version 6.7.1 (edcfbbe) compiled by 'conda@3ef47c1a292c' on 2024-11-25

   ID    Z sym.   atoms
    1    6 C      1-8, 10, 12, 14
    2   16 S      9
    3    7 N      11, 13
    4    1 H      15-39

          program call               : xtb C0901.xyz --opt --namespace C0901 --charge +1
          :  Hamiltonian                  GFN2-xTB          :
 * total energy  :   -44.9983155 Eh     change       -0.5309957E-09 Eh
 * total energy  :   -45.0025030 Eh     change       -0.4187546E-02 Eh
 * total energy  :   -45.0038815 Eh     change       -0.1378501E-02 Eh
 * total energy  :   -45.0045400 Eh     change       -0.6584928E-03 Eh
 * total energy  :   -45.0053868 Eh     change       -0.8467404E-03 Eh
 * total energy  :   -45.0060528 Eh     change       -0.6659964E-03 Eh
 * total energy  :   -45.0066416 Eh     change       -0.5888487E-03 Eh
 * total energy  :   -45.0070119 Eh     change       -0.3702816E-03 Eh
 * total energy  :   -45.0072419 Eh     change       -0.2300237E-03 Eh
 * total energy  :   -45.0073839 Eh     change       -0.1419532E-03 Eh
 * total energy  :   -45.0101238 Eh     change       -0.3360271E-06 Eh
 * total energy  :   -45.0101445 Eh     change       -0.2067200E-04 Eh
 * total energy  :   -45.0101514 Eh     change       -0.6931113E-05 Eh
 * total energy  :   -45.0101610 Eh     change       -0.9579101E-05 Eh
 * total energy  :   -45.0101699 Eh     change       -0.8977441E-05 Eh
 * total energy  :   -45.0101676 Eh     change        0.2349291E-05 Eh
 * total energy  :   -45.0101739 Eh     change       -0.6291300E-05 Eh
 * total energy  :   -45.0101796 Eh     change       -0.5677790E-05 Eh
 * total energy  :   -45.0101835 Eh     change       -0.3930941E-05 Eh
   *** GEOMETRY OPTIMIZATION CONVERGED AFTER 67 ITERATIONS ***

 final structure:
================
39
 xtb: 6.7.1 (edcfbbe)
C            1.20280068249637        0.02760806830420        0.45427190494727
C            0.21952994473937       -1.12338807685480        0.27984615367982
C            0.37517126641195       -2.30353891789616        1.24307813380510
C           -0.34466542845785       -2.12295046815059        2.58485646838077
C           -1.85155332368870       -2.38598418367126        2.49857052875089
C           -2.23704637752976       -3.85526436245652        2.31394779478254
C           -1.87211977005645       -4.77432869385987        3.48145719013942
C           -2.57796701146657       -4.41012136442481        4.78224944057519
S            0.84152241420574        1.19596071187823        1.82485245132874
C            1.81345752403756        0.69307720944732        3.17476169788660
N            2.47172038460882       -0.45702529540682        3.17974601398218
C            3.31206092292750       -0.91878982457893        4.26520037271411
N            1.88088095122942        1.53139500556043        4.19619187218706
C            1.21787515477826        2.81462850884439        4.23026693836440
H            1.13318897583725        0.68694624839114       -0.41280781482576
H            2.23745051309582       -0.30208810068555        0.54191849157376
H           -0.79860826944151       -0.73670230089424        0.33762010555549
H            0.36768681697639       -1.48671841768260       -0.73973061600091
H           -0.03751149297270       -3.18832691389747        0.75854435835177
H            1.43984982152813       -2.51729436274614        1.39352295123491
H            0.08915789896751       -2.80362168862003        3.31862893504871
H           -0.20314076581460       -1.10515138855449        2.95604591689594
H           -2.31949222905364       -2.01241588152919        3.40994650863820
H           -2.26898776409532       -1.81425692184846        1.66697991965815
H           -3.31807554534742       -3.89865936798065        2.16835555337379
H           -1.77613308838188       -4.24691247089011        1.40453665141217
H           -2.15519165972278       -5.79141568720796        3.20420922939777
H           -0.79128372101175       -4.77616261221987        3.63919380973330
H           -3.65319735409771       -4.36118285379127        4.62879508839151
H           -2.37673978663764       -5.16210317504384        5.54099164801716
H           -2.24031027323918       -3.44941579218845        5.16405769038788
H            2.26705318060669       -1.12083093741179        2.44471897230416
H            2.72510982939008       -1.13190480288831        5.16189376811202
H            3.80580313394401       -1.83464430358604        3.95302581783512
H            4.07997981448816       -0.17993639495041        4.49880801720697
H            2.38473142115576        1.24800960441951        5.02436356761326
H            1.53470599854024        3.35320580162519        5.11765676712469
H            1.47649948022547        3.39933751449376        3.34649677788806
H            0.13368773083620        2.69232688896302        4.25548092353390

          :  Hamiltonian                  GFN2-xTB          :
         :: total energy             -45.010183490937 Eh    ::
         :: gradient norm              0.000395111329 Eh/a0 ::
         :: HOMO-LUMO gap              2.676629452943 eV    ::
         :: SCC energy               -45.628143387913 Eh    ::
         :: -> dispersion             -0.031331749279 Eh    ::
         :: repulsion energy           0.617959896975 Eh    ::

    * Orbital Energies and Occupations

         #    Occupation            Energy/Eh            Energy/eV
      -------------------------------------------------------------
         1        2.0000           -0.8905367             -24.2327
       ...           ...                  ...                  ...
        30        2.0000           -0.5862612             -15.9530
        31        2.0000           -0.5799516             -15.7813
        32        2.0000           -0.5667687             -15.4226
        33        2.0000           -0.5658498             -15.3976
        34        2.0000           -0.5628012             -15.3146
        35        2.0000           -0.5582153             -15.1898
        36        2.0000           -0.5447829             -14.8243
        37        2.0000           -0.5380602             -14.6414
        38        2.0000           -0.5357645             -14.5789
        39        2.0000           -0.5285962             -14.3838
        40        2.0000           -0.5088933             -13.8477
        41        2.0000           -0.5054681             -13.7545
        42        2.0000           -0.5014510             -13.6452 (HOMO)
        43                         -0.4030867             -10.9685 (LUMO)
        44                         -0.3525477              -9.5933
        45                         -0.3148899              -8.5686
        46                         -0.1851987              -5.0395
        47                         -0.1747717              -4.7558
        48                         -0.1604027              -4.3648
        49                         -0.1183517              -3.2205
        50                         -0.1150283              -3.1301
        51                         -0.0601531              -1.6368
        52                         -0.0534870              -1.4555
        53                         -0.0410251              -1.1163
       ...                                ...                  ...
        86                          0.3581214               9.7450
      -------------------------------------------------------------
                  HL-Gap            0.0983643 Eh            2.6766 eV

     #   Z          covCN         q      C6AA      α(0)
     1   6 C        3.792    -0.030    21.122     6.545
     2   6 C        3.812    -0.070    21.831     6.650
     3   6 C        3.799    -0.065    21.752     6.641
     4   6 C        3.800    -0.062    21.698     6.632
     5   6 C        3.800    -0.061    21.682     6.630
     6   6 C        3.801    -0.062    21.688     6.630
     7   6 C        3.799    -0.054    21.549     6.609
     8   6 C        3.751    -0.105    22.564     6.774
     9  16 S        2.071    -0.012   141.564    20.025
    10   6 C        2.811     0.163    24.467     8.104
    11   7 N        2.724    -0.126    23.735     7.236
    12   6 C        3.689    -0.069    22.026     6.717
    13   7 N        2.762    -0.101    23.218     7.156
    14   6 C        3.696    -0.075    22.122     6.728
    15   1 H        0.925     0.088     1.898     2.154
    16   1 H        0.925     0.065     2.142     2.288
    17   1 H        0.924     0.070     2.091     2.261
    18   1 H        0.924     0.067     2.123     2.278
    19   1 H        0.925     0.065     2.143     2.289
    20   1 H        0.924     0.019     2.743     2.590
    21   1 H        0.924     0.039     2.456     2.451
    22   1 H        0.924     0.014     2.829     2.630
    23   1 H        0.924     0.042     2.418     2.432
    24   1 H        0.924     0.033     2.548     2.496
    25   1 H        0.924     0.043     2.414     2.430
    26   1 H        0.924     0.030     2.589     2.516
    27   1 H        0.924     0.038     2.471     2.458
    28   1 H        0.924     0.025     2.665     2.553
    29   1 H        0.925     0.041     2.433     2.439
    30   1 H        0.925     0.039     2.462     2.454
    31   1 H        0.925     0.029     2.605     2.524
    32   1 H        0.860     0.223     0.998     1.565
    33   1 H        0.924     0.081     1.970     2.195
    34   1 H        0.925     0.097     1.808     2.103
    35   1 H        0.924     0.082     1.955     2.186
    36   1 H        0.860     0.213     1.040     1.598
    37   1 H        0.925     0.098     1.799     2.098
    38   1 H        0.924     0.096     1.822     2.111
    39   1 H        0.924     0.094     1.845     2.124

Wiberg/Mayer (AO) data.
largest (>0.10) Wiberg bond orders for each atom

     #   Z sym  total        # sym  WBO       # sym  WBO       # sym  WBO
 ---------------------------------------------------------------------------
     1   6 C    3.952 --     2 C    1.012     9 S    0.964    16 H    0.962
                            15 H    0.960
     2   6 C    3.986 --     1 C    1.012     3 C    1.007    17 H    0.967
                            18 H    0.961
     3   6 C    3.993 --     2 C    1.007     4 C    1.006    19 H    0.966
                            20 H    0.962
     4   6 C    3.997 --     5 C    1.007     3 C    1.006    22 H    0.974
                            21 H    0.973
     5   6 C    3.996 --     6 C    1.008     4 C    1.007    24 H    0.974
                            23 H    0.974
     6   6 C    3.996 --     5 C    1.008     7 C    1.008    25 H    0.975
                            26 H    0.973
     7   6 C    3.998 --     8 C    1.020     6 C    1.008    27 H    0.977
                            28 H    0.975
     8   6 C    3.996 --     7 C    1.020    29 H    0.987    30 H    0.987
                            31 H    0.986
     9  16 S    2.438 --    10 C    1.163     1 C    0.964
    10   6 C    3.973 --    13 N    1.367    11 N    1.349     9 S    1.163
    11   7 N    3.500 --    10 C    1.349    12 C    0.990    32 H    0.897
                            13 N    0.125
    12   6 C    3.946 --    11 N    0.990    34 H    0.977    35 H    0.971
                            33 H    0.967
    13   7 N    3.528 --    10 C    1.367    14 C    0.996    36 H    0.916
                            11 N    0.125
    14   6 C    3.938 --    13 N    0.996    37 H    0.977    38 H    0.964
                            39 H    0.964
    15   1 H    0.992 --     1 C    0.960
    16   1 H    0.996 --     1 C    0.962
    17   1 H    0.995 --     2 C    0.967
    18   1 H    0.995 --     2 C    0.961
    19   1 H    0.996 --     3 C    0.966
    20   1 H    1.000 --     3 C    0.962
    21   1 H    0.998 --     4 C    0.973
    22   1 H    1.000 --     4 C    0.974
    23   1 H    0.998 --     5 C    0.974
    24   1 H    0.999 --     5 C    0.974
    25   1 H    0.998 --     6 C    0.975
    26   1 H    0.999 --     6 C    0.973
    27   1 H    0.999 --     7 C    0.977
    28   1 H    0.999 --     7 C    0.975
    29   1 H    0.998 --     8 C    0.987
    30   1 H    0.998 --     8 C    0.987
    31   1 H    0.999 --     8 C    0.986
    32   1 H    0.950 --    11 N    0.897
    33   1 H    0.993 --    12 C    0.967
    34   1 H    0.990 --    12 C    0.977
    35   1 H    0.993 --    12 C    0.971
    36   1 H    0.954 --    13 N    0.916
    37   1 H    0.990 --    14 C    0.977
    38   1 H    0.991 --    14 C    0.964
    39   1 H    0.991 --    14 C    0.964
 ---------------------------------------------------------------------------

molecular dipole:
                 x           y           z       tot (Debye)
 q only:        3.292       0.398       5.914
   full:        3.494       0.136       5.811      17.239

           -------------------------------------------------
          | TOTAL ENERGY              -45.010183490937 Eh   |
          | GRADIENT NORM               0.000395111329 Eh/α |
          | HOMO-LUMO GAP               2.676629452943 eV   |
           -------------------------------------------------

 * finished run on 2024/12/20 at 07:03:05.403
