   * xtb version 6.7.1 (edcfbbe) compiled by 'conda@3ef47c1a292c' on 2024-11-25

   ID    Z sym.   atoms
    1    6 C      1-3, 5, 6, 8-12
    2    8 O      4
    3    7 N      7
    4    1 H      13-36

          program call               : xtb C0908.xyz --opt --namespace C0908 --charge +1
          :  Hamiltonian                  GFN2-xTB          :
 * total energy  :   -40.2193308 Eh     change       -0.6009770E-10 Eh
 * total energy  :   -40.2265030 Eh     change       -0.7172180E-02 Eh
 * total energy  :   -40.2282368 Eh     change       -0.1733843E-02 Eh
 * total energy  :   -40.2284677 Eh     change       -0.2308182E-03 Eh
 * total energy  :   -40.2290012 Eh     change       -0.5335736E-03 Eh
 * total energy  :   -40.2294270 Eh     change       -0.4257443E-03 Eh
 * total energy  :   -40.2302243 Eh     change       -0.7972954E-03 Eh
 * total energy  :   -40.2312661 Eh     change       -0.1041855E-02 Eh
 * total energy  :   -40.2322821 Eh     change       -0.1015967E-02 Eh
 * total energy  :   -40.2331880 Eh     change       -0.9059482E-03 Eh
 * total energy  :   -40.2471769 Eh     change       -0.2787897E-04 Eh
 * total energy  :   -40.2471922 Eh     change       -0.1533149E-04 Eh
 * total energy  :   -40.2472000 Eh     change       -0.7807867E-05 Eh
 * total energy  :   -40.2472186 Eh     change       -0.1856270E-04 Eh
 * total energy  :   -40.2472316 Eh     change       -0.1300955E-04 Eh
 * total energy  :   -40.2472398 Eh     change       -0.8157701E-05 Eh
 * total energy  :   -40.2472366 Eh     change        0.3177335E-05 Eh
 * total energy  :   -40.2472443 Eh     change       -0.7717147E-05 Eh
 * total energy  :   -40.2472466 Eh     change       -0.2339329E-05 Eh
   *** GEOMETRY OPTIMIZATION CONVERGED AFTER 79 ITERATIONS ***

 final structure:
================
36
 xtb: 6.7.1 (edcfbbe)
C           -1.75059034820235        1.52848763167435        2.32360602356874
C           -0.55904883617460        1.71256100873533        1.39251980818506
C            0.12210835025200        0.37255226679657        1.11694043928805
O            1.28660266816616        0.48914514813990        0.30283783097464
C            1.06035968515912        0.60512390127445       -1.09160793037028
C            2.13949235688295        1.51833792910110       -1.73772274012348
N            3.48611054197836        1.57205213363875       -1.09715033417335
C            3.99309827163585        0.22667847219686       -0.77510566233536
C            4.41810847706714        2.21895350163427       -2.04163625120356
C            3.43514318559017        2.38025461572470        0.13737702305523
C            0.96599547368481       -0.77806350857391       -1.76189498987637
C            0.31590118402252       -0.72327533281021       -3.13920260468553
H           -2.48446194552445        0.85968999366903        1.88079820177097
H           -2.22925358578673        2.48444119867378        2.51379606725723
H           -1.43225795888407        1.10840585661706        3.27405469399775
H           -0.89877410320102        2.15912789016198        0.45479851679207
H            0.16252409230801        2.39441261437774        1.84779986239936
H            0.48494657648067       -0.05944242603019        2.05236799419313
H           -0.58853481213097       -0.32769452796698        0.66561147623429
H            0.09953348975779        1.11054568304038       -1.26256170929183
H            2.26842704218708        1.17963303365938       -2.76698483152342
H            1.76715692598587        2.54407063283313       -1.76313702165599
H            4.06286883717352       -0.37308184288071       -1.68025579779965
H            4.98418441395224        0.30275416551889       -0.33141693772826
H            3.32097944786102       -0.25235417372783       -0.06605409642279
H            4.05074654444450        3.20397931457632       -2.32445480486311
H            5.39606287439622        2.33340217021435       -1.57717389870969
H            4.53096510356824        1.61652014355093       -2.94143230703275
H            3.12835596234952        3.39865446056990       -0.09298226767775
H            2.71905653542204        1.93430742107417        0.82450259777545
H            4.41719660529458        2.40671029506764        0.60490896664272
H            1.94713994787170       -1.24590645748903       -1.83066372767447
H            0.35644540696428       -1.41017718052073       -1.11413546597989
H            0.90617659324918       -0.14660581540434       -3.84795286952360
H            0.21200342822249       -1.72943828637269       -3.53445152695791
H           -0.67471843202366       -0.27959193071858       -3.08106172652693

          :  Hamiltonian                  GFN2-xTB          :
         :: total energy             -40.247246646394 Eh    ::
         :: gradient norm              0.000264249021 Eh/a0 ::
         :: HOMO-LUMO gap              8.000095566667 eV    ::
         :: SCC energy               -40.769056074597 Eh    ::
         :: -> dispersion             -0.026009691418 Eh    ::
         :: repulsion energy           0.521809428203 Eh    ::

    * Orbital Energies and Occupations

         #    Occupation            Energy/Eh            Energy/eV
      -------------------------------------------------------------
         1        2.0000           -0.8613178             -23.4377
       ...           ...                  ...                  ...
        25        2.0000           -0.6294669             -17.1287
        26        2.0000           -0.6198431             -16.8668
        27        2.0000           -0.6151113             -16.7380
        28        2.0000           -0.6065295             -16.5045
        29        2.0000           -0.5931844             -16.1414
        30        2.0000           -0.5831455             -15.8682
        31        2.0000           -0.5721094             -15.5679
        32        2.0000           -0.5658587             -15.3978
        33        2.0000           -0.5611033             -15.2684
        34        2.0000           -0.5559667             -15.1286
        35        2.0000           -0.5498232             -14.9615
        36        2.0000           -0.5332204             -14.5097
        37        2.0000           -0.5209195             -14.1749 (HOMO)
        38                         -0.2269214              -6.1748 (LUMO)
        39                         -0.1607291              -4.3737
        40                         -0.1558506              -4.2409
        41                         -0.1370304              -3.7288
        42                         -0.1276008              -3.4722
        43                         -0.0620605              -1.6888
        44                         -0.0495076              -1.3472
        45                         -0.0461583              -1.2560
        46                         -0.0353136              -0.9609
        47                         -0.0191637              -0.5215
        48                         -0.0028255              -0.0769
       ...                                ...                  ...
        72                          0.2015592               5.4847
      -------------------------------------------------------------
                  HL-Gap            0.2939981 Eh            8.0001 eV

     #   Z          covCN         q      C6AA      α(0)
     1   6 C        3.753    -0.114    22.737     6.799
     2   6 C        3.799    -0.065    21.744     6.639
     3   6 C        3.689     0.069    19.608     6.337
     4   8 O        1.698    -0.341    19.721     5.996
     5   6 C        3.734     0.105    18.931     6.210
     6   6 C        3.760    -0.050    21.514     6.612
     7   7 N        3.622     0.153    18.650     6.414
     8   6 C        3.720    -0.102    22.566     6.785
     9   6 C        3.730    -0.099    22.485     6.769
    10   6 C        3.723    -0.105    22.615     6.791
    11   6 C        3.799    -0.079    22.016     6.681
    12   6 C        3.752    -0.117    22.805     6.810
    13   1 H        0.925     0.046     2.369     2.407
    14   1 H        0.925     0.056     2.251     2.346
    15   1 H        0.925     0.047     2.354     2.399
    16   1 H        0.924     0.035     2.513     2.479
    17   1 H        0.924     0.041     2.435     2.441
    18   1 H        0.924     0.062     2.178     2.308
    19   1 H        0.924     0.038     2.476     2.461
    20   1 H        0.923     0.055     2.257     2.350
    21   1 H        0.924     0.093     1.853     2.129
    22   1 H        0.924     0.085     1.930     2.172
    23   1 H        0.925     0.094     1.839     2.121
    24   1 H        0.925     0.095     1.828     2.114
    25   1 H        0.925     0.126     1.563     1.955
    26   1 H        0.925     0.097     1.812     2.105
    27   1 H        0.925     0.102     1.769     2.080
    28   1 H        0.925     0.097     1.815     2.107
    29   1 H        0.925     0.092     1.858     2.132
    30   1 H        0.925     0.129     1.546     1.944
    31   1 H        0.925     0.095     1.836     2.119
    32   1 H        0.925     0.046     2.370     2.407
    33   1 H        0.924     0.063     2.159     2.298
    34   1 H        0.925     0.035     2.520     2.482
    35   1 H        0.925     0.064     2.150     2.293
    36   1 H        0.925     0.050     2.316     2.380

Wiberg/Mayer (AO) data.
largest (>0.10) Wiberg bond orders for each atom

     #   Z sym  total        # sym  WBO       # sym  WBO       # sym  WBO
 ---------------------------------------------------------------------------
     1   6 C    3.992 --     2 C    1.017    15 H    0.987    13 H    0.987
                            14 H    0.985
     2   6 C    3.996 --     1 C    1.017     3 C    1.001    17 H    0.977
                            16 H    0.974
     3   6 C    3.934 --     2 C    1.001    19 H    0.969    18 H    0.968
                             4 O    0.955
     4   8 O    2.076 --     5 C    0.979     3 C    0.955
     5   6 C    3.951 --    11 C    0.984     4 O    0.979     6 C    0.977
                            20 H    0.953
     6   6 C    3.934 --     5 C    0.977    22 H    0.970    21 H    0.963
                             7 N    0.937
     7   7 N    3.820 --     9 C    0.959     8 C    0.955    10 C    0.953
                             6 C    0.937
     8   6 C    3.920 --    24 H    0.975    23 H    0.974    25 H    0.963
                             7 N    0.955
     9   6 C    3.930 --    26 H    0.976    28 H    0.975    27 H    0.974
                             7 N    0.959
    10   6 C    3.917 --    29 H    0.976    31 H    0.976    30 H    0.959
                             7 N    0.953
    11   6 C    3.991 --    12 C    1.019     5 C    0.984    32 H    0.973
                            33 H    0.969
    12   6 C    3.992 --    11 C    1.019    36 H    0.986    34 H    0.983
                            35 H    0.983
    13   1 H    0.998 --     1 C    0.987
    14   1 H    0.997 --     1 C    0.985
    15   1 H    0.998 --     1 C    0.987
    16   1 H    0.999 --     2 C    0.974
    17   1 H    0.998 --     2 C    0.977
    18   1 H    0.996 --     3 C    0.968
    19   1 H    0.999 --     3 C    0.969
    20   1 H    0.997 --     5 C    0.953
    21   1 H    0.991 --     6 C    0.963
    22   1 H    0.993 --     6 C    0.970
    23   1 H    0.991 --     8 C    0.974
    24   1 H    0.991 --     8 C    0.975
    25   1 H    0.984 --     8 C    0.963
    26   1 H    0.991 --     9 C    0.976
    27   1 H    0.989 --     9 C    0.974
    28   1 H    0.991 --     9 C    0.975
    29   1 H    0.991 --    10 C    0.976
    30   1 H    0.983 --    10 C    0.959
    31   1 H    0.991 --    10 C    0.976
    32   1 H    0.998 --    11 C    0.973
    33   1 H    0.996 --    11 C    0.969
    34   1 H    0.999 --    12 C    0.983
    35   1 H    0.996 --    12 C    0.983
    36   1 H    0.997 --    12 C    0.986
 ---------------------------------------------------------------------------

molecular dipole:
                 x           y           z       tot (Debye)
 q only:        5.496       2.669      -1.964
   full:        5.414       2.724      -2.088      16.293

           -------------------------------------------------
          | TOTAL ENERGY              -40.247246646394 Eh   |
          | GRADIENT NORM               0.000264249021 Eh/α |
          | HOMO-LUMO GAP               8.000095566667 eV   |
           -------------------------------------------------

 * finished run on 2024/12/20 at 07:03:34.253
