   * xtb version 6.7.1 (edcfbbe) compiled by 'conda@3ef47c1a292c' on 2024-11-25

   ID    Z sym.   atoms
    1    8 O      1
    2    6 C      2, 3, 5-11
    3    7 N      4
    4    1 H      12-23

          program call               : xtb C0900.xyz --opt --namespace C0900 --charge +1
          :  Hamiltonian                  GFN2-xTB          :
 * total energy  :   -31.9420500 Eh     change       -0.1121450E-09 Eh
 * total energy  :   -31.9465172 Eh     change       -0.4467264E-02 Eh
 * total energy  :   -31.9478068 Eh     change       -0.1289597E-02 Eh
 * total energy  :   -31.9481551 Eh     change       -0.3482885E-03 Eh
 * total energy  :   -31.9484487 Eh     change       -0.2935560E-03 Eh
 * total energy  :   -31.9486449 Eh     change       -0.1962097E-03 Eh
 * total energy  :   -31.9490618 Eh     change       -0.4169123E-03 Eh
 * total energy  :   -31.9495556 Eh     change       -0.4938126E-03 Eh
 * total energy  :   -31.9500166 Eh     change       -0.4609664E-03 Eh
 * total energy  :   -31.9502802 Eh     change       -0.2636470E-03 Eh
 * total energy  :   -31.9551691 Eh     change       -0.1359962E-04 Eh
 * total energy  :   -31.9551900 Eh     change       -0.2088800E-04 Eh
 * total energy  :   -31.9552081 Eh     change       -0.1815968E-04 Eh
 * total energy  :   -31.9552183 Eh     change       -0.1015671E-04 Eh
 * total energy  :   -31.9552254 Eh     change       -0.7090022E-05 Eh
 * total energy  :   -31.9552316 Eh     change       -0.6240715E-05 Eh
 * total energy  :   -31.9552371 Eh     change       -0.5485388E-05 Eh
 * total energy  :   -31.9552417 Eh     change       -0.4599518E-05 Eh
 * total energy  :   -31.9552458 Eh     change       -0.4121120E-05 Eh
   *** GEOMETRY OPTIMIZATION CONVERGED AFTER 66 ITERATIONS ***

 final structure:
================
23
 xtb: 6.7.1 (edcfbbe)
O            2.56169778706964        0.47400828089323        2.01530038913792
C            2.87407435070600       -0.10105379473958        1.01433694213324
C            3.74135242168075        0.64773144055842       -0.05328038771049
N            4.36821413559586        1.77629581275592        0.57872391017333
C            3.57774026002696        2.74285630657780        1.06908016197875
C            4.10085159230798        3.76986192992886        1.82988426147394
C            5.46284775312303        3.79983484487581        2.08928425422629
C            6.26516708524724        2.78992295628063        1.56703661387131
C            5.68661406326736        1.78416757931071        0.82666131823303
C            2.51218078970671       -1.49795004296083        0.63211413675771
C            1.43775666868166       -2.08140218165515        1.54253256024448
H            4.48313709461476       -0.02177356304507       -0.48781895903378
H            3.05631342840119        0.97997355622137       -0.83875720627651
H            2.52566843933585        2.69741479643756        0.83370513026769
H            3.44327060237386        4.53288204723688        2.21429185033801
H            5.89367045969994        4.59088602942708        2.68234058658099
H            7.32906718143174        2.77789737733812        1.74119677194892
H            6.27392420728486        0.97446224097377        0.41920044257824
H            2.19286885619573       -1.51360384578554       -0.41306834856735
H            3.42241575182416       -2.10326512238453        0.69502586955095
H            0.51640819343709       -1.51125787644649        1.46004854446330
H            1.23547729967974       -3.11132911676959        1.26501443426322
H            1.76244157830606       -2.05518965502811        2.57931672336506

          :  Hamiltonian                  GFN2-xTB          :
         :: total energy             -31.955245833631 Eh    ::
         :: gradient norm              0.000771423641 Eh/a0 ::
         :: HOMO-LUMO gap              2.672520799200 eV    ::
         :: SCC energy               -32.449717760961 Eh    ::
         :: -> dispersion             -0.016839181103 Eh    ::
         :: repulsion energy           0.494471927330 Eh    ::

    * Orbital Energies and Occupations

         #    Occupation            Energy/Eh            Energy/eV
      -------------------------------------------------------------
         1        2.0000           -0.8838371             -24.0504
       ...           ...                  ...                  ...
        17        2.0000           -0.6791069             -18.4794
        18        2.0000           -0.6744374             -18.3524
        19        2.0000           -0.6591140             -17.9354
        20        2.0000           -0.6514690             -17.7274
        21        2.0000           -0.6314745             -17.1833
        22        2.0000           -0.6285551             -17.1039
        23        2.0000           -0.6207687             -16.8920
        24        2.0000           -0.6202037             -16.8766
        25        2.0000           -0.6130917             -16.6831
        26        2.0000           -0.5988812             -16.2964
        27        2.0000           -0.5775089             -15.7148
        28        2.0000           -0.5639473             -15.3458
        29        2.0000           -0.5554529             -15.1146 (HOMO)
        30                         -0.4572396             -12.4421 (LUMO)
        31                         -0.4250547             -11.5663
        32                         -0.4076808             -11.0936
        33                         -0.3056889              -8.3182
        34                         -0.1686535              -4.5893
        35                         -0.1173146              -3.1923
        36                         -0.0786855              -2.1411
        37                         -0.0407862              -1.1098
        38                         -0.0274599              -0.7472
        39                         -0.0133854              -0.3642
        40                         -0.0089118              -0.2425
       ...                                ...                  ...
        56                          0.5022346              13.6665
      -------------------------------------------------------------
                  HL-Gap            0.0982133 Eh            2.6725 eV

     #   Z          covCN         q      C6AA      α(0)
     1   8 O        0.857    -0.307    19.900     5.981
     2   6 C        2.810     0.241    22.982     7.854
     3   6 C        3.763    -0.066    21.818     6.658
     4   7 N        2.751     0.117    19.232     6.513
     5   6 C        2.896     0.042    27.064     8.530
     6   6 C        2.915    -0.007    28.185     8.706
     7   6 C        2.924     0.014    27.696     8.630
     8   6 C        2.915    -0.009    28.253     8.716
     9   6 C        2.888     0.030    27.339     8.572
    10   6 C        3.802    -0.085    22.126     6.697
    11   6 C        3.754    -0.113    22.720     6.797
    12   1 H        0.925     0.103     1.758     2.074
    13   1 H        0.924     0.115     1.658     2.014
    14   1 H        0.926     0.117     1.641     2.003
    15   1 H        0.926     0.111     1.685     2.030
    16   1 H        0.926     0.108     1.710     2.045
    17   1 H        0.926     0.109     1.708     2.044
    18   1 H        0.926     0.104     1.751     2.069
    19   1 H        0.924     0.083     1.949     2.183
    20   1 H        0.924     0.094     1.844     2.124
    21   1 H        0.925     0.063     2.160     2.298
    22   1 H        0.925     0.069     2.101     2.267
    23   1 H        0.925     0.069     2.096     2.264

Wiberg/Mayer (AO) data.
largest (>0.10) Wiberg bond orders for each atom

     #   Z sym  total        # sym  WBO       # sym  WBO       # sym  WBO
 ---------------------------------------------------------------------------
     1   8 O    2.163 --     2 C    1.897
     2   6 C    3.918 --     1 O    1.897    10 C    1.014     3 C    0.902
     3   6 C    3.946 --     4 N    0.999    12 H    0.959    13 H    0.938
                             2 C    0.902
     4   7 N    3.762 --     5 C    1.308     9 C    1.304     3 C    0.999
     5   6 C    3.952 --     6 C    1.449     4 N    1.308    14 H    0.954
     6   6 C    3.980 --     5 C    1.449     7 C    1.434    15 H    0.958
     7   6 C    3.966 --     6 C    1.434     8 C    1.405    16 H    0.961
     8   6 C    3.981 --     9 C    1.480     7 C    1.405    17 H    0.959
     9   6 C    3.956 --     8 C    1.480     4 N    1.304    18 H    0.955
    10   6 C    3.984 --     2 C    1.014    11 C    1.010    19 H    0.945
                            20 H    0.926
    11   6 C    3.979 --    10 C    1.010    21 H    0.985    23 H    0.984
                            22 H    0.981
    12   1 H    0.989 --     3 C    0.959
    13   1 H    0.987 --     3 C    0.938
    14   1 H    0.986 --     5 C    0.954
    15   1 H    0.987 --     6 C    0.958
    16   1 H    0.988 --     7 C    0.961
    17   1 H    0.988 --     8 C    0.959
    18   1 H    0.989 --     9 C    0.955
    19   1 H    0.993 --    10 C    0.945
    20   1 H    0.991 --    10 C    0.926
    21   1 H    0.996 --    11 C    0.985
    22   1 H    0.993 --    11 C    0.981
    23   1 H    0.995 --    11 C    0.984
 ---------------------------------------------------------------------------

molecular dipole:
                 x           y           z       tot (Debye)
 q only:        8.352       2.996       1.229
   full:        8.464       2.947       0.999      22.920

           -------------------------------------------------
          | TOTAL ENERGY              -31.955245833631 Eh   |
          | GRADIENT NORM               0.000771423641 Eh/α |
          | HOMO-LUMO GAP               2.672520799200 eV   |
           -------------------------------------------------

 * finished run on 2024/12/20 at 07:03:03.667
