   * xtb version 6.7.1 (edcfbbe) compiled by 'conda@3ef47c1a292c' on 2024-11-25

   ID    Z sym.   atoms
    1    7 N      1, 5
    2    6 C      2-4, 6-11
    3    1 H      12-22

          program call               : xtb C0904.xyz --opt --namespace C0904 --charge +1
          :  Hamiltonian                  GFN2-xTB          :
 * total energy  :   -30.2419342 Eh     change       -0.4742908E-09 Eh
 * total energy  :   -30.2743390 Eh     change       -0.3240479E-01 Eh
 * total energy  :   -30.2759972 Eh     change       -0.1658269E-02 Eh
 * total energy  :   -30.2764053 Eh     change       -0.4080886E-03 Eh
 * total energy  :   -30.2766513 Eh     change       -0.2459708E-03 Eh
 * total energy  :   -30.2768793 Eh     change       -0.2280562E-03 Eh
 * total energy  :   -30.2770682 Eh     change       -0.1888346E-03 Eh
 * total energy  :   -30.2772167 Eh     change       -0.1485100E-03 Eh
 * total energy  :   -30.2773270 Eh     change       -0.1102956E-03 Eh
 * total energy  :   -30.2774833 Eh     change       -0.1563029E-03 Eh
 * total energy  :   -30.2813899 Eh     change       -0.9961466E-04 Eh
 * total energy  :   -30.2814026 Eh     change       -0.1272589E-04 Eh
 * total energy  :   -30.2814214 Eh     change       -0.1879145E-04 Eh
 * total energy  :   -30.2814328 Eh     change       -0.1138843E-04 Eh
 * total energy  :   -30.2814399 Eh     change       -0.7104391E-05 Eh
 * total energy  :   -30.2814471 Eh     change       -0.7169461E-05 Eh
 * total energy  :   -30.2814531 Eh     change       -0.6093174E-05 Eh
 * total energy  :   -30.2814520 Eh     change        0.1184686E-05 Eh
 * total energy  :   -30.2814565 Eh     change       -0.4579807E-05 Eh
   *** GEOMETRY OPTIMIZATION CONVERGED AFTER 43 ITERATIONS ***

 final structure:
================
22
 xtb: 6.7.1 (edcfbbe)
N            1.33455928555606       -1.00080807102269        1.30076556130669
C            2.27083164305808       -0.56037636773628        0.81891319687691
C            3.50423489625811       -0.11422269398595        0.21217197093232
C            4.65356192079803       -1.06051682091434        0.61077187119405
N            4.28222468274859       -2.44159202390933        0.34628365092795
C            3.67324457170735       -3.16260000361928        1.29803567513036
C            3.21769304496285       -4.43516181591666        1.04782966907999
C            3.37639441393024       -5.00719401255908       -0.21767420658633
C            4.02469526476874       -4.22709538568538       -1.18542041082968
C            4.45740432338374       -2.96200217452835       -0.87897375084687
C            2.88862861861682       -6.36617043616886       -0.53212425533048
H            3.36992194495628       -0.09248215539569       -0.87315563910892
H            3.73002917830271        0.89891209632502        0.55128053517071
H            5.55223952093027       -0.80809019498326        0.04372868972273
H            4.86736371014924       -0.95163723209460        1.67661653290293
H            3.55030840893470       -2.70504475558853        2.26842513666053
H            2.72995147415492       -4.98292157887139        1.83920983887749
H            4.18343041532149       -4.61618170396283       -2.17921064244897
H            4.95660399569667       -2.34430744907075       -1.61091437341373
H            3.71185144816939       -6.99273456758715       -0.87509103567898
H            2.42002780234083       -6.83418132049007        0.32810143378319
H            2.16796943525470       -6.32443133223554       -1.34898944832010

          :  Hamiltonian                  GFN2-xTB          :
         :: total energy             -30.281456545336 Eh    ::
         :: gradient norm              0.000908385291 Eh/a0 ::
         :: HOMO-LUMO gap              2.802463344597 eV    ::
         :: SCC energy               -30.830241707756 Eh    ::
         :: -> dispersion             -0.017412904194 Eh    ::
         :: repulsion energy           0.548785162420 Eh    ::

    * Orbital Energies and Occupations

         #    Occupation            Energy/Eh            Energy/eV
      -------------------------------------------------------------
         1        2.0000           -0.8819506             -23.9991
       ...           ...                  ...                  ...
        16        2.0000           -0.6769838             -18.4217
        17        2.0000           -0.6735554             -18.3284
        18        2.0000           -0.6613028             -17.9950
        19        2.0000           -0.6494616             -17.6728
        20        2.0000           -0.6441550             -17.5284
        21        2.0000           -0.6280714             -17.0907
        22        2.0000           -0.6238983             -16.9771
        23        2.0000           -0.6170273             -16.7902
        24        2.0000           -0.6100395             -16.6000
        25        2.0000           -0.6056362             -16.4802
        26        2.0000           -0.6010417             -16.3552
        27        2.0000           -0.5941569             -16.1678
        28        2.0000           -0.5596030             -15.2276 (HOMO)
        29                         -0.4566144             -12.4251 (LUMO)
        30                         -0.4260703             -11.5940
        31                         -0.3479333              -9.4677
        32                         -0.3398284              -9.2472
        33                         -0.3076501              -8.3716
        34                         -0.1837723              -5.0007
        35                         -0.0833537              -2.2682
        36                         -0.0662439              -1.8026
        37                         -0.0599333              -1.6309
        38                         -0.0362767              -0.9871
        39                         -0.0273303              -0.7437
       ...                                ...                  ...
        55                          1.0086780              27.4475
      -------------------------------------------------------------
                  HL-Gap            0.1029886 Eh            2.8025 eV

     #   Z          covCN         q      C6AA      α(0)
     1   7 N        0.911    -0.196    25.256     7.268
     2   6 C        1.899     0.110    28.401     8.607
     3   6 C        3.804    -0.064    21.729     6.636
     4   6 C        3.763    -0.023    21.031     6.537
     5   7 N        2.750     0.089    19.696     6.591
     6   6 C        2.887     0.035    27.208     8.552
     7   6 C        2.920    -0.023    28.570     8.765
     8   6 C        2.969     0.076    26.291     8.411
     9   6 C        2.920    -0.026    28.658     8.779
    10   6 C        2.886     0.030    27.329     8.571
    11   6 C        3.759    -0.136    23.158     6.861
    12   1 H        0.924     0.094     1.845     2.124
    13   1 H        0.924     0.113     1.669     2.020
    14   1 H        0.924     0.097     1.815     2.107
    15   1 H        0.924     0.097     1.812     2.105
    16   1 H        0.926     0.110     1.698     2.038
    17   1 H        0.926     0.109     1.707     2.043
    18   1 H        0.926     0.105     1.742     2.064
    19   1 H        0.926     0.103     1.759     2.074
    20   1 H        0.925     0.105     1.738     2.061
    21   1 H        0.925     0.088     1.895     2.153
    22   1 H        0.925     0.107     1.725     2.054

Wiberg/Mayer (AO) data.
largest (>0.10) Wiberg bond orders for each atom

     #   Z sym  total        # sym  WBO       # sym  WBO       # sym  WBO
 ---------------------------------------------------------------------------
     1   7 N    3.022 --     2 C    2.868
     2   6 C    3.951 --     1 N    2.868     3 C    1.048
     3   6 C    3.986 --     2 C    1.048     4 C    0.964    12 H    0.944
                            13 H    0.936
     4   6 C    3.944 --     5 N    0.970    15 H    0.965     3 C    0.964
                            14 H    0.962
     5   7 N    3.745 --     6 C    1.308    10 C    1.296     4 C    0.970
     6   6 C    3.956 --     7 C    1.486     5 N    1.308    16 H    0.954
     7   6 C    3.981 --     6 C    1.486     8 C    1.366    17 H    0.957
     8   6 C    3.968 --     7 C    1.366     9 C    1.349    11 C    1.069
     9   6 C    3.983 --    10 C    1.508     8 C    1.349    18 H    0.958
    10   6 C    3.959 --     9 C    1.508     5 N    1.296    19 H    0.956
    11   6 C    3.982 --     8 C    1.069    21 H    0.978    20 H    0.939
                            22 H    0.937
    12   1 H    0.991 --     3 C    0.944
    13   1 H    0.986 --     3 C    0.936
    14   1 H    0.990 --     4 C    0.962
    15   1 H    0.990 --     4 C    0.965
    16   1 H    0.988 --     6 C    0.954
    17   1 H    0.988 --     7 C    0.957
    18   1 H    0.989 --     9 C    0.958
    19   1 H    0.989 --    10 C    0.956
    20   1 H    0.988 --    11 C    0.939
    21   1 H    0.992 --    11 C    0.978
    22   1 H    0.988 --    11 C    0.937
 ---------------------------------------------------------------------------

molecular dipole:
                 x           y           z       tot (Debye)
 q only:        7.949      -6.079      -0.159
   full:        8.381      -5.786      -0.356      25.901

           -------------------------------------------------
          | TOTAL ENERGY              -30.281456545336 Eh   |
          | GRADIENT NORM               0.000908385291 Eh/α |
          | HOMO-LUMO GAP               2.802463344597 eV   |
           -------------------------------------------------

 * finished run on 2024/12/20 at 07:03:08.312
