   * xtb version 6.7.1 (edcfbbe) compiled by 'conda@3ef47c1a292c' on 2024-11-25

   ID    Z sym.   atoms
    1    6 C      1, 3, 5, 6, 8, 9
    2    8 O      2
    3    7 N      4, 7
    4    1 H      10-20

          program call               : xtb C0905.xyz --opt --namespace C0905 --charge +1
          :  Hamiltonian                  GFN2-xTB          :
 * total energy  :   -27.9747343 Eh     change       -0.7766587E-10 Eh
 * total energy  :   -27.9781586 Eh     change       -0.3424316E-02 Eh
 * total energy  :   -27.9792142 Eh     change       -0.1055558E-02 Eh
 * total energy  :   -27.9793834 Eh     change       -0.1691841E-03 Eh
 * total energy  :   -27.9794521 Eh     change       -0.6870383E-04 Eh
 * total energy  :   -27.9794749 Eh     change       -0.2281834E-04 Eh
 * total energy  :   -27.9794969 Eh     change       -0.2200379E-04 Eh
 * total energy  :   -27.9795204 Eh     change       -0.2349533E-04 Eh
 * total energy  :   -27.9795451 Eh     change       -0.2465394E-04 Eh
 * total energy  :   -27.9795633 Eh     change       -0.1825494E-04 Eh
 * total energy  :   -27.9795719 Eh     change       -0.8596313E-05 Eh
 * total energy  :   -27.9795784 Eh     change       -0.6447751E-05 Eh
 * total energy  :   -27.9795819 Eh     change       -0.3495470E-05 Eh
   *** GEOMETRY OPTIMIZATION CONVERGED AFTER 13 ITERATIONS ***

 final structure:
================
20
 xtb: 6.7.1 (edcfbbe)
C            1.49597607545803        0.32748391327687        0.07734685794508
O            0.51814275237141        0.18179096590307        1.09993347512096
C            0.83562427682069       -0.69922842097620        2.10062816231164
N            0.53224439076056       -2.08576273732457        1.70169349620933
C            1.25458285308192       -3.20578829125200        1.97900464047983
C            0.59010631366391       -4.25832977010546        1.42460322365196
N           -0.52328945427282       -3.76315660219432        0.81696059809541
C           -0.53932465124016       -2.44685546409822        0.99802820947629
C           -1.50076668391107       -4.52888993233878        0.08945017494681
H            1.12861895692091        1.11605980514315       -0.57370800682701
H            1.61714807787342       -0.59522493706194       -0.49824082819712
H            2.45928668406575        0.62443632390791        0.49921732234902
H            1.89606594871105       -0.66916521823647        2.38917695638771
H            0.20874431068753       -0.44951894016750        2.96584022507728
H            2.16616575187390       -3.18363579018401        2.54044134647990
H            0.83598657719224       -5.30091594008081        1.42342804608345
H           -1.28351553118057       -1.76354490936957        0.63484956715426
H           -2.50725896107906       -4.21451267814874        0.36396935608860
H           -1.37277236772700       -4.38752876251583       -0.98548034733327
H           -1.38110532007055       -5.58540261417652        0.32028752449979

          :  Hamiltonian                  GFN2-xTB          :
         :: total energy             -27.979581856495 Eh    ::
         :: gradient norm              0.000551852985 Eh/a0 ::
         :: HOMO-LUMO gap              4.041685750136 eV    ::
         :: SCC energy               -28.346840923821 Eh    ::
         :: -> dispersion             -0.012864096103 Eh    ::
         :: repulsion energy           0.367259067327 Eh    ::

    * Orbital Energies and Occupations

         #    Occupation            Energy/Eh            Energy/eV
      -------------------------------------------------------------
         1        2.0000           -0.9067072             -24.6728
       ...           ...                  ...                  ...
        13        2.0000           -0.7118230             -19.3697
        14        2.0000           -0.7019012             -19.0997
        15        2.0000           -0.6906586             -18.7938
        16        2.0000           -0.6811375             -18.5347
        17        2.0000           -0.6780699             -18.4512
        18        2.0000           -0.6701418             -18.2355
        19        2.0000           -0.6536931             -17.7879
        20        2.0000           -0.6444615             -17.5367
        21        2.0000           -0.6329316             -17.2229
        22        2.0000           -0.6101723             -16.6036
        23        2.0000           -0.5987507             -16.2928
        24        2.0000           -0.5970807             -16.2474
        25        2.0000           -0.5661974             -15.4070 (HOMO)
        26                         -0.4176682             -11.3653 (LUMO)
        27                         -0.3808895             -10.3645
        28                         -0.2052377              -5.5848
        29                         -0.1486016              -4.0437
        30                         -0.1185995              -3.2273
        31                         -0.0569007              -1.5483
        32                         -0.0546725              -1.4877
        33                         -0.0389423              -1.0597
        34                         -0.0191179              -0.5202
        35                         -0.0130643              -0.3555
        36                         -0.0070561              -0.1920
       ...                                ...                  ...
        47                          0.4507060              12.2643
      -------------------------------------------------------------
                  HL-Gap            0.1485292 Eh            4.0417 eV

     #   Z          covCN         q      C6AA      α(0)
     1   6 C        3.648     0.016    20.636     6.526
     2   8 O        1.702    -0.275    18.565     5.817
     3   6 C        3.639     0.120    18.963     6.263
     4   7 N        2.869     0.034    20.642     6.748
     5   6 C        3.064    -0.003    28.041     8.684
     6   6 C        3.075    -0.006    28.091     8.690
     7   7 N        2.867     0.084    19.787     6.607
     8   6 C        3.094     0.055    26.651     8.461
     9   6 C        3.692    -0.089    22.399     6.772
    10   1 H        0.925     0.097     1.810     2.104
    11   1 H        0.924     0.043     2.414     2.430
    12   1 H        0.924     0.061     2.183     2.311
    13   1 H        0.923     0.080     1.978     2.199
    14   1 H        0.924     0.104     1.745     2.066
    15   1 H        0.926     0.111     1.690     2.033
    16   1 H        0.926     0.115     1.655     2.012
    17   1 H        0.926     0.129     1.545     1.944
    18   1 H        0.925     0.106     1.727     2.055
    19   1 H        0.924     0.108     1.711     2.046
    20   1 H        0.925     0.110     1.695     2.036

Wiberg/Mayer (AO) data.
largest (>0.10) Wiberg bond orders for each atom

     #   Z sym  total        # sym  WBO       # sym  WBO       # sym  WBO
 ---------------------------------------------------------------------------
     1   6 C    3.923 --    11 H    0.981    12 H    0.977    10 H    0.975
                             2 O    0.964
     2   8 O    2.132 --     3 C    1.055     1 C    0.964
     3   6 C    3.929 --     2 O    1.055    13 H    0.953    14 H    0.944
                             4 N    0.922
     4   7 N    3.699 --     8 C    1.360     5 C    1.230     3 C    0.922
     5   6 C    3.947 --     6 C    1.589     4 N    1.230    15 H    0.960
     6   6 C    3.948 --     5 C    1.589     7 N    1.230    16 H    0.959
     7   7 N    3.727 --     8 C    1.372     6 C    1.230     9 C    0.988
     8   6 C    3.944 --     7 N    1.372     4 N    1.360    17 H    0.951
     9   6 C    3.929 --     7 N    0.988    20 H    0.973    18 H    0.967
                            19 H    0.959
    10   1 H    0.990 --     1 C    0.975
    11   1 H    0.998 --     1 C    0.981
    12   1 H    0.996 --     1 C    0.977
    13   1 H    0.993 --     3 C    0.953
    14   1 H    0.989 --     3 C    0.944
    15   1 H    0.988 --     5 C    0.960
    16   1 H    0.986 --     6 C    0.959
    17   1 H    0.983 --     8 C    0.951
    18   1 H    0.988 --     9 C    0.967
    19   1 H    0.988 --     9 C    0.959
    20   1 H    0.987 --     9 C    0.973
 ---------------------------------------------------------------------------

molecular dipole:
                 x           y           z       tot (Debye)
 q only:        0.300      -5.511       1.999
   full:        0.404      -5.573       2.050      15.128

           -------------------------------------------------
          | TOTAL ENERGY              -27.979581856495 Eh   |
          | GRADIENT NORM               0.000551852985 Eh/α |
          | HOMO-LUMO GAP               4.041685750136 eV   |
           -------------------------------------------------

 * finished run on 2024/12/20 at 07:03:08.683
