   * xtb version 6.7.1 (edcfbbe) compiled by 'conda@3ef47c1a292c' on 2024-11-25

   ID    Z sym.   atoms
    1    6 C      1-3, 5, 6, 8, 10-22, 24, 26-37
    2    7 N      4
    3    8 O      7, 9, 23, 25
    4    1 H      38-99

          program call               : xtb C0907.xyz --opt --namespace C0907 --charge +1
          :  Hamiltonian                  GFN2-xTB          :
 * total energy  :  -118.9507410 Eh     change       -0.3048214E-08 Eh
 * total energy  :  -118.9635968 Eh     change       -0.1285571E-01 Eh
 * total energy  :  -118.9673612 Eh     change       -0.3764417E-02 Eh
 * total energy  :  -118.9683132 Eh     change       -0.9520151E-03 Eh
 * total energy  :  -118.9688619 Eh     change       -0.5487508E-03 Eh
 * total energy  :  -118.9691051 Eh     change       -0.2431457E-03 Eh
 * total energy  :  -118.9693004 Eh     change       -0.1953537E-03 Eh
 * total energy  :  -118.9694494 Eh     change       -0.1489457E-03 Eh
 * total energy  :  -118.9695592 Eh     change       -0.1098564E-03 Eh
 * total energy  :  -118.9696513 Eh     change       -0.9206329E-04 Eh
 * total energy  :  -118.9779952 Eh     change       -0.6637264E-05 Eh
 * total energy  :  -118.9780035 Eh     change       -0.8312194E-05 Eh
 * total energy  :  -118.9780142 Eh     change       -0.1063443E-04 Eh
 * total energy  :  -118.9780259 Eh     change       -0.1172439E-04 Eh
 * total energy  :  -118.9780369 Eh     change       -0.1098883E-04 Eh
 * total energy  :  -118.9780457 Eh     change       -0.8822610E-05 Eh
 * total energy  :  -118.9780532 Eh     change       -0.7513795E-05 Eh
 * total energy  :  -118.9780599 Eh     change       -0.6707670E-05 Eh
 * total energy  :  -118.9780624 Eh     change       -0.2484500E-05 Eh
   *** GEOMETRY OPTIMIZATION CONVERGED AFTER 221 ITERATIONS ***

 final structure:
================
99
 xtb: 6.7.1 (edcfbbe)
C           -0.25070658827709       -0.63723897083707       -1.23115387533093
C           -0.75406478699160        0.43658191777171       -0.64827121885592
C           -1.81218062624169        0.34508996755038        0.41188968197507
N           -1.34286586693413        0.79135505978627        1.76704804588916
C           -0.75826093471831        2.16978619117832        1.73272433620132
C           -1.52754380442971        3.27225785978277        0.99596417069638
O           -2.62881256766826        3.81044289960224        1.71342365020864
C           -3.87835322302593        3.50739141167139        1.27153923202970
O           -4.06425767024492        2.63185483427147        0.46688869422749
C           -4.90093028938925        4.38520978631352        1.91566697079239
C           -6.25733685075870        3.70003629854482        2.09426197126550
C           -6.22157827380889        2.49109326589560        3.03095414151726
C           -5.65607369562239        2.76528814259253        4.42740928317421
C           -6.34524351153713        3.90270737551421        5.18568565459299
C           -7.84614569920529        3.71349355268754        5.41143824441077
C           -8.22717228834482        2.48721535471262        6.24280853870351
C           -7.62392998357539        2.44504725997085        7.64863792991394
C           -7.94214180256280        3.65718087587928        8.52701731726540
C           -9.43182757723073        3.91523349012906        8.75763845520841
C          -10.13481251426247        2.77502255477700        9.48441268174945
C           -2.46007692459354        0.78070247424877        2.76133779314580
C           -3.39313525152952       -0.43327409739711        2.81406292158354
O           -2.83841127163940       -1.57711844841674        3.44606946976782
C           -2.49248664105536       -2.62942660835849        2.67036661614707
O           -2.44546199943008       -2.54265957600298        1.46838513651583
C           -2.16930629350740       -3.83624790301253        3.48932834253654
C           -3.45869100131274       -4.46184084255818        4.05232668407144
C           -4.47579673442958       -4.84817397383599        2.97763712252929
C           -3.95702442546054       -5.82148073964055        1.91672391492176
C           -3.41354681343456       -7.14335950134032        2.46219644932730
C           -4.41228013691920       -7.96153851353827        3.28354424984155
C           -5.69510277413107       -8.34718105212374        2.54440535668975
C           -5.48605473757943       -9.16445165653678        1.26798915991689
C           -4.73386896634024      -10.48334196199157        1.45830785157501
C           -5.38842670349680      -11.46611710027687        2.43042470902841
C           -6.77058799185968      -11.92560620351825        1.98198093655886
C           -0.26773251580942       -0.11832885635076        2.21035396312284
H           -0.55750121566893       -1.63197590702950       -0.95154504566444
H            0.47376145650103       -0.56406692265028       -2.02285462481413
H           -0.44823698895758        1.42284334518277       -0.96750127383887
H           -2.68749456998898        0.94284030245491        0.14096286022604
H           -2.10832332481983       -0.70335022088362        0.49429413918966
H           -0.60366620215587        2.49358013993508        2.76494903879483
H            0.21621918467353        2.09355052267399        1.24790419070356
H           -0.83083102064065        4.10674111892379        0.86855925688848
H           -1.87521429260613        2.94645966608372        0.01165355766719
H           -4.50149453107069        4.76213199759808        2.85672772269040
H           -5.02431254034289        5.24339641510612        1.24769746981281
H           -6.96460121004974        4.43711420801339        2.47189072680865
H           -6.61057719553585        3.36596570799270        1.11737423877008
H           -7.23974679458317        2.11371889763575        3.12855934368415
H           -5.63290162512998        1.69855420998493        2.55884114093282
H           -5.73891049125132        1.84787865777816        5.01387026469093
H           -4.58946808237705        3.00066148567446        4.35386001053203
H           -5.85066780995954        4.01142748658393        6.15239452520791
H           -6.19680971118546        4.84029392451406        4.64607882790295
H           -8.22507936141460        4.60857283822095        5.90686514296115
H           -8.35396293034907        3.64546983965722        4.44707237227183
H           -9.31510266230116        2.46066638044837        6.32211660194033
H           -7.92703845105676        1.57956161686847        5.71300584022056
H           -7.98491978762587        1.54218083613857        8.14457597539041
H           -6.53724300662495        2.35316058012738        7.57533280722269
H           -7.46297116975016        3.50356264474889        9.49743110158203
H           -7.49675530267582        4.55177607753226        8.08633029793367
H           -9.52664185737682        4.82469288198212        9.35579289407947
H           -9.93028210748745        4.10162394660415        7.80479809933808
H           -9.62012612369350        2.54175373830941       10.41408054037472
H          -11.15808758877219        3.05590205514950        9.72212473636235
H          -10.16579173059257        1.87712853908048        8.87227898019673
H           -2.01977796483068        0.91232942547427        3.75308847286502
H           -3.09998489360477        1.63503117051832        2.55071076759555
H           -4.23988795442627       -0.13996583254794        3.44295896708092
H           -3.76997696332748       -0.70572420063362        1.82413038580948
H           -1.64433412436252       -4.55466443153693        2.86165089055650
H           -1.53323520084603       -3.53974137345959        4.32452356094953
H           -3.17796140291340       -5.34345626460309        4.62775410850949
H           -3.92150035651696       -3.74889471330388        4.73799284388647
H           -5.34006987028583       -5.28763106241834        3.47739988953035
H           -4.82344688869901       -3.94446905830173        2.46837559730973
H           -4.77681202654554       -6.03140664437585        1.22836820637679
H           -3.17329635049766       -5.33407311886509        1.33229342149524
H           -3.07551777242261       -7.74191439336311        1.61472906392212
H           -2.53545094172619       -6.95188194173901        3.08403862500487
H           -3.90833720472488       -8.86957693086902        3.61925269058101
H           -4.68963264382364       -7.40280691176172        4.18065553831687
H           -6.32321694661267       -8.91506430755863        3.23314060615299
H           -6.24956701539998       -7.44261131367450        2.28367778842204
H           -6.46639398170963       -9.37337739440378        0.83583917158499
H           -4.93997216337126       -8.56252865037144        0.53800667552790
H           -4.64982142379543      -10.96638402243818        0.48136797617586
H           -3.71860467058871      -10.27516098664150        1.80292053668397
H           -4.73792038806906      -12.34010076570850        2.51544436485018
H           -5.45839433445248      -11.01752754940994        3.42296622151412
H           -6.72648111637134      -12.33785603877430        0.97620200900450
H           -7.14595286282207      -12.69654232432628        2.65098003019186
H           -7.47975550098175      -11.10175534146179        1.98604171885448
H           -0.64391672119482       -1.13337869099948        2.28845035954933
H            0.53888180530787       -0.11644595609176        1.47902744856996
H            0.12143666282422        0.19376804377418        3.17779571844776

          :  Hamiltonian                  GFN2-xTB          :
         :: total energy            -118.978062412551 Eh    ::
         :: gradient norm              0.000212034083 Eh/a0 ::
         :: HOMO-LUMO gap              2.811403458963 eV    ::
         :: SCC energy              -120.559509512681 Eh    ::
         :: -> dispersion             -0.091717281579 Eh    ::
         :: repulsion energy           1.581447100130 Eh    ::

    * Orbital Energies and Occupations

         #    Occupation            Energy/Eh            Energy/eV
      -------------------------------------------------------------
         1        2.0000           -0.8725053             -23.7421
       ...           ...                  ...                  ...
        97        2.0000           -0.4966964             -13.5158
        98        2.0000           -0.4931684             -13.4198
        99        2.0000           -0.4930023             -13.4153
       100        2.0000           -0.4891453             -13.3103
       101        2.0000           -0.4837934             -13.1647
       102        2.0000           -0.4807285             -13.0813
       103        2.0000           -0.4770796             -12.9820
       104        2.0000           -0.4759226             -12.9505
       105        2.0000           -0.4718301             -12.8392
       106        2.0000           -0.4693166             -12.7708
       107        2.0000           -0.4649188             -12.6511
       108        2.0000           -0.4604236             -12.5288
       109        2.0000           -0.4586258             -12.4798 (HOMO)
       110                         -0.3553086              -9.6684 (LUMO)
       111                         -0.3532523              -9.6125
       112                         -0.3457675              -9.4088
       113                         -0.2265362              -6.1644
       114                         -0.1648355              -4.4854
       115                         -0.1492690              -4.0618
       116                         -0.1413716              -3.8469
       117                         -0.1283239              -3.4919
       118                         -0.1233324              -3.3560
       119                         -0.0549592              -1.4955
       120                         -0.0505227              -1.3748
       ...                                ...                  ...
       210                          0.5319238              14.4744
      -------------------------------------------------------------
                  HL-Gap            0.1033172 Eh            2.8114 eV

     #   Z          covCN         q      C6AA      α(0)
     1   6 C        2.839    -0.079    29.972     8.972
     2   6 C        2.884    -0.045    29.114     8.846
     3   6 C        3.759    -0.059    21.687     6.639
     4   7 N        3.619     0.124    19.123     6.495
     5   6 C        3.763    -0.045    21.419     6.597
     6   6 C        3.693     0.063    19.688     6.348
     7   8 O        1.704    -0.282    18.688     5.837
     8   6 C        2.711     0.358    20.920     7.487
     9   8 O        0.856    -0.412    21.920     6.277
    10   6 C        3.803    -0.093    22.278     6.720
    11   6 C        3.802    -0.061    21.669     6.627
    12   6 C        3.800    -0.061    21.682     6.630
    13   6 C        3.799    -0.058    21.615     6.620
    14   6 C        3.800    -0.059    21.640     6.623
    15   6 C        3.800    -0.060    21.656     6.626
    16   6 C        3.800    -0.057    21.609     6.619
    17   6 C        3.800    -0.057    21.597     6.617
    18   6 C        3.800    -0.058    21.614     6.619
    19   6 C        3.799    -0.053    21.527     6.606
    20   6 C        3.751    -0.103    22.521     6.768
    21   6 C        3.756    -0.040    21.341     6.587
    22   6 C        3.694     0.064    19.674     6.346
    23   8 O        1.704    -0.270    18.478     5.804
    24   6 C        2.713     0.361    20.876     7.479
    25   8 O        0.856    -0.420    22.084     6.301
    26   6 C        3.803    -0.093    22.265     6.718
    27   6 C        3.803    -0.054    21.550     6.609
    28   6 C        3.800    -0.058    21.610     6.619
    29   6 C        3.800    -0.061    21.669     6.628
    30   6 C        3.800    -0.059    21.632     6.622
    31   6 C        3.800    -0.058    21.620     6.620
    32   6 C        3.800    -0.057    21.603     6.618
    33   6 C        3.800    -0.057    21.608     6.618
    34   6 C        3.800    -0.057    21.607     6.618
    35   6 C        3.799    -0.052    21.515     6.604
    36   6 C        3.751    -0.102    22.512     6.766
    37   6 C        3.724    -0.089    22.307     6.744
    38   1 H        0.926     0.076     2.018     2.221
    39   1 H        0.926     0.075     2.029     2.228
    40   1 H        0.926     0.049     2.337     2.390
    41   1 H        0.924     0.112     1.679     2.026
    42   1 H        0.924     0.123     1.588     1.970
    43   1 H        0.924     0.095     1.829     2.115
    44   1 H        0.924     0.097     1.812     2.105
    45   1 H        0.924     0.091     1.872     2.140
    46   1 H        0.924     0.088     1.901     2.156
    47   1 H        0.925     0.081     1.973     2.197
    48   1 H        0.924     0.092     1.856     2.131
    49   1 H        0.925     0.061     2.190     2.314
    50   1 H        0.924     0.058     2.225     2.333
    51   1 H        0.924     0.053     2.283     2.363
    52   1 H        0.924     0.014     2.825     2.629
    53   1 H        0.924     0.034     2.534     2.489
    54   1 H        0.924     0.010     2.886     2.657
    55   1 H        0.924     0.039     2.468     2.457
    56   1 H        0.924     0.029     2.596     2.520
    57   1 H        0.924     0.040     2.446     2.446
    58   1 H        0.924     0.030     2.591     2.517
    59   1 H        0.924     0.038     2.476     2.461
    60   1 H        0.924     0.022     2.698     2.569
    61   1 H        0.924     0.034     2.528     2.486
    62   1 H        0.924     0.022     2.706     2.572
    63   1 H        0.924     0.030     2.582     2.513
    64   1 H        0.924     0.028     2.622     2.532
    65   1 H        0.924     0.030     2.588     2.516
    66   1 H        0.924     0.031     2.571     2.508
    67   1 H        0.925     0.035     2.520     2.483
    68   1 H        0.925     0.035     2.519     2.482
    69   1 H        0.925     0.033     2.539     2.492
    70   1 H        0.924     0.092     1.859     2.132
    71   1 H        0.925     0.100     1.788     2.091
    72   1 H        0.924     0.092     1.858     2.132
    73   1 H        0.924     0.085     1.928     2.172
    74   1 H        0.925     0.082     1.958     2.188
    75   1 H        0.924     0.070     2.085     2.258
    76   1 H        0.925     0.062     2.178     2.308
    77   1 H        0.924     0.043     2.409     2.427
    78   1 H        0.924     0.048     2.348     2.396
    79   1 H        0.924     0.021     2.721     2.579
    80   1 H        0.924     0.043     2.414     2.430
    81   1 H        0.924     0.031     2.565     2.505
    82   1 H        0.924     0.039     2.469     2.457
    83   1 H        0.924     0.023     2.682     2.561
    84   1 H        0.924     0.036     2.501     2.473
    85   1 H        0.924     0.025     2.660     2.551
    86   1 H        0.924     0.035     2.520     2.483
    87   1 H        0.924     0.025     2.653     2.547
    88   1 H        0.924     0.034     2.534     2.489
    89   1 H        0.924     0.027     2.636     2.539
    90   1 H        0.924     0.030     2.587     2.515
    91   1 H        0.924     0.027     2.627     2.534
    92   1 H        0.924     0.028     2.614     2.528
    93   1 H        0.924     0.030     2.587     2.515
    94   1 H        0.925     0.035     2.523     2.484
    95   1 H        0.925     0.033     2.545     2.495
    96   1 H        0.925     0.034     2.532     2.488
    97   1 H        0.925     0.105     1.744     2.065
    98   1 H        0.925     0.095     1.831     2.116
    99   1 H        0.925     0.087     1.909     2.161

Wiberg/Mayer (AO) data.
largest (>0.10) Wiberg bond orders for each atom

     #   Z sym  total        # sym  WBO       # sym  WBO       # sym  WBO
 ---------------------------------------------------------------------------
     1   6 C    3.981 --     2 C    1.977    39 H    0.973    38 H    0.970
     2   6 C    3.984 --     1 C    1.977     3 C    1.019    40 H    0.962
     3   6 C    3.908 --     2 C    1.019    41 H    0.943    42 H    0.942
                             4 N    0.906
     4   7 N    3.805 --    37 C    0.959    21 C    0.937     5 C    0.937
                             3 C    0.906
     5   6 C    3.943 --     6 C    1.001    43 H    0.965    44 H    0.962
                             4 N    0.937
     6   6 C    3.934 --     5 C    1.001     7 O    0.961    45 H    0.957
                            46 H    0.954
     7   8 O    2.273 --     8 C    1.077     6 C    0.961     9 O    0.158
     8   6 C    3.901 --     9 O    1.749     7 O    1.077    10 C    0.998
     9   8 O    2.049 --     8 C    1.749     7 O    0.158
    10   6 C    3.987 --     8 C    0.998    11 C    0.994    47 H    0.959
                            48 H    0.927
    11   6 C    3.989 --    12 C    1.008    10 C    0.994    50 H    0.975
                            49 H    0.972
    12   6 C    3.996 --    11 C    1.008    13 C    1.007    52 H    0.975
                            51 H    0.973
    13   6 C    3.997 --    12 C    1.007    14 C    1.007    54 H    0.976
                            53 H    0.975
    14   6 C    3.996 --    15 C    1.008    13 C    1.007    56 H    0.975
                            55 H    0.974
    15   6 C    3.997 --    14 C    1.008    16 C    1.008    58 H    0.975
                            57 H    0.974
    16   6 C    3.997 --    15 C    1.008    17 C    1.008    60 H    0.976
                            59 H    0.975
    17   6 C    3.998 --    16 C    1.008    18 C    1.007    62 H    0.976
                            61 H    0.975
    18   6 C    3.997 --    19 C    1.008    17 C    1.007    63 H    0.977
                            64 H    0.976
    19   6 C    3.998 --    20 C    1.020    18 C    1.008    65 H    0.978
                            66 H    0.976
    20   6 C    3.997 --    19 C    1.020    67 H    0.988    68 H    0.987
                            69 H    0.986
    21   6 C    3.940 --    22 C    1.001    70 H    0.964    71 H    0.957
                             4 N    0.937
    22   6 C    3.935 --    21 C    1.001    23 O    0.962    73 H    0.957
                            72 H    0.955
    23   8 O    2.287 --    24 C    1.094    22 C    0.962    25 O    0.160
    24   6 C    3.900 --    25 O    1.735    23 O    1.094    26 C    0.995
    25   8 O    2.040 --    24 C    1.735    23 O    0.160
    26   6 C    3.988 --    24 C    0.995    74 H    0.966    27 C    0.966
                            75 H    0.957
    27   6 C    3.987 --    28 C    1.009    77 H    0.977    76 H    0.970
                            26 C    0.966
    28   6 C    3.995 --    27 C    1.009    29 C    1.007    79 H    0.977
                            78 H    0.972
    29   6 C    3.996 --    30 C    1.008    28 C    1.007    81 H    0.975
                            80 H    0.973
    30   6 C    3.997 --    29 C    1.008    31 C    1.007    83 H    0.975
                            82 H    0.974
    31   6 C    3.997 --    32 C    1.008    30 C    1.007    85 H    0.975
                            84 H    0.975
    32   6 C    3.997 --    33 C    1.008    31 C    1.008    87 H    0.975
                            86 H    0.975
    33   6 C    3.997 --    32 C    1.008    34 C    1.008    89 H    0.975
                            88 H    0.975
    34   6 C    3.998 --    35 C    1.008    33 C    1.008    90 H    0.977
                            91 H    0.976
    35   6 C    3.998 --    36 C    1.020    34 C    1.008    92 H    0.978
                            93 H    0.976
    36   6 C    3.997 --    35 C    1.020    94 H    0.988    95 H    0.987
                            96 H    0.986
    37   6 C    3.929 --    99 H    0.977    98 H    0.972    97 H    0.968
                             4 N    0.959
    38   1 H    0.994 --     1 C    0.970
    39   1 H    0.994 --     1 C    0.973
    40   1 H    0.997 --     2 C    0.962
    41   1 H    0.987 --     3 C    0.943
    42   1 H    0.985 --     3 C    0.942
    43   1 H    0.991 --     5 C    0.965
    44   1 H    0.990 --     5 C    0.962
    45   1 H    0.991 --     6 C    0.957
    46   1 H    0.992 --     6 C    0.954
    47   1 H    0.993 --    10 C    0.959
    48   1 H    0.991 --    10 C    0.927
    49   1 H    0.996 --    11 C    0.972
    50   1 H    0.997 --    11 C    0.975
    51   1 H    0.997 --    12 C    0.973
    52   1 H    1.000 --    12 C    0.975
    53   1 H    0.999 --    13 C    0.975
    54   1 H    1.000 --    13 C    0.976
    55   1 H    0.998 --    14 C    0.974
    56   1 H    0.999 --    14 C    0.975
    57   1 H    0.998 --    15 C    0.974
    58   1 H    0.999 --    15 C    0.975
    59   1 H    0.999 --    16 C    0.975
    60   1 H    0.999 --    16 C    0.976
    61   1 H    0.999 --    17 C    0.975
    62   1 H    1.000 --    17 C    0.976
    63   1 H    0.999 --    18 C    0.977
    64   1 H    0.999 --    18 C    0.976
    65   1 H    0.999 --    19 C    0.978
    66   1 H    0.999 --    19 C    0.976
    67   1 H    0.999 --    20 C    0.988
    68   1 H    0.999 --    20 C    0.987
    69   1 H    0.999 --    20 C    0.986
    70   1 H    0.991 --    21 C    0.964
    71   1 H    0.990 --    21 C    0.957
    72   1 H    0.991 --    22 C    0.955
    73   1 H    0.993 --    22 C    0.957
    74   1 H    0.993 --    26 C    0.966
    75   1 H    0.995 --    26 C    0.957
    76   1 H    0.996 --    27 C    0.970
    77   1 H    0.998 --    27 C    0.977
    78   1 H    0.998 --    28 C    0.972
    79   1 H    1.000 --    28 C    0.977
    80   1 H    0.998 --    29 C    0.973
    81   1 H    0.999 --    29 C    0.975
    82   1 H    0.999 --    30 C    0.974
    83   1 H    0.999 --    30 C    0.975
    84   1 H    0.999 --    31 C    0.975
    85   1 H    0.999 --    31 C    0.975
    86   1 H    0.999 --    32 C    0.975
    87   1 H    0.999 --    32 C    0.975
    88   1 H    0.999 --    33 C    0.975
    89   1 H    0.999 --    33 C    0.975
    90   1 H    0.999 --    34 C    0.977
    91   1 H    0.999 --    34 C    0.976
    92   1 H    0.999 --    35 C    0.978
    93   1 H    0.999 --    35 C    0.976
    94   1 H    0.999 --    36 C    0.988
    95   1 H    0.999 --    36 C    0.987
    96   1 H    0.999 --    36 C    0.986
    97   1 H    0.989 --    37 C    0.968
    98   1 H    0.991 --    37 C    0.972
    99   1 H    0.992 --    37 C    0.977
 ---------------------------------------------------------------------------

molecular dipole:
                 x           y           z       tot (Debye)
 q only:       -3.471       1.461       4.495
   full:       -3.354       1.720       4.602      15.120

           -------------------------------------------------
          | TOTAL ENERGY             -118.978062412551 Eh   |
          | GRADIENT NORM               0.000212034083 Eh/α |
          | HOMO-LUMO GAP               2.811403458963 eV   |
           -------------------------------------------------

 * finished run on 2024/12/20 at 07:03:32.379
