   * xtb version 6.7.1 (edcfbbe) compiled by 'conda@3ef47c1a292c' on 2024-11-25

   ID    Z sym.   atoms
    1    6 C      1, 2, 4-8, 10, 11
    2    7 N      3
    3    8 O      9
    4    1 H      12-31

          program call               : xtb C0902.xyz --opt --namespace C0902 --charge +1
          :  Hamiltonian                  GFN2-xTB          :
 * total energy  :   -36.0592470 Eh     change       -0.3191758E-10 Eh
 * total energy  :   -36.0667320 Eh     change       -0.7485026E-02 Eh
 * total energy  :   -36.0686596 Eh     change       -0.1927607E-02 Eh
 * total energy  :   -36.0689293 Eh     change       -0.2697182E-03 Eh
 * total energy  :   -36.0690882 Eh     change       -0.1588561E-03 Eh
 * total energy  :   -36.0691598 Eh     change       -0.7165117E-04 Eh
 * total energy  :   -36.0692269 Eh     change       -0.6709037E-04 Eh
 * total energy  :   -36.0692832 Eh     change       -0.5625101E-04 Eh
 * total energy  :   -36.0693361 Eh     change       -0.5289015E-04 Eh
 * total energy  :   -36.0693911 Eh     change       -0.5500108E-04 Eh
 * total energy  :   -36.0704347 Eh     change       -0.1928246E-04 Eh
 * total energy  :   -36.0704546 Eh     change       -0.1987817E-04 Eh
 * total energy  :   -36.0704750 Eh     change       -0.2040681E-04 Eh
 * total energy  :   -36.0704949 Eh     change       -0.1987803E-04 Eh
 * total energy  :   -36.0705126 Eh     change       -0.1771640E-04 Eh
 * total energy  :   -36.0705266 Eh     change       -0.1401214E-04 Eh
 * total energy  :   -36.0705361 Eh     change       -0.9557119E-05 Eh
 * total energy  :   -36.0705419 Eh     change       -0.5785429E-05 Eh
 * total energy  :   -36.0705455 Eh     change       -0.3552985E-05 Eh
   *** GEOMETRY OPTIMIZATION CONVERGED AFTER 63 ITERATIONS ***

 final structure:
================
31
 xtb: 6.7.1 (edcfbbe)
C            0.20519140341639        0.05492326612898       -0.07608650590816
C            0.54128847812928        0.34855644467833       -1.52867424018418
N            1.48648196191455       -0.61016248275599       -2.18801373818541
C            0.88776038776321       -2.06286061481255       -2.10229661403717
C            1.62645181664589       -3.08728335755426       -2.97253053880843
C            1.00887295006061       -3.30848836083113       -4.35515200661033
C           -0.49407284259151       -3.50698115563744       -4.19610796869788
C           -1.07436856569488       -2.27698619541425       -3.51816403640468
O           -0.47345528769986       -2.02178156503551       -2.24366234473835
C            1.68866370365365       -0.15362842724909       -3.57411044028275
C            2.78907604935964       -0.57871253506282       -1.49966149280313
H           -0.33341088285218       -0.88162452284814        0.02829688436003
H           -0.45034444854920        0.84834807579576        0.27434069829904
H            1.08091850128188        0.05082391307580        0.56584196551411
H           -0.38458033742618        0.34380667803446       -2.10515637019444
H            0.99311014716107        1.33959164633995       -1.60491381169635
H            1.06037271991210       -2.31461880683425       -1.04825790588952
H            1.56043511586111       -4.03435654494759       -2.43145037290263
H            2.68472685021822       -2.84475000792949       -3.05237460624959
H            1.19790892736629       -2.46985780249061       -5.02646564325392
H            1.46261552805386       -4.19336781066680       -4.80042992555515
H           -0.97325949175180       -3.64469290376342       -5.16355586973103
H           -0.69110684966195       -4.38839341181030       -3.58467323951396
H           -0.97616298701570       -1.40088877415332       -4.17166926340644
H           -2.13088827752237       -2.41207635563900       -3.28256212130546
H            2.09588375766475        0.85721561274271       -3.57173368141953
H            2.39154272805026       -0.80202146593852       -4.09079484934270
H            0.74426819839521       -0.14047040268111       -4.11207848457305
H            3.14793068393105        0.44793627839465       -1.44355215420437
H            2.70396385706151       -0.97499720464186       -0.49107742607250
H            3.52449620485768       -1.16917120649252       -2.04126389620558

          :  Hamiltonian                  GFN2-xTB          :
         :: total energy             -36.070545477863 Eh    ::
         :: gradient norm              0.000199053680 Eh/a0 ::
         :: HOMO-LUMO gap              7.990924361679 eV    ::
         :: SCC energy               -36.525532518770 Eh    ::
         :: -> dispersion             -0.024459258234 Eh    ::
         :: repulsion energy           0.454987040907 Eh    ::

    * Orbital Energies and Occupations

         #    Occupation            Energy/Eh            Energy/eV
      -------------------------------------------------------------
         1        2.0000           -0.8695718             -23.6623
       ...           ...                  ...                  ...
        21        2.0000           -0.6496770             -17.6786
        22        2.0000           -0.6448930             -17.5484
        23        2.0000           -0.6414154             -17.4538
        24        2.0000           -0.6284917             -17.1021
        25        2.0000           -0.6254777             -17.0201
        26        2.0000           -0.6221727             -16.9302
        27        2.0000           -0.6079255             -16.5425
        28        2.0000           -0.5981808             -16.2773
        29        2.0000           -0.5909266             -16.0799
        30        2.0000           -0.5820081             -15.8372
        31        2.0000           -0.5749918             -15.6463
        32        2.0000           -0.5625859             -15.3087
        33        2.0000           -0.5535227             -15.0621 (HOMO)
        34                         -0.2598616              -7.0712 (LUMO)
        35                         -0.1864902              -5.0747
        36                         -0.1563562              -4.2547
        37                         -0.1404855              -3.8228
        38                         -0.1238863              -3.3711
        39                         -0.0841287              -2.2893
        40                         -0.0807649              -2.1977
        41                         -0.0582437              -1.5849
        42                         -0.0365007              -0.9932
        43                         -0.0334016              -0.9089
        44                         -0.0252318              -0.6866
       ...                                ...                  ...
        64                          0.1802340               4.9044
      -------------------------------------------------------------
                  HL-Gap            0.2936611 Eh            7.9909 eV

     #   Z          covCN         q      C6AA      α(0)
     1   6 C        3.751    -0.131    23.087     6.852
     2   6 C        3.760    -0.027    21.096     6.548
     3   7 N        3.608     0.085    19.771     6.604
     4   6 C        3.665     0.149    18.422     6.156
     5   6 C        3.803    -0.082    22.061     6.687
     6   6 C        3.806    -0.063    21.714     6.634
     7   6 C        3.805    -0.075    21.937     6.668
     8   6 C        3.689     0.067    19.641     6.343
     9   8 O        1.701    -0.283    18.702     5.839
    10   6 C        3.719    -0.084    22.223     6.733
    11   6 C        3.716    -0.091    22.375     6.758
    12   1 H        0.925     0.076     2.020     2.222
    13   1 H        0.925     0.086     1.920     2.167
    14   1 H        0.925     0.064     2.156     2.296
    15   1 H        0.924     0.093     1.847     2.125
    16   1 H        0.924     0.079     1.985     2.203
    17   1 H        0.924     0.081     1.966     2.193
    18   1 H        0.924     0.080     1.978     2.199
    19   1 H        0.925     0.054     2.270     2.356
    20   1 H        0.924     0.045     2.381     2.413
    21   1 H        0.925     0.065     2.138     2.286
    22   1 H        0.925     0.065     2.137     2.286
    23   1 H        0.924     0.065     2.142     2.289
    24   1 H        0.924     0.034     2.529     2.487
    25   1 H        0.924     0.080     1.975     2.198
    26   1 H        0.925     0.091     1.867     2.137
    27   1 H        0.925     0.096     1.826     2.113
    28   1 H        0.925     0.093     1.848     2.126
    29   1 H        0.925     0.099     1.793     2.094
    30   1 H        0.925     0.097     1.815     2.107
    31   1 H        0.925     0.092     1.862     2.134

Wiberg/Mayer (AO) data.
largest (>0.10) Wiberg bond orders for each atom

     #   Z sym  total        # sym  WBO       # sym  WBO       # sym  WBO
 ---------------------------------------------------------------------------
     1   6 C    3.981 --     2 C    1.023    14 H    0.980    12 H    0.980
                            13 H    0.972
     2   6 C    3.929 --     1 C    1.023    16 H    0.967    15 H    0.966
                             3 N    0.924
     3   7 N    3.783 --    11 C    0.967    10 C    0.966     2 C    0.924
                             4 C    0.826
     4   6 C    3.920 --     9 O    1.071     5 C    0.987    17 H    0.946
                             3 N    0.826
     5   6 C    3.986 --     6 C    1.006     4 C    0.987    19 H    0.965
                            18 H    0.964
     6   6 C    3.993 --     7 C    1.009     5 C    1.006    20 H    0.973
                            21 H    0.973
     7   6 C    3.992 --     6 C    1.009     8 C    1.007    23 H    0.974
                            22 H    0.971
     8   6 C    3.929 --     7 C    1.007    25 H    0.967    24 H    0.965
                             9 O    0.942
     9   8 O    2.163 --     4 C    1.071     8 C    0.942
    10   6 C    3.934 --    26 H    0.973    27 H    0.971    28 H    0.970
                             3 N    0.966
    11   6 C    3.933 --    29 H    0.973    31 H    0.972    30 H    0.971
                             3 N    0.967
    12   1 H    0.994 --     1 C    0.980
    13   1 H    0.992 --     1 C    0.972
    14   1 H    0.996 --     1 C    0.980
    15   1 H    0.991 --     2 C    0.966
    16   1 H    0.993 --     2 C    0.967
    17   1 H    0.993 --     4 C    0.946
    18   1 H    0.993 --     5 C    0.964
    19   1 H    0.997 --     5 C    0.965
    20   1 H    0.998 --     6 C    0.973
    21   1 H    0.995 --     6 C    0.973
    22   1 H    0.996 --     7 C    0.971
    23   1 H    0.996 --     7 C    0.974
    24   1 H    0.999 --     8 C    0.965
    25   1 H    0.993 --     8 C    0.967
    26   1 H    0.992 --    10 C    0.973
    27   1 H    0.991 --    10 C    0.971
    28   1 H    0.991 --    10 C    0.970
    29   1 H    0.990 --    11 C    0.973
    30   1 H    0.991 --    11 C    0.971
    31   1 H    0.992 --    11 C    0.972
 ---------------------------------------------------------------------------

molecular dipole:
                 x           y           z       tot (Debye)
 q only:        2.549      -1.887      -4.680
   full:        2.689      -1.816      -4.770      14.663

           -------------------------------------------------
          | TOTAL ENERGY              -36.070545477863 Eh   |
          | GRADIENT NORM               0.000199053680 Eh/α |
          | HOMO-LUMO GAP               7.990924361679 eV   |
           -------------------------------------------------

 * finished run on 2024/12/20 at 07:03:06.625
