   * xtb version 6.7.1 (edcfbbe) compiled by 'conda@3ef47c1a292c' on 2024-11-25

   ID    Z sym.   atoms
    1    6 C      1-3, 5-7, 9, 10
    2    7 N      4
    3    8 O      8
    4    1 H      11-28

          program call               : xtb C0906.xyz --opt --namespace C0906 --charge +1
          :  Hamiltonian                  GFN2-xTB          :
 * total energy  :   -32.8880352 Eh     change       -0.4339995E-10 Eh
 * total energy  :   -32.8950695 Eh     change       -0.7034374E-02 Eh
 * total energy  :   -32.8966881 Eh     change       -0.1618602E-02 Eh
 * total energy  :   -32.8967514 Eh     change       -0.6328186E-04 Eh
 * total energy  :   -32.8967787 Eh     change       -0.2725688E-04 Eh
 * total energy  :   -32.8967923 Eh     change       -0.1361397E-04 Eh
 * total energy  :   -32.8967899 Eh     change        0.2421329E-05 Eh
 * total energy  :   -32.8967993 Eh     change       -0.9421717E-05 Eh
 * total energy  :   -32.8968033 Eh     change       -0.4023373E-05 Eh
   *** GEOMETRY OPTIMIZATION CONVERGED AFTER 9 ITERATIONS ***

 final structure:
================
28
 xtb: 6.7.1 (edcfbbe)
C            1.21877194517806       -0.45718848166903        0.41424443398585
C            0.31454963256526        0.37343262889179        1.32126822682236
C            0.87269466893672        1.76395556928003        1.65376034229544
N            0.34447347396400        2.91319884458116        0.84827420294654
C            0.55668389006329        2.65510519645566       -0.58642021149824
C           -1.09981494750389        3.12895414531048        1.14922684371360
C           -1.62237874806019        4.45799483649634        0.59199007896021
O           -0.87437513988094        5.53627152790751        1.08531506356360
C            0.47380157717056        5.42717242225127        0.71696382233131
C            1.08954163556299        4.13702111515974        1.27106009400090
H            1.32586927491474       -0.03282421678738       -0.57954410820534
H            0.80033201328891       -1.45350494259080        0.30510308240070
H            2.20699745104056       -0.56073728452547        0.85435884666304
H           -0.68448387967931        0.43780837262623        0.89100837302242
H            0.20872247574492       -0.16523171391892        2.26380706086882
H            0.66732477984734        1.99573123983892        2.70038005183650
H            1.95716680074152        1.74795844204491        1.52238770524749
H            1.60908511536730        2.44506287446582       -0.76727169539065
H           -0.03759303996030        1.80238973376232       -0.90434840325381
H            0.26845710988574        3.51609661449806       -1.18336668887188
H           -1.21390691152564        3.14611396395988        2.23516226735932
H           -1.68668241568662        2.30590982774324        0.74382515378186
H           -2.64597532246300        4.61020943433057        0.93909206221884
H           -1.62674715197865        4.45616616482300       -0.50708816296822
H            0.58566856560652        5.49024254178635       -0.37463123499538
H            0.98467593233603        6.28279597199394        1.16248942982450
H            2.12870135137439        4.05152814391027        0.95203021160433
H            1.05467986314989        4.18878702737413        2.36136315173580

          :  Hamiltonian                  GFN2-xTB          :
         :: total energy             -32.896803326400 Eh    ::
         :: gradient norm              0.000787919510 Eh/a0 ::
         :: HOMO-LUMO gap              8.488110910426 eV    ::
         :: SCC energy               -33.301641483344 Eh    ::
         :: -> dispersion             -0.020392405615 Eh    ::
         :: repulsion energy           0.404838156944 Eh    ::

    * Orbital Energies and Occupations

         #    Occupation            Energy/Eh            Energy/eV
      -------------------------------------------------------------
         1        2.0000           -0.8748275             -23.8053
       ...           ...                  ...                  ...
        18        2.0000           -0.6623108             -18.0224
        19        2.0000           -0.6587440             -17.9253
        20        2.0000           -0.6572095             -17.8836
        21        2.0000           -0.6537820             -17.7903
        22        2.0000           -0.6471804             -17.6107
        23        2.0000           -0.6374989             -17.3472
        24        2.0000           -0.6313131             -17.1789
        25        2.0000           -0.6153158             -16.7436
        26        2.0000           -0.6011283             -16.3575
        27        2.0000           -0.5997642             -16.3204
        28        2.0000           -0.5843653             -15.9014
        29        2.0000           -0.5777075             -15.7202
        30        2.0000           -0.5596234             -15.2281 (HOMO)
        31                         -0.2476911              -6.7400 (LUMO)
        32                         -0.1819917              -4.9522
        33                         -0.1722526              -4.6872
        34                         -0.1524479              -4.1483
        35                         -0.1132066              -3.0805
        36                         -0.0937853              -2.5520
        37                         -0.0767826              -2.0894
        38                         -0.0634194              -1.7257
        39                         -0.0562572              -1.5308
        40                         -0.0353256              -0.9613
        41                         -0.0182574              -0.4968
       ...                                ...                  ...
        58                          0.1608480               4.3769
      -------------------------------------------------------------
                  HL-Gap            0.3119323 Eh            8.4881 eV

     #   Z          covCN         q      C6AA      α(0)
     1   6 C        3.751    -0.123    22.926     6.828
     2   6 C        3.798    -0.069    21.819     6.651
     3   6 C        3.761    -0.042    21.379     6.591
     4   7 N        3.621     0.123    19.141     6.498
     5   6 C        3.711    -0.093    22.409     6.765
     6   6 C        3.759    -0.043    21.388     6.593
     7   6 C        3.721     0.064    19.621     6.326
     8   8 O        1.702    -0.281    18.669     5.834
     9   6 C        3.721     0.064    19.612     6.325
    10   6 C        3.766    -0.044    21.410     6.595
    11   1 H        0.925     0.047     2.359     2.402
    12   1 H        0.925     0.069     2.099     2.266
    13   1 H        0.925     0.056     2.242     2.342
    14   1 H        0.925     0.054     2.271     2.357
    15   1 H        0.924     0.076     2.017     2.221
    16   1 H        0.924     0.080     1.982     2.202
    17   1 H        0.924     0.090     1.876     2.142
    18   1 H        0.925     0.099     1.798     2.097
    19   1 H        0.925     0.104     1.748     2.068
    20   1 H        0.925     0.097     1.813     2.105
    21   1 H        0.924     0.097     1.814     2.106
    22   1 H        0.925     0.089     1.888     2.149
    23   1 H        0.924     0.099     1.792     2.093
    24   1 H        0.923     0.052     2.298     2.371
    25   1 H        0.923     0.052     2.299     2.371
    26   1 H        0.924     0.100     1.786     2.090
    27   1 H        0.924     0.088     1.896     2.153
    28   1 H        0.924     0.096     1.819     2.109

Wiberg/Mayer (AO) data.
largest (>0.10) Wiberg bond orders for each atom

     #   Z sym  total        # sym  WBO       # sym  WBO       # sym  WBO
 ---------------------------------------------------------------------------
     1   6 C    3.988 --     2 C    1.020    13 H    0.985    11 H    0.984
                            12 H    0.982
     2   6 C    3.984 --     1 C    1.020     3 C    1.002    15 H    0.969
                            14 H    0.966
     3   6 C    3.926 --     2 C    1.002    16 H    0.969    17 H    0.965
                             4 N    0.922
     4   7 N    3.807 --     5 C    0.960     6 C    0.937    10 C    0.935
                             3 C    0.922
     5   6 C    3.927 --    18 H    0.974    19 H    0.970    20 H    0.968
                             4 N    0.960
     6   6 C    3.937 --     7 C    0.994    21 H    0.965    22 H    0.964
                             4 N    0.937
     7   6 C    3.952 --     8 O    0.998     6 C    0.994    24 H    0.960
                            23 H    0.959
     8   8 O    2.106 --     9 C    0.998     7 C    0.998
     9   6 C    3.952 --     8 O    0.998    10 C    0.994    25 H    0.959
                            26 H    0.958
    10   6 C    3.937 --     9 C    0.994    27 H    0.968    28 H    0.966
                             4 N    0.935
    11   1 H    0.998 --     1 C    0.984
    12   1 H    0.995 --     1 C    0.982
    13   1 H    0.997 --     1 C    0.985
    14   1 H    0.997 --     2 C    0.966
    15   1 H    0.994 --     2 C    0.969
    16   1 H    0.994 --     3 C    0.969
    17   1 H    0.992 --     3 C    0.965
    18   1 H    0.990 --     5 C    0.974
    19   1 H    0.989 --     5 C    0.970
    20   1 H    0.991 --     5 C    0.968
    21   1 H    0.991 --     6 C    0.965
    22   1 H    0.992 --     6 C    0.964
    23   1 H    0.990 --     7 C    0.959
    24   1 H    0.997 --     7 C    0.960
    25   1 H    0.997 --     9 C    0.959
    26   1 H    0.990 --     9 C    0.958
    27   1 H    0.992 --    10 C    0.968
    28   1 H    0.991 --    10 C    0.966
 ---------------------------------------------------------------------------

molecular dipole:
                 x           y           z       tot (Debye)
 q only:        0.734       5.025       1.338
   full:        0.817       4.927       1.294      13.112

           -------------------------------------------------
          | TOTAL ENERGY              -32.896803326400 Eh   |
          | GRADIENT NORM               0.000787919510 Eh/α |
          | HOMO-LUMO GAP               8.488110910426 eV   |
           -------------------------------------------------

 * finished run on 2024/12/20 at 07:03:09.293
