   * xtb version 6.7.1 (edcfbbe) compiled by 'conda@3ef47c1a292c' on 2024-11-25

   ID    Z sym.   atoms
    1    6 C      1-4, 6, 7, 9-13, 15, 17-19
    2    7 N      5, 8
    3    8 O      14, 16
    4    1 H      20-44

          program call               : xtb C0909.xyz --opt --namespace C0909 --charge +1
          :  Hamiltonian                  GFN2-xTB          :
 * total energy  :   -58.5144850 Eh     change       -0.2345693E-08 Eh
 * total energy  :   -58.5216324 Eh     change       -0.7147424E-02 Eh
 * total energy  :   -58.5234369 Eh     change       -0.1804496E-02 Eh
 * total energy  :   -58.5242299 Eh     change       -0.7929883E-03 Eh
 * total energy  :   -58.5248780 Eh     change       -0.6480844E-03 Eh
 * total energy  :   -58.5252726 Eh     change       -0.3946424E-03 Eh
 * total energy  :   -58.5256881 Eh     change       -0.4154608E-03 Eh
 * total energy  :   -58.5261635 Eh     change       -0.4754154E-03 Eh
 * total energy  :   -58.5266829 Eh     change       -0.5193736E-03 Eh
 * total energy  :   -58.5271686 Eh     change       -0.4856948E-03 Eh
 * total energy  :   -58.5321511 Eh     change       -0.1295502E-04 Eh
 * total energy  :   -58.5321585 Eh     change       -0.7400072E-05 Eh
 * total energy  :   -58.5321724 Eh     change       -0.1386515E-04 Eh
 * total energy  :   -58.5321839 Eh     change       -0.1152517E-04 Eh
 * total energy  :   -58.5321938 Eh     change       -0.9968832E-05 Eh
 * total energy  :   -58.5322038 Eh     change       -0.9937104E-05 Eh
 * total energy  :   -58.5322118 Eh     change       -0.8016957E-05 Eh
 * total energy  :   -58.5322182 Eh     change       -0.6370999E-05 Eh
 * total energy  :   -58.5322229 Eh     change       -0.4703375E-05 Eh
   *** GEOMETRY OPTIMIZATION CONVERGED AFTER 76 ITERATIONS ***

 final structure:
================
44
 xtb: 6.7.1 (edcfbbe)
C            2.20065258089035       -1.85613941428215       -0.53825404060312
C            1.21078285697056       -0.69846188079906       -0.48037640915332
C            0.90258427461862       -0.09938759827882       -1.85300922085439
C            0.14084371503605       -1.05072982639215       -2.78364564967152
N           -1.16976503308959       -1.35189890654455       -2.25898284745647
C           -2.25800126461189       -0.54282940723284       -2.33828721723931
C           -3.30038258146086       -1.15462744118113       -1.69060192283477
N           -2.79260407845236       -2.32744018214391       -1.18773888624916
C           -1.51475340099204       -2.41996866350970       -1.55450764119006
C           -3.45152375544859       -3.32767267649152       -0.38891325243141
C           -4.70203185904509       -0.65382618844111       -1.57309135703743
C           -5.59387998087384       -0.91570257431515       -2.81693235124777
C           -4.80940003382252       -0.80187165582930       -4.12644969439767
O           -4.12107273810495       -2.04799532981850       -4.22705406117328
C           -4.75833849399429       -2.98417210173036       -3.49449765605781
O           -4.28900773765190       -4.06502790583266       -3.28494662060566
C           -6.04709444519283       -2.37701860644488       -2.96231197861708
C           -6.73663340407457       -3.06340131991538       -1.78811683415606
C           -7.29724178314402       -4.42163864339399       -2.19773297673900
H            1.79683688735648       -2.71475674856402       -1.06943857243704
H            2.45631089783536       -2.17712856856236        0.46751903152611
H            3.11560803803128       -1.54626069478421       -1.03541653133113
H            0.28540606140307       -1.02261400238926        0.00435245925274
H            1.63666981052977        0.09131893321226        0.13932637768454
H            0.32193157197248        0.81664594592576       -1.72700005479702
H            1.83819382745580        0.16510155120327       -2.34571935473507
H            0.01808526786286       -0.58848477593961       -3.76518865309456
H            0.68973734080950       -1.98503621057892       -2.90333499223041
H           -2.22108445795824        0.40364678597746       -2.83746076083700
H           -0.87215433080112       -3.24576300054416       -1.32001923860663
H           -2.70628607571273       -3.86700500540478        0.19269829392696
H           -4.15671978617540       -2.85938269893474        0.29514809906923
H           -3.96964202522371       -4.04114737434378       -1.03439295175628
H           -5.19370804260282       -1.07904631080172       -0.69876483673429
H           -4.64829193540471        0.42769229374542       -1.43274296633184
H           -6.43682058534222       -0.22663259286784       -2.78325670450920
H           -5.48414301640477       -0.68922911287932       -4.98144258100043
H           -4.06891053079717       -0.00464148692058       -4.15515695023933
H           -6.74902271035666       -2.41136979284705       -3.80770465013525
H           -6.05607774438592       -3.20248830715147       -0.95115254968129
H           -7.55330946423052       -2.41912654525340       -1.45363743135428
H           -6.50261870159828       -5.06696754911058       -2.56136654632742
H           -7.77216856365117       -4.90182139586358       -1.34694478157716
H           -8.03979457010441       -4.31111301386102       -2.98376253604659

          :  Hamiltonian                  GFN2-xTB          :
         :: total energy             -58.532222873169 Eh    ::
         :: gradient norm              0.000367847285 Eh/a0 ::
         :: HOMO-LUMO gap              3.472521999628 eV    ::
         :: SCC energy               -59.314643471212 Eh    ::
         :: -> dispersion             -0.042463193528 Eh    ::
         :: repulsion energy           0.782420598043 Eh    ::

    * Orbital Energies and Occupations

         #    Occupation            Energy/Eh            Energy/eV
      -------------------------------------------------------------
         1        2.0000           -0.8819586             -23.9993
       ...           ...                  ...                  ...
        41        2.0000           -0.5925719             -16.1247
        42        2.0000           -0.5896685             -16.0457
        43        2.0000           -0.5841959             -15.8968
        44        2.0000           -0.5819313             -15.8352
        45        2.0000           -0.5698270             -15.5058
        46        2.0000           -0.5596950             -15.2301
        47        2.0000           -0.5587019             -15.2031
        48        2.0000           -0.5526747             -15.0390
        49        2.0000           -0.5499317             -14.9644
        50        2.0000           -0.5457859             -14.8516
        51        2.0000           -0.5452035             -14.8357
        52        2.0000           -0.5416016             -14.7377
        53        2.0000           -0.5192065             -14.1283 (HOMO)
        54                         -0.3915936             -10.6558 (LUMO)
        55                         -0.3606163              -9.8129
        56                         -0.3464877              -9.4284
        57                         -0.1719593              -4.6793
        58                         -0.1355914              -3.6896
        59                         -0.1202890              -3.2732
        60                         -0.0890442              -2.4230
        61                         -0.0749841              -2.0404
        62                         -0.0560009              -1.5239
        63                         -0.0547202              -1.4890
        64                         -0.0503528              -1.3702
       ...                                ...                  ...
       101                          0.5536235              15.0649
      -------------------------------------------------------------
                  HL-Gap            0.1276128 Eh            3.4725 eV

     #   Z          covCN         q      C6AA      α(0)
     1   6 C        3.752    -0.114    22.736     6.800
     2   6 C        3.800    -0.060    21.659     6.626
     3   6 C        3.802    -0.071    21.863     6.657
     4   6 C        3.742    -0.026    21.109     6.555
     5   7 N        2.852     0.068    20.047     6.650
     6   6 C        3.093    -0.022    28.433     8.740
     7   6 C        3.088     0.045    26.885     8.499
     8   7 N        2.868     0.055    20.274     6.687
     9   6 C        3.099     0.051    26.737     8.474
    10   6 C        3.694    -0.082    22.258     6.750
    11   6 C        3.802    -0.077    21.965     6.672
    12   6 C        3.888    -0.032    21.083     6.528
    13   6 C        3.791     0.059    19.604     6.305
    14   8 O        1.706    -0.269    18.459     5.801
    15   6 C        2.797     0.357    20.952     7.498
    16   8 O        0.856    -0.382    21.333     6.193
    17   6 C        3.900    -0.059    21.571     6.602
    18   6 C        3.800    -0.058    21.619     6.620
    19   6 C        3.753    -0.116    22.782     6.806
    20   1 H        0.925     0.030     2.582     2.513
    21   1 H        0.925     0.053     2.279     2.361
    22   1 H        0.925     0.053     2.283     2.363
    23   1 H        0.924     0.024     2.678     2.559
    24   1 H        0.924     0.058     2.218     2.329
    25   1 H        0.924     0.052     2.296     2.369
    26   1 H        0.925     0.076     2.025     2.225
    27   1 H        0.924     0.087     1.912     2.162
    28   1 H        0.925     0.089     1.889     2.149
    29   1 H        0.926     0.093     1.853     2.129
    30   1 H        0.926     0.111     1.685     2.030
    31   1 H        0.925     0.093     1.846     2.125
    32   1 H        0.925     0.092     1.860     2.133
    33   1 H        0.924     0.124     1.582     1.967
    34   1 H        0.925     0.081     1.972     2.196
    35   1 H        0.924     0.080     1.977     2.199
    36   1 H        0.925     0.070     2.087     2.259
    37   1 H        0.924     0.071     2.079     2.255
    38   1 H        0.925     0.067     2.123     2.279
    39   1 H        0.923     0.081     1.967     2.193
    40   1 H        0.925     0.038     2.474     2.460
    41   1 H        0.924     0.050     2.316     2.380
    42   1 H        0.925     0.058     2.219     2.330
    43   1 H        0.925     0.054     2.275     2.359
    44   1 H        0.925     0.047     2.357     2.401

Wiberg/Mayer (AO) data.
largest (>0.10) Wiberg bond orders for each atom

     #   Z sym  total        # sym  WBO       # sym  WBO       # sym  WBO
 ---------------------------------------------------------------------------
     1   6 C    3.993 --     2 C    1.021    22 H    0.986    21 H    0.985
                            20 H    0.985
     2   6 C    3.995 --     1 C    1.021     3 C    1.008    23 H    0.976
                            24 H    0.974
     3   6 C    3.985 --     2 C    1.008     4 C    0.983    25 H    0.975
                            26 H    0.967
     4   6 C    3.937 --     3 C    0.983     5 N    0.969    28 H    0.963
                            27 H    0.963
     5   7 N    3.719 --     9 C    1.368     6 C    1.224     4 C    0.969
     6   6 C    3.946 --     7 C    1.541     5 N    1.224    29 H    0.962
     7   6 C    3.952 --     6 C    1.541     8 N    1.199    11 C    1.028
     8   7 N    3.704 --     9 C    1.349     7 C    1.199    10 C    0.989
     9   6 C    3.946 --     5 N    1.368     8 N    1.349    30 H    0.953
    10   6 C    3.933 --     8 N    0.989    31 H    0.973    32 H    0.967
                            33 H    0.945
    11   6 C    3.987 --     7 C    1.028    12 C    0.968    35 H    0.962
                            34 H    0.960
    12   6 C    3.990 --    13 C    0.993    17 C    0.974    11 C    0.968
                            36 H    0.966
    13   6 C    3.930 --    12 C    0.993    38 H    0.965    37 H    0.964
                            14 O    0.952
    14   8 O    2.293 --    15 C    1.108    13 C    0.952    16 O    0.159
    15   6 C    3.910 --    16 O    1.773    14 O    1.108    17 C    0.955
    16   8 O    2.070 --    15 C    1.773    14 O    0.159
    17   6 C    3.988 --    18 C    0.996    12 C    0.974    15 C    0.955
                            39 H    0.929
    18   6 C    3.993 --    19 C    1.016    17 C    0.996    41 H    0.974
                            40 H    0.970
    19   6 C    3.990 --    18 C    1.016    44 H    0.987    43 H    0.985
                            42 H    0.985
    20   1 H    0.999 --     1 C    0.985
    21   1 H    0.997 --     1 C    0.985
    22   1 H    0.997 --     1 C    0.986
    23   1 H    0.999 --     2 C    0.976
    24   1 H    0.997 --     2 C    0.974
    25   1 H    0.997 --     3 C    0.975
    26   1 H    0.993 --     3 C    0.967
    27   1 H    0.992 --     4 C    0.963
    28   1 H    0.992 --     4 C    0.963
    29   1 H    0.991 --     6 C    0.962
    30   1 H    0.987 --     9 C    0.953
    31   1 H    0.991 --    10 C    0.973
    32   1 H    0.991 --    10 C    0.967
    33   1 H    0.984 --    10 C    0.945
    34   1 H    0.993 --    11 C    0.960
    35   1 H    0.993 --    11 C    0.962
    36   1 H    0.995 --    12 C    0.966
    37   1 H    0.995 --    13 C    0.964
    38   1 H    0.995 --    13 C    0.965
    39   1 H    0.993 --    17 C    0.929
    40   1 H    0.999 --    18 C    0.970
    41   1 H    0.997 --    18 C    0.974
    42   1 H    0.997 --    19 C    0.985
    43   1 H    0.997 --    19 C    0.985
    44   1 H    0.998 --    19 C    0.987
 ---------------------------------------------------------------------------

molecular dipole:
                 x           y           z       tot (Debye)
 q only:       -4.935      -2.192      -2.885
   full:       -5.023      -2.026      -3.060      15.812

           -------------------------------------------------
          | TOTAL ENERGY              -58.532222873169 Eh   |
          | GRADIENT NORM               0.000367847285 Eh/α |
          | HOMO-LUMO GAP               3.472521999628 eV   |
           -------------------------------------------------

 * finished run on 2024/12/20 at 07:03:36.747
