   * xtb version 6.7.1 (edcfbbe) compiled by 'conda@3ef47c1a292c' on 2024-11-25

   ID    Z sym.   atoms
    1    8 O      1
    2    6 C      2-9, 11, 13-19
    3    7 N      10, 12
    4    1 H      20-34

          program call               : xtb C0903.xyz --opt --namespace C0903 --charge +1
          :  Hamiltonian                  GFN2-xTB          :
 * total energy  :   -51.4291640 Eh     change       -0.3960423E-09 Eh
 * total energy  :   -51.4354027 Eh     change       -0.6238625E-02 Eh
 * total energy  :   -51.4367096 Eh     change       -0.1306906E-02 Eh
 * total energy  :   -51.4369525 Eh     change       -0.2428971E-03 Eh
 * total energy  :   -51.4371148 Eh     change       -0.1623910E-03 Eh
 * total energy  :   -51.4371654 Eh     change       -0.5055986E-04 Eh
 * total energy  :   -51.4372124 Eh     change       -0.4700231E-04 Eh
 * total energy  :   -51.4372434 Eh     change       -0.3102670E-04 Eh
 * total energy  :   -51.4372875 Eh     change       -0.4405612E-04 Eh
 * total energy  :   -51.4373195 Eh     change       -0.3201893E-04 Eh
 * total energy  :   -51.4373658 Eh     change       -0.4626375E-04 Eh
 * total energy  :   -51.4373889 Eh     change       -0.2307514E-04 Eh
 * total energy  :   -51.4374012 Eh     change       -0.1237863E-04 Eh
 * total energy  :   -51.4374062 Eh     change       -0.4998388E-05 Eh
 * total energy  :   -51.4374116 Eh     change       -0.5345389E-05 Eh
 * total energy  :   -51.4374156 Eh     change       -0.4015223E-05 Eh
   *** GEOMETRY OPTIMIZATION CONVERGED AFTER 16 ITERATIONS ***

 final structure:
================
34
 xtb: 6.7.1 (edcfbbe)
O            0.33243689058622       -0.20721452240288        2.03818031586723
C            1.42578909257862       -0.12354159765941        1.54450530259373
C            2.48023399982403        0.78040641346602        2.02382396267039
C            3.54537709020867        1.21079447162397        1.22955500178266
C            4.49707703402126        2.06483425950027        1.75289173331049
C            4.40480894124759        2.49475814509841        3.06848154373506
C            3.34486386332152        2.08231516146093        3.86135086747165
C            2.38496356876632        1.23665113388574        3.34234449206586
C            1.79679657222166       -1.06230879504461        0.36210531734337
N            3.00531499325259       -1.78838897211372        0.64348274101001
C            4.12773222742431       -1.81067699332335       -0.06869163704958
N            5.05961637788909       -2.55314419196660        0.51970619513801
C            4.52408403219045       -3.05092900604304        1.68969473875464
C            3.20639644403604       -2.56222993608082        1.76983143453450
C            2.37565204039761       -2.88864355343023        2.83566756876744
C            2.91028964618758       -3.70734139022790        3.80872832708534
C            4.22132410203356       -4.18931692718410        3.73198091682482
C            5.05218663519501       -3.87469414416368        2.67686534304271
C            6.39115752462144       -2.80623557361330        0.03990155050469
H            3.60953701657422        0.92820562028342        0.18964530188562
H            5.30921038068559        2.40830063104072        1.13042181552005
H            5.15241477047379        3.16168113982955        3.46878248169371
H            3.26410435859500        2.42784789984172        4.87987587838207
H            1.54816650856724        0.91108285489840        3.94134136099856
H            0.96441692655769       -1.76162485496350        0.23336635891330
H            1.91326256084607       -0.48075868197891       -0.55384848499067
H            4.26277621868397       -1.30723373283583       -1.00796480064411
H            1.36398825046593       -2.52420950531720        2.90021284157530
H            2.30068859516305       -3.98749038317069        4.65277283370327
H            4.58886006441518       -4.82723394925199        4.51976433498448
H            6.05978292739200       -4.25177092414298        2.62023884857828
H            6.53637511024697       -2.32087412765574       -0.92231933302348
H            7.12329147440815       -2.41983161355572        0.75052779561707
H            6.54799376092206       -3.87961435480287       -0.07354294864639

          :  Hamiltonian                  GFN2-xTB          :
         :: total energy             -51.437415589985 Eh    ::
         :: gradient norm              0.000698927737 Eh/a0 ::
         :: HOMO-LUMO gap              2.778056652668 eV    ::
         :: SCC energy               -52.297726208638 Eh    ::
         :: -> dispersion             -0.036286531358 Eh    ::
         :: repulsion energy           0.860310618653 Eh    ::

    * Orbital Energies and Occupations

         #    Occupation            Energy/Eh            Energy/eV
      -------------------------------------------------------------
         1        2.0000           -0.8879316             -24.1619
       ...           ...                  ...                  ...
        35        2.0000           -0.6051273             -16.4664
        36        2.0000           -0.6035074             -16.4223
        37        2.0000           -0.5996639             -16.3177
        38        2.0000           -0.5973931             -16.2559
        39        2.0000           -0.5838927             -15.8885
        40        2.0000           -0.5757290             -15.6664
        41        2.0000           -0.5594446             -15.2233
        42        2.0000           -0.5571069             -15.1597
        43        2.0000           -0.5508025             -14.9881
        44        2.0000           -0.5423402             -14.7578
        45        2.0000           -0.5316042             -14.4657
        46        2.0000           -0.5289559             -14.3936
        47        2.0000           -0.5232563             -14.2385 (HOMO)
        48                         -0.4211646             -11.4605 (LUMO)
        49                         -0.4059005             -11.0451
        50                         -0.3691104             -10.0440
        51                         -0.3605842              -9.8120
        52                         -0.3462435              -9.4218
        53                         -0.3209544              -8.7336
        54                         -0.2427070              -6.6044
        55                         -0.2120256              -5.7695
        56                         -0.1776687              -4.8346
        57                         -0.1285606              -3.4983
        58                         -0.0863472              -2.3496
       ...                                ...                  ...
        91                          0.5553321              15.1114
      -------------------------------------------------------------
                  HL-Gap            0.1020917 Eh            2.7781 eV

     #   Z          covCN         q      C6AA      α(0)
     1   8 O        0.857    -0.317    20.082     6.008
     2   6 C        2.819     0.229    23.204     7.893
     3   6 C        2.970    -0.020    28.501     8.757
     4   6 C        2.920    -0.033    28.815     8.803
     5   6 C        2.918    -0.025    28.616     8.772
     6   6 C        2.920    -0.012    28.312     8.726
     7   6 C        2.917    -0.018    28.470     8.750
     8   6 C        2.927    -0.013    28.338     8.730
     9   6 C        3.739    -0.046    21.482     6.613
    10   7 N        2.828     0.038    20.576     6.737
    11   6 C        3.068     0.062    26.547     8.448
    12   7 N        2.825     0.043    20.483     6.722
    13   6 C        3.121     0.037    26.992     8.509
    14   6 C        3.120     0.038    26.971     8.506
    15   6 C        2.908    -0.032    28.796     8.799
    16   6 C        2.926    -0.016    28.413     8.742
    17   6 C        2.926    -0.016    28.421     8.743
    18   6 C        2.908    -0.033    28.822     8.803
    19   6 C        3.691    -0.077    22.174     6.739
    20   1 H        0.926     0.029     2.594     2.519
    21   1 H        0.926     0.053     2.281     2.362
    22   1 H        0.926     0.064     2.157     2.297
    23   1 H        0.926     0.065     2.141     2.288
    24   1 H        0.926     0.072     2.067     2.248
    25   1 H        0.924     0.108     1.714     2.047
    26   1 H        0.924     0.093     1.855     2.130
    27   1 H        0.926     0.104     1.746     2.066
    28   1 H        0.926     0.083     1.946     2.181
    29   1 H        0.926     0.085     1.931     2.173
    30   1 H        0.926     0.083     1.946     2.182
    31   1 H        0.926     0.075     2.036     2.231
    32   1 H        0.925     0.094     1.841     2.122
    33   1 H        0.924     0.101     1.780     2.086
    34   1 H        0.924     0.103     1.762     2.076

Wiberg/Mayer (AO) data.
largest (>0.10) Wiberg bond orders for each atom

     #   Z sym  total        # sym  WBO       # sym  WBO       # sym  WBO
 ---------------------------------------------------------------------------
     1   8 O    2.115 --     2 C    1.856
     2   6 C    3.931 --     1 O    1.856     3 C    1.053     9 C    0.920
     3   6 C    3.986 --     4 C    1.367     8 C    1.363     2 C    1.053
     4   6 C    3.992 --     5 C    1.464     3 C    1.367    20 H    0.967
                             7 C    0.105
     5   6 C    3.991 --     4 C    1.464     6 C    1.423    21 H    0.969
                             8 C    0.102
     6   6 C    3.987 --     7 C    1.431     5 C    1.423    22 H    0.969
     7   6 C    3.989 --     8 C    1.459     6 C    1.431    23 H    0.967
                             4 C    0.105
     8   6 C    3.986 --     7 C    1.459     3 C    1.363    24 H    0.965
                             5 C    0.102
     9   6 C    3.939 --    10 N    0.983    26 H    0.953    25 H    0.951
                             2 C    0.920
    10   7 N    3.685 --    11 C    1.362    14 C    1.122     9 C    0.983
                            12 N    0.105
    11   6 C    3.953 --    12 N    1.366    10 N    1.362    27 H    0.953
    12   7 N    3.685 --    11 C    1.366    13 C    1.126    19 C    0.991
                            10 N    0.105
    13   6 C    3.952 --    18 C    1.337    14 C    1.274    12 N    1.126
    14   6 C    3.952 --    15 C    1.338    13 C    1.274    10 N    1.122
    15   6 C    3.985 --    16 C    1.496    14 C    1.338    28 H    0.961
                            18 C    0.119
    16   6 C    3.985 --    15 C    1.496    17 C    1.375    29 H    0.965
    17   6 C    3.985 --    18 C    1.497    16 C    1.375    30 H    0.965
    18   6 C    3.985 --    17 C    1.497    13 C    1.337    31 H    0.964
                            15 C    0.119
    19   6 C    3.937 --    12 N    0.991    32 H    0.976    34 H    0.964
                            33 H    0.963
    20   1 H    0.999 --     4 C    0.967
    21   1 H    0.997 --     5 C    0.969
    22   1 H    0.996 --     6 C    0.969
    23   1 H    0.995 --     7 C    0.967
    24   1 H    0.995 --     8 C    0.965
    25   1 H    0.987 --     9 C    0.951
    26   1 H    0.991 --     9 C    0.953
    27   1 H    0.988 --    11 C    0.953
    28   1 H    0.992 --    15 C    0.961
    29   1 H    0.992 --    16 C    0.965
    30   1 H    0.993 --    17 C    0.965
    31   1 H    0.994 --    18 C    0.964
    32   1 H    0.991 --    19 C    0.976
    33   1 H    0.989 --    19 C    0.963
    34   1 H    0.989 --    19 C    0.964
 ---------------------------------------------------------------------------

molecular dipole:
                 x           y           z       tot (Debye)
 q only:        8.794      -3.700       2.322
   full:        8.934      -3.577       1.942      24.954

           -------------------------------------------------
          | TOTAL ENERGY              -51.437415589985 Eh   |
          | GRADIENT NORM               0.000698927737 Eh/α |
          | HOMO-LUMO GAP               2.778056652668 eV   |
           -------------------------------------------------

 * finished run on 2024/12/20 at 07:03:07.629
