   * xtb version 6.7.1 (edcfbbe) compiled by 'conda@3ef47c1a292c' on 2024-11-25

   ID    Z sym.   atoms
    1    6 C      1-18, 20-25
    2    7 N      19
    3    1 H      26-77

          program call               : xtb C0916.xyz --opt --namespace C0916 --charge +1
          :  Hamiltonian                  GFN2-xTB          :
 * total energy  :   -80.4581093 Eh     change       -0.1327862E-09 Eh
 * total energy  :   -80.4660375 Eh     change       -0.7928265E-02 Eh
 * total energy  :   -80.4680118 Eh     change       -0.1974275E-02 Eh
 * total energy  :   -80.4681730 Eh     change       -0.1612257E-03 Eh
 * total energy  :   -80.4683932 Eh     change       -0.2201993E-03 Eh
 * total energy  :   -80.4685635 Eh     change       -0.1702407E-03 Eh
 * total energy  :   -80.4688287 Eh     change       -0.2652542E-03 Eh
 * total energy  :   -80.4691439 Eh     change       -0.3151766E-03 Eh
 * total energy  :   -80.4694665 Eh     change       -0.3225669E-03 Eh
 * total energy  :   -80.4697542 Eh     change       -0.2877050E-03 Eh
 * total energy  :   -80.4735282 Eh     change       -0.2074209E-04 Eh
 * total energy  :   -80.4735482 Eh     change       -0.1995316E-04 Eh
 * total energy  :   -80.4735661 Eh     change       -0.1790016E-04 Eh
 * total energy  :   -80.4735814 Eh     change       -0.1533914E-04 Eh
 * total energy  :   -80.4735939 Eh     change       -0.1244210E-04 Eh
 * total energy  :   -80.4736041 Eh     change       -0.1024699E-04 Eh
 * total energy  :   -80.4736130 Eh     change       -0.8857600E-05 Eh
 * total energy  :   -80.4736230 Eh     change       -0.1003021E-04 Eh
 * total energy  :   -80.4736265 Eh     change       -0.3478862E-05 Eh
   *** GEOMETRY OPTIMIZATION CONVERGED AFTER 44 ITERATIONS ***

 final structure:
================
77
 xtb: 6.7.1 (edcfbbe)
C            1.53757161880479        0.93365515866798       -0.22523010405551
C            1.37775304804453        0.36542188899559       -1.63023091531231
C            1.59162459626953       -1.14743760885005       -1.69678161581974
C            0.59588037765695       -1.97771061943987       -0.88392738039084
C           -0.87265943179283       -1.79267067531122       -1.27189642917101
C           -1.19620831942536       -2.08372370308686       -2.73855286291928
C           -0.82898933610458       -3.49016969658961       -3.21444926840603
C           -1.53636012158184       -4.62867952548970       -2.47705461386124
C           -3.06333371993505       -4.61816370744726       -2.57912251347119
C           -3.61724589610553       -4.61935820469640       -4.00564968400668
C           -3.13164124670807       -5.77143862779739       -4.88686224879987
C           -3.51036611484389       -7.16809673013826       -4.39122452449501
C           -5.01374324918847       -7.44732226468357       -4.33051250837386
C           -5.76094310243602       -7.25773243745655       -5.65307253894639
C           -5.19762620782824       -8.04804964762678       -6.83641145215397
C           -5.20436236357844       -9.56815568033820       -6.65773984135538
C           -6.60530141391155      -10.19128464246596       -6.62876515737608
C           -7.35183085467045      -10.10540050422803       -7.96848240170026
N           -7.45512175978571      -11.36858787816621       -8.75779096403680
C           -8.11897955202242      -12.46005489647815       -7.96553288866880
C           -9.36290782498922      -12.05583596911990       -7.18902042055526
C           -8.29176856709936      -11.14844755671824       -9.98950859926298
C           -8.24244919598507       -9.77810530987539      -10.65269772516275
C           -6.09946988851911      -11.88964417521460       -9.12264088783615
C           -5.30221115313452      -11.08028894077714      -10.13285080884682
H            0.75621606421649        0.56918225566974        0.43664569085246
H            1.48007869796630        2.01956608557328       -0.24909229773331
H            2.50205559452160        0.65130310040197        0.19159174226159
H            0.38801925773318        0.61817741010255       -2.01445839453951
H            2.11143784448117        0.83973458933449       -2.28711200646134
H            1.55338009280092       -1.45943175560283       -2.74267987208138
H            2.59668164405536       -1.37209091102415       -1.32978113930333
H            0.86604428022252       -3.03097863371597       -0.98829463283599
H            0.70191645618984       -1.72735647556383        0.17338651537022
H           -1.47792165643049       -2.44007025136593       -0.63313567099881
H           -1.17329457518647       -0.76529899684803       -1.05665492938390
H           -2.26490687025132       -1.91753772177271       -2.89232243930019
H           -0.66898115316375       -1.36492799241284       -3.36916349660247
H           -1.05097262946798       -3.55791950125350       -4.28192525293993
H            0.24765321361716       -3.63389782819340       -3.10539664570612
H           -1.15570794357160       -5.57613228993426       -2.86629564159180
H           -1.26807383044485       -4.59126302126059       -1.41965428279517
H           -3.44727282799560       -5.48752669413623       -2.03979608544095
H           -3.44986558365998       -3.73371369222599       -2.06916427266653
H           -4.70826633169172       -4.63791836403037       -3.94999584901476
H           -3.34080030533987       -3.68307502233872       -4.49402575993181
H           -3.52704398372617       -5.62207583808125       -5.89437819938707
H           -2.04429034381625       -5.72498240290310       -4.96400864678397
H           -3.02978019877012       -7.90534421838962       -5.03944027995568
H           -3.10073430758293       -7.31368743557711       -3.39068548240203
H           -5.15947212590481       -8.46847416833208       -3.96868059287110
H           -5.46961611401532       -6.78515039021192       -3.59308894822149
H           -6.81052954873803       -7.52047138225629       -5.49735149128784
H           -5.73933895602698       -6.20075753981583       -5.92107951646309
H           -5.76395701248591       -7.77083581105583       -7.73024665373237
H           -4.16746033976050       -7.73537617457915       -7.00649085813528
H           -4.60812016238651      -10.01627600314615       -7.45512802648192
H           -4.70972932692406       -9.80853548376754       -5.71704704601568
H           -6.52361624127643      -11.22110037266306       -6.28326880015646
H           -7.19010602458002       -9.66003251761776       -5.87768187769241
H           -8.37090133534733       -9.75661297969536       -7.80554497031259
H           -6.84701946318654       -9.37342858515696       -8.59622764401345
H           -8.37250517531731      -13.25350694838296       -8.67223417592357
H           -7.38931091119519      -12.86708796909619       -7.26454605597749
H          -10.12015166328982      -11.58834060935547       -7.81267799778800
H           -9.80032380347372      -12.95986723255633       -6.77233585298571
H           -9.12930651118595      -11.39433741014588       -6.36055568897939
H           -7.99640583544333      -11.91276801719677      -10.71065464287968
H           -9.33056909681954      -11.33500453688865       -9.71515095053915
H           -7.24166874317995       -9.46491249544660      -10.92713817262907
H           -8.82551171584431       -9.84557518418227      -11.56859140035596
H           -8.69847550097434       -9.00822433612460      -10.03734551972223
H           -5.52629116217356      -11.96495790846289       -8.19788272160943
H           -6.23607934550026      -12.89925452602509       -9.51742472860415
H           -5.15527782727330      -10.05044586388217       -9.82098869592052
H           -4.31855971569180      -11.53740376920022      -10.21359097757698
H           -5.74860726815983      -11.10020422504531      -11.12212030854732

          :  Hamiltonian                  GFN2-xTB          :
         :: total energy             -80.473626494225 Eh    ::
         :: gradient norm              0.000220488348 Eh/a0 ::
         :: HOMO-LUMO gap              5.739275237265 eV    ::
         :: SCC energy               -81.649414336944 Eh    ::
         :: -> dispersion             -0.066074764322 Eh    ::
         :: repulsion energy           1.175787842718 Eh    ::

    * Orbital Energies and Occupations

         #    Occupation            Energy/Eh            Energy/eV
      -------------------------------------------------------------
         1        2.0000           -0.8494545             -23.1148
       ...           ...                  ...                  ...
        64        2.0000           -0.4987776             -13.5724
        65        2.0000           -0.4946402             -13.4598
        66        2.0000           -0.4915074             -13.3746
        67        2.0000           -0.4850776             -13.1996
        68        2.0000           -0.4802975             -13.0696
        69        2.0000           -0.4774133             -12.9911
        70        2.0000           -0.4728966             -12.8682
        71        2.0000           -0.4652004             -12.6587
        72        2.0000           -0.4635852             -12.6148
        73        2.0000           -0.4611671             -12.5490
        74        2.0000           -0.4530726             -12.3287
        75        2.0000           -0.4472886             -12.1713
        76        2.0000           -0.4461872             -12.1414 (HOMO)
        77                         -0.2352728              -6.4021 (LUMO)
        78                         -0.1718451              -4.6761
        79                         -0.1565108              -4.2589
        80                         -0.1526710              -4.1544
        81                         -0.0633258              -1.7232
        82                         -0.0600498              -1.6340
        83                         -0.0499780              -1.3600
        84                         -0.0410486              -1.1170
        85                         -0.0346917              -0.9440
        86                         -0.0309204              -0.8414
        87                         -0.0189500              -0.5157
       ...                                ...                  ...
       152                          0.2754387               7.4951
      -------------------------------------------------------------
                  HL-Gap            0.2109145 Eh            5.7393 eV

     #   Z          covCN         q      C6AA      α(0)
     1   6 C        3.751    -0.101    22.499     6.764
     2   6 C        3.799    -0.052    21.503     6.602
     3   6 C        3.800    -0.057    21.594     6.616
     4   6 C        3.800    -0.057    21.593     6.616
     5   6 C        3.800    -0.056    21.581     6.614
     6   6 C        3.800    -0.056    21.584     6.615
     7   6 C        3.800    -0.056    21.588     6.615
     8   6 C        3.800    -0.056    21.590     6.616
     9   6 C        3.800    -0.056    21.591     6.616
    10   6 C        3.800    -0.057    21.598     6.617
    11   6 C        3.800    -0.058    21.615     6.619
    12   6 C        3.800    -0.058    21.628     6.621
    13   6 C        3.800    -0.059    21.638     6.623
    14   6 C        3.800    -0.060    21.663     6.627
    15   6 C        3.800    -0.063    21.702     6.633
    16   6 C        3.800    -0.069    21.813     6.650
    17   6 C        3.799    -0.072    21.873     6.659
    18   6 C        3.748    -0.038    21.320     6.586
    19   7 N        3.616     0.100    19.517     6.561
    20   6 C        3.764    -0.030    21.144     6.554
    21   6 C        3.751    -0.127    23.005     6.840
    22   6 C        3.753    -0.031    21.183     6.563
    23   6 C        3.750    -0.129    23.045     6.846
    24   6 C        3.758    -0.029    21.133     6.554
    25   6 C        3.751    -0.125    22.951     6.832
    26   1 H        0.925     0.034     2.526     2.486
    27   1 H        0.925     0.031     2.567     2.506
    28   1 H        0.925     0.034     2.537     2.491
    29   1 H        0.924     0.030     2.582     2.513
    30   1 H        0.924     0.026     2.643     2.542
    31   1 H        0.924     0.028     2.621     2.532
    32   1 H        0.924     0.028     2.615     2.529
    33   1 H        0.924     0.027     2.629     2.536
    34   1 H        0.924     0.032     2.562     2.503
    35   1 H        0.924     0.026     2.637     2.540
    36   1 H        0.924     0.031     2.569     2.507
    37   1 H        0.924     0.026     2.640     2.541
    38   1 H        0.924     0.031     2.575     2.509
    39   1 H        0.924     0.025     2.655     2.548
    40   1 H        0.924     0.032     2.560     2.502
    41   1 H        0.924     0.025     2.666     2.553
    42   1 H        0.924     0.033     2.541     2.493
    43   1 H        0.924     0.025     2.660     2.551
    44   1 H        0.924     0.033     2.540     2.492
    45   1 H        0.924     0.025     2.657     2.549
    46   1 H        0.924     0.034     2.531     2.488
    47   1 H        0.924     0.024     2.681     2.560
    48   1 H        0.924     0.037     2.495     2.470
    49   1 H        0.924     0.023     2.692     2.566
    50   1 H        0.924     0.039     2.458     2.452
    51   1 H        0.924     0.023     2.689     2.564
    52   1 H        0.924     0.041     2.436     2.441
    53   1 H        0.924     0.022     2.701     2.570
    54   1 H        0.924     0.044     2.393     2.419
    55   1 H        0.924     0.019     2.750     2.593
    56   1 H        0.925     0.051     2.306     2.375
    57   1 H        0.924     0.031     2.566     2.505
    58   1 H        0.925     0.059     2.213     2.326
    59   1 H        0.925     0.046     2.366     2.406
    60   1 H        0.925     0.069     2.102     2.267
    61   1 H        0.925     0.081     1.969     2.195
    62   1 H        0.925     0.095     1.828     2.114
    63   1 H        0.924     0.077     2.007     2.215
    64   1 H        0.924     0.082     1.962     2.190
    65   1 H        0.925     0.062     2.172     2.305
    66   1 H        0.925     0.084     1.943     2.180
    67   1 H        0.925     0.072     2.066     2.248
    68   1 H        0.924     0.080     1.976     2.198
    69   1 H        0.924     0.085     1.932     2.174
    70   1 H        0.925     0.069     2.093     2.262
    71   1 H        0.925     0.081     1.967     2.193
    72   1 H        0.925     0.065     2.144     2.290
    73   1 H        0.924     0.087     1.911     2.162
    74   1 H        0.924     0.074     2.040     2.233
    75   1 H        0.925     0.066     2.129     2.282
    76   1 H        0.925     0.080     1.980     2.201
    77   1 H        0.925     0.067     2.120     2.277

Wiberg/Mayer (AO) data.
largest (>0.10) Wiberg bond orders for each atom

     #   Z sym  total        # sym  WBO       # sym  WBO       # sym  WBO
 ---------------------------------------------------------------------------
     1   6 C    3.997 --     2 C    1.020    28 H    0.988    27 H    0.988
                            26 H    0.986
     2   6 C    3.998 --     1 C    1.020     3 C    1.008    30 H    0.979
                            29 H    0.976
     3   6 C    3.998 --     2 C    1.008     4 C    1.008    32 H    0.977
                            31 H    0.976
     4   6 C    3.998 --     5 C    1.008     3 C    1.008    34 H    0.975
                            33 H    0.975
     5   6 C    3.998 --     4 C    1.008     6 C    1.008    35 H    0.975
                            36 H    0.975
     6   6 C    3.998 --     7 C    1.008     5 C    1.008    37 H    0.975
                            38 H    0.975
     7   6 C    3.998 --     6 C    1.008     8 C    1.008    39 H    0.975
                            40 H    0.974
     8   6 C    3.997 --     7 C    1.008     9 C    1.007    41 H    0.976
                            42 H    0.975
     9   6 C    3.997 --    10 C    1.007     8 C    1.007    43 H    0.976
                            44 H    0.975
    10   6 C    3.997 --    11 C    1.008     9 C    1.007    45 H    0.975
                            46 H    0.975
    11   6 C    3.997 --    10 C    1.008    12 C    1.008    47 H    0.975
                            48 H    0.973
    12   6 C    3.997 --    11 C    1.008    13 C    1.007    49 H    0.976
                            50 H    0.974
    13   6 C    3.997 --    12 C    1.007    14 C    1.007    51 H    0.975
                            52 H    0.974
    14   6 C    3.996 --    15 C    1.007    13 C    1.007    53 H    0.974
                            54 H    0.974
    15   6 C    3.995 --    16 C    1.008    14 C    1.007    55 H    0.972
                            56 H    0.972
    16   6 C    3.992 --    15 C    1.008    17 C    1.005    57 H    0.973
                            58 H    0.970
    17   6 C    3.986 --    16 C    1.005    18 C    1.001    60 H    0.967
                            59 H    0.966
    18   6 C    3.927 --    17 C    1.001    61 H    0.968    62 H    0.954
                            19 N    0.930
    19   7 N    3.796 --    24 C    0.932    18 C    0.930    20 C    0.929
                            22 C    0.926
    20   6 C    3.939 --    21 C    1.023    63 H    0.969    64 H    0.964
                            19 N    0.929
    21   6 C    3.982 --    20 C    1.023    67 H    0.980    65 H    0.977
                            66 H    0.972
    22   6 C    3.936 --    23 C    1.022    68 H    0.968    69 H    0.964
                            19 N    0.926
    23   6 C    3.982 --    22 C    1.022    72 H    0.982    70 H    0.977
                            71 H    0.972
    24   6 C    3.938 --    25 C    1.022    74 H    0.969    73 H    0.962
                            19 N    0.932
    25   6 C    3.983 --    24 C    1.022    77 H    0.980    75 H    0.977
                            76 H    0.973
    26   1 H    0.999 --     1 C    0.986
    27   1 H    0.999 --     1 C    0.988
    28   1 H    0.999 --     1 C    0.988
    29   1 H    0.999 --     2 C    0.976
    30   1 H    0.999 --     2 C    0.979
    31   1 H    0.999 --     3 C    0.976
    32   1 H    0.999 --     3 C    0.977
    33   1 H    0.999 --     4 C    0.975
    34   1 H    0.999 --     4 C    0.975
    35   1 H    0.999 --     5 C    0.975
    36   1 H    0.999 --     5 C    0.975
    37   1 H    0.999 --     6 C    0.975
    38   1 H    0.999 --     6 C    0.975
    39   1 H    0.999 --     7 C    0.975
    40   1 H    0.999 --     7 C    0.974
    41   1 H    0.999 --     8 C    0.976
    42   1 H    0.999 --     8 C    0.975
    43   1 H    0.999 --     9 C    0.976
    44   1 H    0.999 --     9 C    0.975
    45   1 H    0.999 --    10 C    0.975
    46   1 H    0.999 --    10 C    0.975
    47   1 H    0.999 --    11 C    0.975
    48   1 H    0.999 --    11 C    0.973
    49   1 H    0.999 --    12 C    0.976
    50   1 H    0.998 --    12 C    0.974
    51   1 H    0.999 --    13 C    0.975
    52   1 H    0.998 --    13 C    0.974
    53   1 H    0.999 --    14 C    0.974
    54   1 H    0.998 --    14 C    0.974
    55   1 H    1.000 --    15 C    0.972
    56   1 H    0.997 --    15 C    0.972
    57   1 H    0.999 --    16 C    0.973
    58   1 H    0.996 --    16 C    0.970
    59   1 H    0.998 --    17 C    0.966
    60   1 H    0.995 --    17 C    0.967
    61   1 H    0.993 --    18 C    0.968
    62   1 H    0.991 --    18 C    0.954
    63   1 H    0.994 --    20 C    0.969
    64   1 H    0.993 --    20 C    0.964
    65   1 H    0.996 --    21 C    0.977
    66   1 H    0.993 --    21 C    0.972
    67   1 H    0.995 --    21 C    0.980
    68   1 H    0.993 --    22 C    0.968
    69   1 H    0.993 --    22 C    0.964
    70   1 H    0.995 --    23 C    0.977
    71   1 H    0.993 --    23 C    0.972
    72   1 H    0.996 --    23 C    0.982
    73   1 H    0.992 --    24 C    0.962
    74   1 H    0.994 --    24 C    0.969
    75   1 H    0.996 --    25 C    0.977
    76   1 H    0.993 --    25 C    0.973
    77   1 H    0.995 --    25 C    0.980
 ---------------------------------------------------------------------------

molecular dipole:
                 x           y           z       tot (Debye)
 q only:      -13.709     -20.759     -16.159
   full:      -13.774     -20.935     -16.210      75.859

           -------------------------------------------------
          | TOTAL ENERGY              -80.473626494225 Eh   |
          | GRADIENT NORM               0.000220488348 Eh/α |
          | HOMO-LUMO GAP               5.739275237265 eV   |
           -------------------------------------------------

 * finished run on 2024/12/20 at 07:04:10.338
