   * xtb version 6.7.1 (edcfbbe) compiled by 'conda@3ef47c1a292c' on 2024-11-25

   ID    Z sym.   atoms
    1    6 C      1, 2, 7-12, 14-17, 22, 24, 25, 27-32, 34, 35, 37-44
    2    7 N      3, 13, 21, 26, 36
    3   16 S      4, 18
    4    8 O      5, 6, 19, 20, 23, 33
    5    1 H      45-86

          program call               : xtb C0915.xyz --opt --namespace C0915 --charge +1
          :  Hamiltonian                  GFN2-xTB          :
 * total energy  :  -132.9997742 Eh     change       -0.7659651E-09 Eh
 * total energy  :  -133.0226003 Eh     change       -0.2282609E-01 Eh
 * total energy  :  -133.0321541 Eh     change       -0.9553791E-02 Eh
 * total energy  :  -133.0346753 Eh     change       -0.2521163E-02 Eh
 * total energy  :  -133.0367824 Eh     change       -0.2107193E-02 Eh
 * total energy  :  -133.0378030 Eh     change       -0.1020590E-02 Eh
 * total energy  :  -133.0386931 Eh     change       -0.8900172E-03 Eh
 * total energy  :  -133.0395651 Eh     change       -0.8720184E-03 Eh
 * total energy  :  -133.0404645 Eh     change       -0.8994428E-03 Eh
 * total energy  :  -133.0413397 Eh     change       -0.8751551E-03 Eh
 * total energy  :  -133.0471624 Eh     change       -0.1171330E-04 Eh
 * total energy  :  -133.0471783 Eh     change       -0.1589708E-04 Eh
 * total energy  :  -133.0471900 Eh     change       -0.1170736E-04 Eh
 * total energy  :  -133.0472057 Eh     change       -0.1572478E-04 Eh
 * total energy  :  -133.0472229 Eh     change       -0.1720978E-04 Eh
 * total energy  :  -133.0472346 Eh     change       -0.1172662E-04 Eh
 * total energy  :  -133.0472402 Eh     change       -0.5619522E-05 Eh
 * total energy  :  -133.0472466 Eh     change       -0.6333508E-05 Eh
 * total energy  :  -133.0472492 Eh     change       -0.2622074E-05 Eh
   *** GEOMETRY OPTIMIZATION CONVERGED AFTER 70 ITERATIONS ***

 final structure:
================
86
 xtb: 6.7.1 (edcfbbe)
C            1.04246089894249       -1.50775154674525       -0.12255957971176
C            0.69753411956588       -0.73216861210095       -1.38403874806426
N            0.60141619029562       -1.62191365835900       -2.52788515212799
S            0.15447190743303       -0.88295176699578       -3.94720025503773
O            0.58324125900000        0.49106812960169       -3.98470159529804
O            0.49954993487256       -1.75123256859148       -5.02572954173841
C           -1.63108084051805       -0.83150642288850       -3.76625308925741
C           -2.36250347683434       -1.92310818830688       -3.32202042863561
C           -3.73760436393858       -1.83673496493160       -3.16875933701318
C           -4.34257525126807       -0.62006168319209       -3.45903912434424
C           -3.58513877019415        0.47743862221161       -3.90232518517250
C           -2.21815483249497        0.37542805577938       -4.08278031705237
N           -4.44567145044608        1.54017190727344       -4.06447141349985
C           -3.99219013140649        2.82122179585010       -4.55083875890471
C           -3.60863646332306        3.77852989828622       -3.41020348014924
C           -2.24707222915462        3.46084035137988       -2.78324897996359
C           -1.06053881181170        3.81665458979207       -3.66497203112846
S           -0.42780197553978        5.44069887577848       -3.16072372560705
O           -0.25139322885666        5.46126437561751       -1.74607955360803
O            0.63100666957121        5.84779920895664       -4.02244417814923
N           -1.78269467342406        6.45107124072265       -3.40522787164549
C           -2.31385859643366        7.02853833405338       -4.53152659088005
O           -3.28786935482426        7.74165372401705       -4.44803664625409
C           -1.64282213015250        6.66295517131004       -5.82118713951380
C           -5.70768682756454        1.13564262182822       -3.72489386057039
N           -5.64861137513637       -0.19197757565979       -3.39040652649239
C           -6.74533264802918       -1.01537210174789       -2.93612140796801
C           -7.00013865574972       -0.83642093104104       -1.44243967260016
C           -6.89286378050313        1.87284073178104       -3.71420480139807
C           -7.02799894627767        3.24273470285689       -3.83397415540493
C           -8.22717570914635        3.93719549836015       -3.86169684519182
C           -8.20873164998670        5.32466741126535       -3.96742741934149
O           -7.05056637458287        5.99546781262768       -4.05437731529954
C           -7.35851226147659        7.32544615412024       -4.16603638859125
C           -8.74863397457748        7.46302895702729       -4.14121452937342
N           -9.25621667398172        6.17878842864102       -4.00096348454257
C          -10.65588937409671        5.83123984058525       -3.98443204685042
C          -11.17333690780689        5.54613024586937       -5.39120533158863
C           -9.33245551175792        8.71220190669263       -4.24233292908137
C           -8.49669632477011        9.81479434486990       -4.36452931866386
C           -7.09523876614966        9.66316675428795       -4.38867774085329
C           -6.51199886300017        8.40553753170691       -4.28983947717322
C           -6.21135885584258       10.86004787723198       -4.52191169651558
C           -9.09734261715280       11.17942767207284       -4.47377769358579
H            0.31090135664415       -2.29232770299149        0.05059654215948
H            1.05089608999795       -0.83677995977761        0.73173063646963
H            2.02503382637519       -1.96327781235754       -0.21424686140092
H           -0.28392268556095       -0.25886932356633       -1.28636444314605
H            1.43585264236701        0.05867490189303       -1.56504245320692
H            1.42516586666018       -2.19024264383268       -2.66401491616108
H           -1.83900774865447       -2.83642778996126       -3.09462290884039
H           -4.30499407222420       -2.68533739227624       -2.82378104704368
H           -1.58807967315600        1.17303760102919       -4.43476196960712
H           -3.12447592944251        2.62988792823091       -5.18549938121548
H           -4.77385148647774        3.25333354375102       -5.17856477413840
H           -3.61229428951512        4.79845292419727       -3.79423012998902
H           -4.36714239035897        3.71620227377288       -2.62777747973612
H           -2.13639909864546        4.02937699381152       -1.85743361389725
H           -2.21319256844861        2.40471920720897       -2.51275378772586
H           -0.22389587332599        3.13206580737651       -3.53938742134359
H           -1.29567248698887        3.90130081939935       -4.72056830994886
H           -2.18613238541162        6.76685997503679       -2.53375927053803
H           -1.83452168217402        7.44489264951261       -6.55168685514797
H           -0.57531623026794        6.53440310443181       -5.67173823753093
H           -2.06650405313438        5.73525673509851       -6.20391981751214
H           -7.64086282099667       -0.76916047027311       -3.51046818411104
H           -6.48546905888691       -2.05307404955204       -3.15190006703562
H           -7.26427898655886        0.19409744576196       -1.21835736565538
H           -7.81618658613848       -1.48065690053234       -1.12953734009084
H           -6.11288087717887       -1.09968804086775       -0.87216391702362
H           -7.80041226003616        1.30702434853733       -3.56864968045199
H           -6.15353143678531        3.86773075230948       -3.87676670799864
H           -9.17261665062242        3.42492599460747       -3.81609751750321
H          -10.79241593059813        4.95991711030001       -3.34025381032307
H          -11.19787268940905        6.67157717507660       -3.54587757304459
H          -10.63944211540642        4.70838215732311       -5.83332074750632
H          -12.23080159495812        5.30337776963195       -5.35068246938113
H          -11.04136089450468        6.41712145280098       -6.02834544395037
H          -10.40353826793109        8.83638245686037       -4.22975058290691
H           -5.44186679263501        8.27725190052958       -4.31329489336987
H           -6.42941432838553       11.39892056357936       -5.44254677289925
H           -6.37109882165739       11.54889120762348       -3.69379715688842
H           -5.16790146079929       10.56045659596654       -4.53100244050126
H           -8.74927729587263       11.81535454703512       -3.66148076626855
H           -8.80205776739645       11.65300746129206       -5.40867352191020
H          -10.18184879300154       11.13274593007340       -4.43668117798870

          :  Hamiltonian                  GFN2-xTB          :
         :: total energy            -133.047249204413 Eh    ::
         :: gradient norm              0.000647523264 Eh/a0 ::
         :: HOMO-LUMO gap              1.778905643833 eV    ::
         :: SCC energy              -134.825615870700 Eh    ::
         :: -> dispersion             -0.103200273212 Eh    ::
         :: repulsion energy           1.778366666287 Eh    ::

    * Orbital Energies and Occupations

         #    Occupation            Energy/Eh            Energy/eV
      -------------------------------------------------------------
         1        2.0000           -0.8709102             -23.6987
       ...           ...                  ...                  ...
       107        2.0000           -0.5231341             -14.2352
       108        2.0000           -0.5224038             -14.2153
       109        2.0000           -0.5213378             -14.1863
       110        2.0000           -0.5184117             -14.1067
       111        2.0000           -0.5150992             -14.0166
       112        2.0000           -0.5138097             -13.9815
       113        2.0000           -0.5089048             -13.8480
       114        2.0000           -0.4997740             -13.5995
       115        2.0000           -0.4952286             -13.4759
       116        2.0000           -0.4928562             -13.4113
       117        2.0000           -0.4910559             -13.3623
       118        2.0000           -0.4779166             -13.0048
       119        2.0000           -0.4562526             -12.4153 (HOMO)
       120                         -0.3908790             -10.6364 (LUMO)
       121                         -0.3449371              -9.3862
       122                         -0.3382146              -9.2033
       123                         -0.3186393              -8.6706
       124                         -0.3156655              -8.5897
       125                         -0.3115363              -8.4773
       126                         -0.2925647              -7.9611
       127                         -0.2370296              -6.4499
       128                         -0.2336703              -6.3585
       129                         -0.2198081              -5.9813
       130                         -0.1977793              -5.3818
       ...                                ...                  ...
       228                          1.1785804              32.0708
      -------------------------------------------------------------
                  HL-Gap            0.0653736 Eh            1.7789 eV

     #   Z          covCN         q      C6AA      α(0)
     1   6 C        3.753    -0.118    22.829     6.813
     2   6 C        3.845     0.017    20.257     6.402
     3   7 N        2.684    -0.368    29.482     8.064
     4  16 S        3.815     1.126   103.116    17.091
     5   8 O        0.860    -0.590    25.880     6.821
     6   8 O        0.860    -0.548    24.881     6.688
     7   6 C        2.975    -0.091    30.282     9.027
     8   6 C        2.946    -0.028    28.696     8.786
     9   6 C        2.912    -0.040    29.003     8.831
    10   6 C        3.056     0.044    26.970     8.517
    11   6 C        3.083     0.043    26.945     8.510
    12   6 C        2.979    -0.052    29.284     8.877
    13   7 N        2.814    -0.022    21.673     6.914
    14   6 C        3.740    -0.018    20.970     6.534
    15   6 C        3.800    -0.076    21.952     6.671
    16   6 C        3.854    -0.082    22.028     6.675
    17   6 C        3.796    -0.165    23.703     6.932
    18  16 S        3.676     1.169   101.926    16.992
    19   8 O        0.860    -0.553    24.993     6.703
    20   8 O        0.860    -0.542    24.743     6.669
    21   7 N        2.689    -0.353    29.089     8.010
    22   6 C        2.761     0.299    21.933     7.669
    23   8 O        0.859    -0.411    21.894     6.273
    24   6 C        3.756    -0.164    23.734     6.946
    25   6 C        3.019     0.110    25.543     8.290
    26   7 N        2.826    -0.022    21.667     6.913
    27   6 C        3.739    -0.009    20.812     6.509
    28   6 C        3.752    -0.121    22.870     6.820
    29   6 C        2.898    -0.096    30.415     9.042
    30   6 C        2.909    -0.019    28.480     8.751
    31   6 C        2.896    -0.101    30.546     9.062
    32   6 C        3.056     0.198    23.750     7.992
    33   8 O        1.721    -0.201    17.346     5.623
    34   6 C        3.076     0.113    25.427     8.267
    35   6 C        3.042     0.030    27.287     8.568
    36   7 N        2.797    -0.033    21.882     6.948
    37   6 C        3.738    -0.004    20.729     6.497
    38   6 C        3.752    -0.119    22.832     6.814
    39   6 C        2.916    -0.059    29.458     8.900
    40   6 C        2.973     0.017    27.634     8.623
    41   6 C        2.978     0.020    27.556     8.611
    42   6 C        2.913    -0.064    29.595     8.921
    43   6 C        3.760    -0.122    22.891     6.821
    44   6 C        3.759    -0.118    22.814     6.809
    45   1 H        0.925     0.058     2.227     2.334
    46   1 H        0.925     0.062     2.172     2.305
    47   1 H        0.925     0.058     2.223     2.331
    48   1 H        0.924     0.034     2.529     2.487
    49   1 H        0.924     0.046     2.372     2.408
    50   1 H        0.864     0.203     1.091     1.636
    51   1 H        0.926     0.078     1.998     2.210
    52   1 H        0.926     0.070     2.088     2.260
    53   1 H        0.926     0.080     1.982     2.201
    54   1 H        0.924     0.074     2.046     2.237
    55   1 H        0.924     0.076     2.019     2.222
    56   1 H        0.925     0.060     2.196     2.317
    57   1 H        0.924     0.063     2.160     2.298
    58   1 H        0.924     0.074     2.040     2.234
    59   1 H        0.924     0.068     2.106     2.269
    60   1 H        0.925     0.108     1.713     2.047
    61   1 H        0.925     0.078     1.995     2.209
    62   1 H        0.861     0.223     0.996     1.563
    63   1 H        0.925     0.092     1.856     2.130
    64   1 H        0.925     0.094     1.840     2.121
    65   1 H        0.925     0.068     2.107     2.270
    66   1 H        0.924     0.069     2.102     2.267
    67   1 H        0.924     0.074     2.043     2.235
    68   1 H        0.925     0.055     2.256     2.349
    69   1 H        0.925     0.068     2.103     2.268
    70   1 H        0.925     0.057     2.239     2.340
    71   1 H        0.926     0.058     2.226     2.333
    72   1 H        0.926     0.062     2.171     2.304
    73   1 H        0.926     0.054     2.271     2.356
    74   1 H        0.924     0.064     2.158     2.297
    75   1 H        0.924     0.074     2.039     2.233
    76   1 H        0.925     0.053     2.282     2.362
    77   1 H        0.925     0.067     2.116     2.275
    78   1 H        0.925     0.060     2.202     2.321
    79   1 H        0.926     0.054     2.274     2.358
    80   1 H        0.926     0.101     1.776     2.084
    81   1 H        0.925     0.066     2.132     2.283
    82   1 H        0.925     0.066     2.133     2.284
    83   1 H        0.925     0.067     2.117     2.275
    84   1 H        0.925     0.066     2.128     2.281
    85   1 H        0.925     0.066     2.130     2.282
    86   1 H        0.925     0.054     2.266     2.354

Wiberg/Mayer (AO) data.
largest (>0.10) Wiberg bond orders for each atom

     #   Z sym  total        # sym  WBO       # sym  WBO       # sym  WBO
 ---------------------------------------------------------------------------
     1   6 C    3.990 --     2 C    1.015    45 H    0.986    47 H    0.985
                            46 H    0.982
     2   6 C    3.965 --     1 C    1.015     3 N    0.989    48 H    0.975
                            49 H    0.970
     3   7 N    3.138 --     2 C    0.989     4 S    0.948    50 H    0.926
     4  16 S    4.999 --     6 O    1.645     5 O    1.586     3 N    0.948
                             7 C    0.752
     5   8 O    1.898 --     4 S    1.586     6 O    0.111
     6   8 O    1.947 --     4 S    1.645     5 O    0.111
     7   6 C    3.960 --    12 C    1.440     8 C    1.396     4 S    0.752
     8   6 C    3.974 --     9 C    1.459     7 C    1.396    51 H    0.963
     9   6 C    3.971 --     8 C    1.459    10 C    1.354    52 H    0.962
                            12 C    0.104
    10   6 C    3.962 --     9 C    1.354    11 C    1.261    26 N    1.142
    11   6 C    3.962 --    12 C    1.361    10 C    1.261    13 N    1.131
    12   6 C    3.970 --     7 C    1.440    11 C    1.361    53 H    0.952
                             9 C    0.104
    13   7 N    3.579 --    25 C    1.201    11 C    1.131    14 C    0.985
    14   6 C    3.957 --    15 C    0.991    13 N    0.985    54 H    0.960
                            55 H    0.959
    15   6 C    3.990 --    16 C    1.008    14 C    0.991    57 H    0.970
                            56 H    0.969
    16   6 C    3.987 --    17 C    1.016    15 C    1.008    59 H    0.966
                            58 H    0.964
    17   6 C    3.976 --    16 C    1.016    61 H    0.967    60 H    0.959
                            18 S    0.743
    18  16 S    4.946 --    19 O    1.639    20 O    1.639    21 N    0.854
                            17 C    0.743
    19   8 O    1.946 --    18 S    1.639    20 O    0.112
    20   8 O    1.961 --    18 S    1.639    19 O    0.112
    21   7 N    3.350 --    22 C    1.166    62 H    0.918    18 S    0.854
                            23 O    0.160
    22   6 C    3.933 --    23 O    1.719    21 N    1.166    24 C    1.002
    23   8 O    2.028 --    22 C    1.719    21 N    0.160
    24   6 C    3.986 --    22 C    1.002    63 H    0.973    64 H    0.963
                            65 H    0.954
    25   6 C    3.925 --    29 C    1.312    13 N    1.201    26 N    1.200
    26   7 N    3.579 --    25 C    1.200    10 C    1.142    27 C    0.979
    27   6 C    3.955 --    28 C    1.006    26 N    0.979    67 H    0.966
                            66 H    0.962
    28   6 C    3.985 --    27 C    1.006    70 H    0.986    68 H    0.985
                            69 H    0.981
    29   6 C    3.939 --    30 C    1.429    25 C    1.312    71 H    0.951
    30   6 C    3.962 --    29 C    1.429    31 C    1.411    72 H    0.950
    31   6 C    3.934 --    30 C    1.411    32 C    1.315    73 H    0.961
    32   6 C    3.894 --    31 C    1.315    36 N    1.250    33 O    1.126
    33   8 O    2.389 --    32 C    1.126    34 C    1.022
    34   6 C    3.897 --    42 C    1.381    35 C    1.288    33 O    1.022
    35   6 C    3.947 --    39 C    1.360    34 C    1.288    36 N    1.096
    36   7 N    3.576 --    32 C    1.250    35 C    1.096    37 C    0.979
    37   6 C    3.956 --    38 C    1.005    36 N    0.979    75 H    0.966
                            74 H    0.966
    38   6 C    3.984 --    37 C    1.005    76 H    0.986    78 H    0.985
                            77 H    0.981
    39   6 C    3.974 --    40 C    1.437    35 C    1.360    79 H    0.963
                            42 C    0.102
    40   6 C    3.975 --    39 C    1.437    41 C    1.336    44 C    1.037
    41   6 C    3.968 --    42 C    1.427    40 C    1.336    43 C    1.038
    42   6 C    3.974 --    41 C    1.427    34 C    1.381    80 H    0.951
                            39 C    0.102
    43   6 C    3.990 --    41 C    1.038    83 H    0.982    81 H    0.963
                            82 H    0.962
    44   6 C    3.992 --    40 C    1.037    86 H    0.984    84 H    0.963
                            85 H    0.963
    45   1 H    0.997 --     1 C    0.986
    46   1 H    0.995 --     1 C    0.982
    47   1 H    0.997 --     1 C    0.985
    48   1 H    0.999 --     2 C    0.975
    49   1 H    0.998 --     2 C    0.970
    50   1 H    0.958 --     3 N    0.926
    51   1 H    0.993 --     8 C    0.963
    52   1 H    0.994 --     9 C    0.962
    53   1 H    0.993 --    12 C    0.952
    54   1 H    0.994 --    14 C    0.960
    55   1 H    0.993 --    14 C    0.959
    56   1 H    0.996 --    15 C    0.969
    57   1 H    0.996 --    15 C    0.970
    58   1 H    0.994 --    16 C    0.964
    59   1 H    0.995 --    16 C    0.966
    60   1 H    0.988 --    17 C    0.959
    61   1 H    0.994 --    17 C    0.967
    62   1 H    0.950 --    21 N    0.918
    63   1 H    0.991 --    24 C    0.973
    64   1 H    0.991 --    24 C    0.963
    65   1 H    0.995 --    24 C    0.954
    66   1 H    0.994 --    27 C    0.962
    67   1 H    0.993 --    27 C    0.966
    68   1 H    0.997 --    28 C    0.985
    69   1 H    0.994 --    28 C    0.981
    70   1 H    0.997 --    28 C    0.986
    71   1 H    0.996 --    29 C    0.951
    72   1 H    0.996 --    30 C    0.950
    73   1 H    0.996 --    31 C    0.961
    74   1 H    0.995 --    37 C    0.966
    75   1 H    0.993 --    37 C    0.966
    76   1 H    0.997 --    38 C    0.986
    77   1 H    0.994 --    38 C    0.981
    78   1 H    0.996 --    38 C    0.985
    79   1 H    0.997 --    39 C    0.963
    80   1 H    0.989 --    42 C    0.951
    81   1 H    0.993 --    43 C    0.963
    82   1 H    0.993 --    43 C    0.962
    83   1 H    0.995 --    43 C    0.982
    84   1 H    0.994 --    44 C    0.963
    85   1 H    0.994 --    44 C    0.963
    86   1 H    0.997 --    44 C    0.984
 ---------------------------------------------------------------------------

molecular dipole:
                 x           y           z       tot (Debye)
 q only:      -14.485       5.994      -6.191
   full:      -14.199       5.808      -6.189      42.047

           -------------------------------------------------
          | TOTAL ENERGY             -133.047249204413 Eh   |
          | GRADIENT NORM               0.000647523264 Eh/α |
          | HOMO-LUMO GAP               1.778905643833 eV   |
           -------------------------------------------------

 * finished run on 2024/12/20 at 07:04:06.147
