   * xtb version 6.7.1 (edcfbbe) compiled by 'conda@3ef47c1a292c' on 2024-11-25

   ID    Z sym.   atoms
    1    8 O      1, 10, 11
    2    6 C      2-8, 12, 14, 15, 17-29
    3    7 N      9, 13, 16
    4    1 H      30-49

          program call               : xtb C0918.xyz --opt --namespace C0918 --charge +1
          :  Hamiltonian                  GFN2-xTB          :
 * total energy  :   -79.9269179 Eh     change       -0.8633378E-09 Eh
 * total energy  :   -79.9401651 Eh     change       -0.1324719E-01 Eh
 * total energy  :   -79.9429794 Eh     change       -0.2814254E-02 Eh
 * total energy  :   -79.9434009 Eh     change       -0.4214903E-03 Eh
 * total energy  :   -79.9441860 Eh     change       -0.7851657E-03 Eh
 * total energy  :   -79.9447006 Eh     change       -0.5145619E-03 Eh
 * total energy  :   -79.9451603 Eh     change       -0.4597385E-03 Eh
 * total energy  :   -79.9455399 Eh     change       -0.3796214E-03 Eh
 * total energy  :   -79.9458316 Eh     change       -0.2916674E-03 Eh
 * total energy  :   -79.9460592 Eh     change       -0.2275949E-03 Eh
 * total energy  :   -79.9561794 Eh     change       -0.6447782E-05 Eh
 * total energy  :   -79.9561858 Eh     change       -0.6335867E-05 Eh
 * total energy  :   -79.9561921 Eh     change       -0.6327827E-05 Eh
 * total energy  :   -79.9561985 Eh     change       -0.6404579E-05 Eh
 * total energy  :   -79.9562051 Eh     change       -0.6571282E-05 Eh
 * total energy  :   -79.9562118 Eh     change       -0.6763209E-05 Eh
 * total energy  :   -79.9562189 Eh     change       -0.7051024E-05 Eh
 * total energy  :   -79.9562262 Eh     change       -0.7304777E-05 Eh
 * total energy  :   -79.9562296 Eh     change       -0.3410385E-05 Eh
   *** GEOMETRY OPTIMIZATION CONVERGED AFTER 185 ITERATIONS ***

 final structure:
================
49
 xtb: 6.7.1 (edcfbbe)
O            1.94303854768208       -2.25199553589411        0.18968802217802
C            2.60731606846963       -1.26102788532594        0.37137263074881
C            2.65641193850451       -0.53363670514053        1.65128045060689
C            3.45491922741788        0.59425413565848        1.86623232446362
C            3.46840002734873        1.20268013708887        3.10535660488652
C            2.68438061032266        0.68563928461088        4.12869781647708
C            1.87779958711910       -0.42710621375489        3.93449718813997
C            1.86745871810214       -1.03244349035098        2.69480054297065
N            2.71539119158142        1.32714542207061        5.43871796718982
O            3.42837899419055        2.29378860679580        5.55667976502655
O            2.02902059919289        0.83999181078309        6.30252381987163
C            3.48804886771793       -0.72548277910360       -0.77858422904530
N            3.29632374382121       -1.54335284183992       -1.94490905548225
C            3.56560798986520       -2.85522604596860       -2.02215694795561
C            4.28949322462173       -3.65822997384840       -1.01959970365469
N            3.10255390439443       -3.34886058160895       -3.17271810450355
C            2.50222185908451       -2.32732664050079       -3.88174077570771
C            2.61006495432213       -1.17194713400772       -3.08819525102211
C            2.09147009522175        0.04371038269694       -3.51244739721709
C            1.47179187876831        0.06564163395995       -4.74585649077189
C            1.37072667303706       -1.08016918503513       -5.53715990572602
C            1.88075128858958       -2.29377504594422       -5.12327127977138
C            3.25416896575062       -4.72028050860668       -3.61133868826463
C            4.69223789387920       -5.03370189566443       -3.96173905238670
C            5.30383780672695       -6.17749721583988       -3.46545807528732
C            6.61782746861261       -6.46351908926432       -3.79524389616391
C            7.33091398668145       -5.60406391459628       -4.61355969260394
C            6.72540091805390       -4.46123325937810       -5.10967918915909
C            5.41007736449136       -4.17703278060735       -4.78793491065210
H            4.06932956799596        1.00429949839506        1.08111259462645
H            4.07831565370490        2.07222542607487        3.29913995568480
H            1.27902495465664       -0.79870763113701        4.75222648665076
H            1.25382135479163       -1.90072156542881        2.50951037622994
H            3.20069726285508        0.29860671039061       -1.01940441138510
H            4.53784154876015       -0.73582788818088       -0.47095699006894
H            3.58080877387286       -4.25535403013590       -0.44301865944770
H            4.98426180565633       -4.33622507403565       -1.51392303744157
H            4.83766212536880       -3.02849404673938       -0.32540256238828
H            2.16114647904609        0.93842544820114       -2.91537963203032
H            1.05531863811702        0.99121235626455       -5.10947346662970
H            0.88124531069905       -1.01305773593528       -6.49540644795017
H            1.79974728106893       -3.17057542677059       -5.74471474543817
H            2.90178903911565       -5.38872394421345       -2.82119683223865
H            2.61538875615147       -4.85946557944373       -4.48630501720471
H            4.74885143013770       -6.85211627581363       -2.82969649661120
H            7.08307267656212       -7.35737598059025       -3.41034235894894
H            8.35514847093830       -5.82606813981414       -4.86821059241623
H            7.27536315387596       -3.79240535441396       -5.75327180008295
H            4.93921132296989       -3.28890345791669       -5.18638085022761

          :  Hamiltonian                  GFN2-xTB          :
         :: total energy             -79.956229596510 Eh    ::
         :: gradient norm              0.000163076876 Eh/a0 ::
         :: HOMO-LUMO gap              2.176547479178 eV    ::
         :: SCC energy               -81.187220443981 Eh    ::
         :: -> dispersion             -0.056160957992 Eh    ::
         :: repulsion energy           1.230990847472 Eh    ::

    * Orbital Energies and Occupations

         #    Occupation            Energy/Eh            Energy/eV
      -------------------------------------------------------------
         1        2.0000           -0.8702102             -23.6796
       ...           ...                  ...                  ...
        60        2.0000           -0.5585888             -15.2000
        61        2.0000           -0.5559136             -15.1272
        62        2.0000           -0.5545803             -15.0909
        63        2.0000           -0.5472940             -14.8926
        64        2.0000           -0.5471789             -14.8895
        65        2.0000           -0.5429341             -14.7740
        66        2.0000           -0.5385169             -14.6538
        67        2.0000           -0.5364165             -14.5966
        68        2.0000           -0.5315347             -14.4638
        69        2.0000           -0.5308358             -14.4448
        70        2.0000           -0.5246588             -14.2767
        71        2.0000           -0.5157353             -14.0339
        72        2.0000           -0.5136152             -13.9762 (HOMO)
        73                         -0.4336285             -11.7996 (LUMO)
        74                         -0.4017442             -10.9320
        75                         -0.3890954             -10.5878
        76                         -0.3640974              -9.9076
        77                         -0.3568740              -9.7110
        78                         -0.3488526              -9.4928
        79                         -0.3381356              -9.2011
        80                         -0.3339817              -9.0881
        81                         -0.3178780              -8.6499
        82                         -0.2315141              -6.2998
        83                         -0.2208089              -6.0085
       ...                                ...                  ...
       136                          0.5523367              15.0298
      -------------------------------------------------------------
                  HL-Gap            0.0799866 Eh            2.1765 eV

     #   Z          covCN         q      C6AA      α(0)
     1   8 O        0.857    -0.341    20.538     6.076
     2   6 C        2.822     0.229    23.195     7.891
     3   6 C        2.970    -0.010    28.252     8.719
     4   6 C        2.920    -0.024    28.614     8.772
     5   6 C        2.916    -0.016    28.410     8.740
     6   6 C        2.917     0.019    27.574     8.611
     7   6 C        2.915    -0.014    28.357     8.732
     8   6 C        2.928    -0.007    28.206     8.710
     9   7 N        2.758     0.555    13.424     5.442
    10   8 O        0.929    -0.359    20.843     6.123
    11   8 O        0.929    -0.355    20.768     6.112
    12   6 C        3.741    -0.039    21.356     6.593
    13   7 N        2.832     0.014    21.003     6.807
    14   6 C        3.076     0.133    25.014     8.200
    15   6 C        3.755    -0.132    23.103     6.854
    16   7 N        2.832     0.015    20.981     6.803
    17   6 C        3.097     0.042    26.948     8.507
    18   6 C        3.095     0.039    27.023     8.520
    19   6 C        2.909    -0.035    28.862     8.809
    20   6 C        2.926    -0.020    28.495     8.754
    21   6 C        2.925    -0.020    28.500     8.755
    22   6 C        2.909    -0.032    28.809     8.801
    23   6 C        3.747    -0.021    21.022     6.540
    24   6 C        2.971    -0.003    28.106     8.696
    25   6 C        2.922    -0.039    28.971     8.827
    26   6 C        2.919    -0.023    28.578     8.766
    27   6 C        2.920    -0.022    28.561     8.764
    28   6 C        2.919    -0.024    28.601     8.770
    29   6 C        2.922    -0.038    28.954     8.824
    30   1 H        0.926     0.059     2.215     2.327
    31   1 H        0.926     0.101     1.777     2.084
    32   1 H        0.926     0.105     1.743     2.065
    33   1 H        0.926     0.090     1.876     2.142
    34   1 H        0.924     0.102     1.769     2.080
    35   1 H        0.924     0.092     1.864     2.135
    36   1 H        0.924     0.113     1.668     2.020
    37   1 H        0.925     0.098     1.799     2.097
    38   1 H        0.925     0.081     1.967     2.193
    39   1 H        0.926     0.061     2.191     2.315
    40   1 H        0.926     0.077     2.012     2.218
    41   1 H        0.926     0.078     2.003     2.213
    42   1 H        0.926     0.069     2.099     2.266
    43   1 H        0.924     0.081     1.972     2.196
    44   1 H        0.924     0.088     1.902     2.157
    45   1 H        0.926     0.042     2.418     2.432
    46   1 H        0.926     0.056     2.247     2.344
    47   1 H        0.926     0.057     2.238     2.339
    48   1 H        0.926     0.051     2.303     2.373
    49   1 H        0.925     0.029     2.598     2.520

Wiberg/Mayer (AO) data.
largest (>0.10) Wiberg bond orders for each atom

     #   Z sym  total        # sym  WBO       # sym  WBO       # sym  WBO
 ---------------------------------------------------------------------------
     1   8 O    2.093 --     2 C    1.834
     2   6 C    3.928 --     1 O    1.834     3 C    1.048    12 C    0.942
     3   6 C    3.986 --     4 C    1.367     8 C    1.366     2 C    1.048
     4   6 C    3.990 --     5 C    1.465     3 C    1.367    30 H    0.965
                             7 C    0.104
     5   6 C    3.982 --     4 C    1.465     6 C    1.386    31 H    0.956
                             8 C    0.103
     6   6 C    3.972 --     7 C    1.393     5 C    1.386     9 N    0.937
     7   6 C    3.980 --     8 C    1.456     6 C    1.393    32 H    0.955
                             4 C    0.104
     8   6 C    3.981 --     7 C    1.456     3 C    1.366    33 H    0.961
                             5 C    0.103
     9   7 N    3.916 --    11 O    1.473    10 O    1.469     6 C    0.937
    10   8 O    1.961 --     9 N    1.469    11 O    0.385
    11   8 O    1.965 --     9 N    1.473    10 O    0.385
    12   6 C    3.957 --    13 N    0.994    34 H    0.947    35 H    0.942
                             2 C    0.942
    13   7 N    3.648 --    14 C    1.311    18 C    1.110    12 C    0.994
    14   6 C    3.955 --    16 N    1.341    13 N    1.311    15 C    1.051
    15   6 C    3.977 --    14 C    1.051    38 H    0.971    37 H    0.953
                            36 H    0.937
    16   7 N    3.664 --    14 C    1.341    17 C    1.120    23 C    0.965
    17   6 C    3.954 --    22 C    1.345    18 C    1.277    16 N    1.120
    18   6 C    3.951 --    19 C    1.349    17 C    1.277    13 N    1.110
    19   6 C    3.985 --    20 C    1.485    18 C    1.349    39 H    0.962
                            22 C    0.117
    20   6 C    3.983 --    19 C    1.485    21 C    1.386    40 H    0.967
    21   6 C    3.983 --    22 C    1.488    20 C    1.386    41 H    0.966
    22   6 C    3.985 --    21 C    1.488    17 C    1.345    42 H    0.961
                            19 C    0.117
    23   6 C    3.941 --    24 C    0.983    16 N    0.965    43 H    0.959
                            44 H    0.955
    24   6 C    3.979 --    25 C    1.413    29 C    1.412    23 C    0.983
                            27 C    0.109
    25   6 C    3.990 --    26 C    1.440    24 C    1.413    45 H    0.968
                            28 C    0.110
    26   6 C    3.990 --    27 C    1.442    25 C    1.440    46 H    0.969
                            29 C    0.112
    27   6 C    3.989 --    26 C    1.442    28 C    1.437    47 H    0.969
                            24 C    0.109
    28   6 C    3.991 --    29 C    1.446    27 C    1.437    48 H    0.969
                            25 C    0.110
    29   6 C    3.992 --    28 C    1.446    24 C    1.412    49 H    0.969
                            26 C    0.112
    30   1 H    0.996 --     4 C    0.965
    31   1 H    0.989 --     5 C    0.956
    32   1 H    0.988 --     7 C    0.955
    33   1 H    0.991 --     8 C    0.961
    34   1 H    0.989 --    12 C    0.947
    35   1 H    0.990 --    12 C    0.942
    36   1 H    0.983 --    15 C    0.937
    37   1 H    0.988 --    15 C    0.953
    38   1 H    0.993 --    15 C    0.971
    39   1 H    0.996 --    19 C    0.962
    40   1 H    0.994 --    20 C    0.967
    41   1 H    0.994 --    21 C    0.966
    42   1 H    0.995 --    22 C    0.961
    43   1 H    0.992 --    23 C    0.959
    44   1 H    0.992 --    23 C    0.955
    45   1 H    0.998 --    25 C    0.968
    46   1 H    0.996 --    26 C    0.969
    47   1 H    0.996 --    27 C    0.969
    48   1 H    0.997 --    28 C    0.969
    49   1 H    0.999 --    29 C    0.969
 ---------------------------------------------------------------------------

molecular dipole:
                 x           y           z       tot (Debye)
 q only:        6.855      -4.772      -5.523
   full:        6.919      -4.658      -5.536      25.446

           -------------------------------------------------
          | TOTAL ENERGY              -79.956229596510 Eh   |
          | GRADIENT NORM               0.000163076876 Eh/α |
          | HOMO-LUMO GAP               2.176547479178 eV   |
           -------------------------------------------------

 * finished run on 2024/12/20 at 07:04:17.475
