   * xtb version 6.7.1 (edcfbbe) compiled by 'conda@3ef47c1a292c' on 2024-11-25

   ID    Z sym.   atoms
    1    6 C      1, 2, 4, 5, 7, 9-19
    2    8 O      3
    3    7 N      6, 8
    4    1 H      20-42

          program call               : xtb C0919.xyz --opt --namespace C0919 --charge +1
          :  Hamiltonian                  GFN2-xTB          :
 * total energy  :   -55.5286393 Eh     change       -0.3318235E-09 Eh
 * total energy  :   -55.5342740 Eh     change       -0.5634618E-02 Eh
 * total energy  :   -55.5352855 Eh     change       -0.1011575E-02 Eh
 * total energy  :   -55.5354761 Eh     change       -0.1905192E-03 Eh
 * total energy  :   -55.5356545 Eh     change       -0.1784552E-03 Eh
 * total energy  :   -55.5357232 Eh     change       -0.6871354E-04 Eh
 * total energy  :   -55.5358108 Eh     change       -0.8756779E-04 Eh
 * total energy  :   -55.5359066 Eh     change       -0.9577607E-04 Eh
 * total energy  :   -55.5360341 Eh     change       -0.1275634E-03 Eh
 * total energy  :   -55.5362056 Eh     change       -0.1714577E-03 Eh
 * total energy  :   -55.5427876 Eh     change       -0.1311996E-04 Eh
 * total energy  :   -55.5427994 Eh     change       -0.1177201E-04 Eh
 * total energy  :   -55.5428118 Eh     change       -0.1237409E-04 Eh
 * total energy  :   -55.5428302 Eh     change       -0.1842464E-04 Eh
 * total energy  :   -55.5428474 Eh     change       -0.1715479E-04 Eh
 * total energy  :   -55.5428610 Eh     change       -0.1362325E-04 Eh
 * total energy  :   -55.5428734 Eh     change       -0.1242804E-04 Eh
 * total energy  :   -55.5428842 Eh     change       -0.1074851E-04 Eh
 * total energy  :   -55.5428877 Eh     change       -0.3561625E-05 Eh
   *** GEOMETRY OPTIMIZATION CONVERGED AFTER 68 ITERATIONS ***

 final structure:
================
42
 xtb: 6.7.1 (edcfbbe)
C           -1.00893530263416       -1.90573100421224        2.29633783644346
C           -0.66303275095819       -1.58104177076748        0.84888760410739
O            0.63530395121587       -2.00256776927916        0.45579718169105
C            1.69554977290017       -1.28125839060979        1.03626251979478
C            2.98388785908784       -1.74833581241589        0.34632443767628
N            2.85743705466132       -1.56387007640620       -1.07712531431941
C            2.15982936553233       -2.36338463322278       -1.87820047799061
N            2.09782074252116       -1.87617256181625       -3.11129329583221
C            2.77349667288157       -0.67342547867369       -3.12368956346236
C            3.25795457331608       -0.47157617597281       -1.81757808938223
C            3.99243649953537        0.66593799424086       -1.49980018860778
C            4.21988294083896        1.56775125012635       -2.51416808861254
C            3.74378595779316        1.37707250907550       -3.82425301830076
C            3.00983325766970        0.24625639677391       -4.13706976367286
C            4.04124765035920        2.40931630272067       -4.86044132808140
C            1.35884247018938       -2.44399701690116       -4.22054298541998
C            0.03085583300003       -1.75409415703772       -4.36734282940276
C           -0.37218811164211       -1.13920277629989       -5.46765007743425
C           -1.69268588233432       -0.47767144629249       -5.62745234677946
H           -0.81802840156307       -2.95637509574420        2.49951410525459
H           -2.06244408273506       -1.70430327058599        2.46392443525375
H           -0.43123279001670       -1.29999792454241        2.98988084988405
H           -1.33262188358135       -2.12070670024879        0.17537360013967
H           -0.76755261531550       -0.50217046356972        0.66495115958434
H            1.54840342322682       -0.20076306852336        0.88285210136728
H            1.77963888607110       -1.47593460793627        2.11205090514352
H            3.84086137576784       -1.18429181132463        0.71297404302416
H            3.12978646714528       -2.81108486877856        0.54914599138384
H            1.70377893416032       -3.27988891101576       -1.55555431076669
H            4.36915331619665        0.83962330024371       -0.50512873410640
H            4.78645399271235        2.46158343182192       -2.30367290725293
H            2.63103827259772        0.08843357013367       -5.13339345111311
H            5.11667773112461        2.55004753312061       -4.95322713947967
H            3.64117974626672        2.12542349663339       -5.82905348122597
H            3.61104781391809        3.36695723490363       -4.57183344274890
H            1.95276484423780       -2.33419551234380       -5.13046176810847
H            1.21358477722665       -3.50861787082945       -4.01721208631856
H           -0.60438211736420       -1.79430143454701       -3.49301140838032
H            0.26954163742277       -1.11543331893212       -6.33966878814352
H           -1.55680793394017        0.56551365181642       -5.90876655753600
H           -2.25131763152444       -0.95822828897490       -6.42922866942391
H           -2.27568631594936       -0.52758445386316       -4.71221665885283

          :  Hamiltonian                  GFN2-xTB          :
         :: total energy             -55.542887718092 Eh    ::
         :: gradient norm              0.000311974498 Eh/a0 ::
         :: HOMO-LUMO gap              3.042807601670 eV    ::
         :: SCC energy               -56.398414485276 Eh    ::
         :: -> dispersion             -0.037118950070 Eh    ::
         :: repulsion energy           0.855526767184 Eh    ::

    * Orbital Energies and Occupations

         #    Occupation            Energy/Eh            Energy/eV
      -------------------------------------------------------------
         1        2.0000           -0.8658639             -23.5614
       ...           ...                  ...                  ...
        39        2.0000           -0.5802029             -15.7881
        40        2.0000           -0.5750241             -15.6472
        41        2.0000           -0.5747160             -15.6388
        42        2.0000           -0.5694943             -15.4967
        43        2.0000           -0.5595243             -15.2254
        44        2.0000           -0.5582128             -15.1897
        45        2.0000           -0.5563843             -15.1400
        46        2.0000           -0.5458016             -14.8520
        47        2.0000           -0.5389938             -14.6668
        48        2.0000           -0.5357157             -14.5776
        49        2.0000           -0.5243483             -14.2682
        50        2.0000           -0.5163483             -14.0506
        51        2.0000           -0.5117736             -13.9261 (HOMO)
        52                         -0.3999525             -10.8833 (LUMO)
        53                         -0.3514037              -9.5622
        54                         -0.3431739              -9.3382
        55                         -0.3206508              -8.7254
        56                         -0.2276658              -6.1951
        57                         -0.1604323              -4.3656
        58                         -0.1208144              -3.2875
        59                         -0.0947130              -2.5773
        60                         -0.0559832              -1.5234
        61                         -0.0385638              -1.0494
        62                         -0.0329397              -0.8963
       ...                                ...                  ...
        99                          0.5463648              14.8673
      -------------------------------------------------------------
                  HL-Gap            0.1118211 Eh            3.0428 eV

     #   Z          covCN         q      C6AA      α(0)
     1   6 C        3.750    -0.123    22.913     6.827
     2   6 C        3.692     0.079    19.443     6.310
     3   8 O        1.700    -0.330    19.522     5.965
     4   6 C        3.695     0.078    19.440     6.307
     5   6 C        3.743    -0.023    21.056     6.546
     6   7 N        2.831     0.038    20.579     6.738
     7   6 C        3.074     0.071    26.343     8.415
     8   7 N        2.831     0.034    20.656     6.750
     9   6 C        3.118     0.039    26.967     8.506
    10   6 C        3.119     0.033    27.093     8.525
    11   6 C        2.907    -0.036    28.899     8.815
    12   6 C        2.931    -0.031    28.778     8.798
    13   6 C        2.970     0.037    27.167     8.549
    14   6 C        2.914    -0.046    29.150     8.853
    15   6 C        3.759    -0.125    22.938     6.828
    16   6 C        3.745    -0.017    20.941     6.528
    17   6 C        2.892    -0.063    29.553     8.913
    18   6 C        2.888    -0.018    28.468     8.748
    19   6 C        3.757    -0.114    22.744     6.800
    20   1 H        0.925     0.060     2.204     2.321
    21   1 H        0.925     0.059     2.211     2.325
    22   1 H        0.925     0.047     2.353     2.399
    23   1 H        0.924     0.058     2.228     2.334
    24   1 H        0.923     0.027     2.637     2.539
    25   1 H        0.923     0.039     2.468     2.457
    26   1 H        0.924     0.060     2.200     2.320
    27   1 H        0.925     0.088     1.894     2.152
    28   1 H        0.924     0.093     1.847     2.125
    29   1 H        0.926     0.115     1.652     2.010
    30   1 H        0.926     0.064     2.149     2.292
    31   1 H        0.926     0.076     2.024     2.225
    32   1 H        0.926     0.067     2.117     2.275
    33   1 H        0.925     0.076     2.021     2.223
    34   1 H        0.925     0.063     2.164     2.300
    35   1 H        0.925     0.076     2.025     2.225
    36   1 H        0.924     0.083     1.948     2.183
    37   1 H        0.924     0.079     1.994     2.208
    38   1 H        0.925     0.048     2.343     2.394
    39   1 H        0.925     0.048     2.348     2.396
    40   1 H        0.925     0.067     2.121     2.277
    41   1 H        0.925     0.072     2.062     2.246
    42   1 H        0.925     0.054     2.272     2.357

Wiberg/Mayer (AO) data.
largest (>0.10) Wiberg bond orders for each atom

     #   Z sym  total        # sym  WBO       # sym  WBO       # sym  WBO
 ---------------------------------------------------------------------------
     1   6 C    3.992 --     2 C    1.013    22 H    0.985    20 H    0.985
                            21 H    0.982
     2   6 C    3.940 --     1 C    1.013    23 H    0.970    24 H    0.969
                             3 O    0.962
     3   8 O    2.067 --     4 C    0.996     2 C    0.962
     4   6 C    3.959 --     3 O    0.996     5 C    0.981    25 H    0.965
                            26 H    0.960
     5   6 C    3.951 --     4 C    0.981     6 N    0.981    27 H    0.966
                            28 H    0.963
     6   7 N    3.678 --     7 C    1.361    10 C    1.126     5 C    0.981
     7   6 C    3.947 --     8 N    1.374     6 N    1.361    29 H    0.951
     8   7 N    3.681 --     7 C    1.374     9 C    1.126    16 C    0.960
     9   6 C    3.953 --    14 C    1.340    10 C    1.274     8 N    1.126
    10   6 C    3.950 --    11 C    1.328     9 C    1.274     6 N    1.126
    11   6 C    3.987 --    12 C    1.514    10 C    1.328    30 H    0.963
                            14 C    0.111
    12   6 C    3.986 --    11 C    1.514    13 C    1.334    31 H    0.966
    13   6 C    3.985 --    14 C    1.461    12 C    1.334    15 C    1.038
    14   6 C    3.984 --    13 C    1.461     9 C    1.340    32 H    0.962
                            11 C    0.111
    15   6 C    3.989 --    13 C    1.038    34 H    0.983    33 H    0.962
                            35 H    0.961
    16   6 C    3.941 --    17 C    0.996    36 H    0.961     8 N    0.960
                            37 H    0.958
    17   6 C    3.974 --    18 C    1.914    16 C    0.996    38 H    0.963
    18   6 C    3.987 --    17 C    1.914    19 C    1.051    39 H    0.963
    19   6 C    3.992 --    18 C    1.051    42 H    0.984    40 H    0.962
                            41 H    0.960
    20   1 H    0.996 --     1 C    0.985
    21   1 H    0.996 --     1 C    0.982
    22   1 H    0.998 --     1 C    0.985
    23   1 H    0.997 --     2 C    0.970
    24   1 H    0.999 --     2 C    0.969
    25   1 H    0.999 --     4 C    0.965
    26   1 H    0.996 --     4 C    0.960
    27   1 H    0.992 --     5 C    0.966
    28   1 H    0.990 --     5 C    0.963
    29   1 H    0.986 --     7 C    0.951
    30   1 H    0.995 --    11 C    0.963
    31   1 H    0.994 --    12 C    0.966
    32   1 H    0.995 --    14 C    0.962
    33   1 H    0.992 --    15 C    0.962
    34   1 H    0.996 --    15 C    0.983
    35   1 H    0.992 --    15 C    0.961
    36   1 H    0.993 --    16 C    0.961
    37   1 H    0.993 --    16 C    0.958
    38   1 H    0.998 --    17 C    0.963
    39   1 H    0.998 --    18 C    0.963
    40   1 H    0.995 --    19 C    0.962
    41   1 H    0.994 --    19 C    0.960
    42   1 H    0.997 --    19 C    0.984
 ---------------------------------------------------------------------------

molecular dipole:
                 x           y           z       tot (Debye)
 q only:        4.043      -1.671      -4.312
   full:        4.037      -1.773      -4.088      15.283

           -------------------------------------------------
          | TOTAL ENERGY              -55.542887718092 Eh   |
          | GRADIENT NORM               0.000311974498 Eh/α |
          | HOMO-LUMO GAP               3.042807601670 eV   |
           -------------------------------------------------

 * finished run on 2024/12/20 at 07:04:19.964
