   * xtb version 6.7.1 (edcfbbe) compiled by 'conda@3ef47c1a292c' on 2024-11-25

   ID    Z sym.   atoms
    1    8 O      1, 9
    2    6 C      2-4, 6-8
    3    7 N      5
    4    1 H      10-25

          program call               : xtb C0912.xyz --opt --namespace C0912 --charge +1
          :  Hamiltonian                  GFN2-xTB          :
 * total energy  :   -31.6359525 Eh     change       -0.2900080E-10 Eh
 * total energy  :   -31.6437501 Eh     change       -0.7797609E-02 Eh
 * total energy  :   -31.6457223 Eh     change       -0.1972268E-02 Eh
 * total energy  :   -31.6458839 Eh     change       -0.1615315E-03 Eh
 * total energy  :   -31.6459943 Eh     change       -0.1104569E-03 Eh
 * total energy  :   -31.6460197 Eh     change       -0.2533284E-04 Eh
 * total energy  :   -31.6460548 Eh     change       -0.3512974E-04 Eh
 * total energy  :   -31.6460772 Eh     change       -0.2239381E-04 Eh
 * total energy  :   -31.6460924 Eh     change       -0.1524901E-04 Eh
 * total energy  :   -31.6461092 Eh     change       -0.1673318E-04 Eh
 * total energy  :   -31.6490536 Eh     change       -0.1871041E-03 Eh
 * total energy  :   -31.6492125 Eh     change       -0.1589220E-03 Eh
 * total energy  :   -31.6493099 Eh     change       -0.9733482E-04 Eh
 * total energy  :   -31.6493501 Eh     change       -0.4023519E-04 Eh
 * total energy  :   -31.6493773 Eh     change       -0.2724534E-04 Eh
 * total energy  :   -31.6493912 Eh     change       -0.1389618E-04 Eh
 * total energy  :   -31.6494015 Eh     change       -0.1023757E-04 Eh
 * total energy  :   -31.6494036 Eh     change       -0.2090950E-05 Eh
 * total energy  :   -31.6494058 Eh     change       -0.2233433E-05 Eh
   *** GEOMETRY OPTIMIZATION CONVERGED AFTER 39 ITERATIONS ***

 final structure:
================
25
 xtb: 6.7.1 (edcfbbe)
O            1.45109889134493        0.06243577024103       -0.26049640917777
C            0.41486616772945       -0.87763701441810       -0.08001869952680
C            0.89006065692873       -2.28841972337583       -0.53158871465063
C            2.42594915054890       -2.42770831752830       -0.59203649244673
N            3.15081339013444       -2.73772462578834        0.67218853512614
C            3.02962475119028       -4.17340725888211        0.99201255007537
C            4.57519594759715       -2.41198629488380        0.46765150101238
C            2.63975153553882       -1.94349871415568        1.80169119689208
O            0.33882191645895       -3.29219214951868        0.28798410635641
H            1.07922298130355        0.95059473414361       -0.26156414260752
H            0.11491042963707       -0.91942021403414        0.97663196660294
H           -0.46666783170761       -0.60302803475925       -0.66872051683206
H            0.56528779559750       -2.43037961876175       -1.57216952258434
H            2.66903546540665       -3.21950482354942       -1.30170909171885
H            2.79333769786030       -1.47493014278655       -0.97870069324196
H            3.51253784818933       -4.77240830892382        0.22256198626412
H            3.50520663627334       -4.38163902876989        1.94823083655011
H            1.97781360734152       -4.44540204515857        1.04609298541284
H            4.69867064519803       -1.33987558243505        0.32396984288821
H            5.15464242960282       -2.71793432743083        1.33705588813444
H            4.96174197638803       -2.93088044349342       -0.40787867692466
H            2.60641338338108       -0.89212916314265        1.52237533929082
H            1.64179184937650       -2.28683087510231        2.06233350897302
H            3.29050002760877       -2.06611244877026        2.66480823022815
H           -0.60970734892556       -3.36037134871129        0.13567448590179

          :  Hamiltonian                  GFN2-xTB          :
         :: total energy             -31.649405791234 Eh    ::
         :: gradient norm              0.000474033821 Eh/a0 ::
         :: HOMO-LUMO gap              8.985118796281 eV    ::
         :: SCC energy               -31.992060457083 Eh    ::
         :: -> dispersion             -0.017015102600 Eh    ::
         :: repulsion energy           0.342654665849 Eh    ::

    * Orbital Energies and Occupations

         #    Occupation            Energy/Eh            Energy/eV
      -------------------------------------------------------------
         1        2.0000           -0.8575252             -23.3344
       ...           ...                  ...                  ...
        16        2.0000           -0.6696069             -18.2209
        17        2.0000           -0.6599959             -17.9594
        18        2.0000           -0.6536480             -17.7867
        19        2.0000           -0.6498584             -17.6835
        20        2.0000           -0.6397199             -17.4077
        21        2.0000           -0.6344243             -17.2636
        22        2.0000           -0.6304931             -17.1566
        23        2.0000           -0.6291901             -17.1211
        24        2.0000           -0.6236030             -16.9691
        25        2.0000           -0.6170287             -16.7902
        26        2.0000           -0.5970147             -16.2456
        27        2.0000           -0.5676612             -15.4468
        28        2.0000           -0.5502971             -14.9743 (HOMO)
        29                         -0.2201000              -5.9892 (LUMO)
        30                         -0.1545334              -4.2051
        31                         -0.1453994              -3.9565
        32                         -0.1320123              -3.5922
        33                         -0.1144766              -3.1151
        34                         -0.1084332              -2.9506
        35                         -0.0804564              -2.1893
        36                         -0.0387499              -1.0544
        37                         -0.0175736              -0.4782
        38                         -0.0115236              -0.3136
        39                          0.0028264               0.0769
       ...                                ...                  ...
        52                          0.1453258               3.9545
      -------------------------------------------------------------
                  HL-Gap            0.3301970 Eh            8.9851 eV

     #   Z          covCN         q      C6AA      α(0)
     1   8 O        1.655    -0.447    21.787     6.301
     2   6 C        3.670     0.055    19.899     6.395
     3   6 C        3.719     0.106    18.945     6.217
     4   6 C        3.764    -0.050    21.509     6.611
     5   7 N        3.623     0.158    18.571     6.401
     6   6 C        3.723    -0.107    22.662     6.798
     7   6 C        3.731    -0.103    22.562     6.780
     8   6 C        3.722    -0.107    22.656     6.798
     9   8 O        1.656    -0.440    21.643     6.280
    10   1 H        0.805     0.313     0.683     1.298
    11   1 H        0.923     0.050     2.318     2.381
    12   1 H        0.924     0.046     2.374     2.410
    13   1 H        0.923     0.057     2.234     2.337
    14   1 H        0.924     0.092     1.858     2.132
    15   1 H        0.924     0.121     1.609     1.984
    16   1 H        0.925     0.094     1.844     2.124
    17   1 H        0.925     0.096     1.820     2.110
    18   1 H        0.925     0.128     1.547     1.945
    19   1 H        0.925     0.103     1.758     2.074
    20   1 H        0.925     0.102     1.769     2.080
    21   1 H        0.925     0.097     1.810     2.104
    22   1 H        0.925     0.115     1.654     2.011
    23   1 H        0.925     0.114     1.663     2.017
    24   1 H        0.925     0.093     1.850     2.127
    25   1 H        0.805     0.313     0.682     1.297

Wiberg/Mayer (AO) data.
largest (>0.10) Wiberg bond orders for each atom

     #   Z sym  total        # sym  WBO       # sym  WBO       # sym  WBO
 ---------------------------------------------------------------------------
     1   8 O    1.957 --     2 C    1.003    10 H    0.886
     2   6 C    3.955 --     1 O    1.003    12 H    0.975     3 C    0.969
                            11 H    0.965
     3   6 C    3.957 --     9 O    1.000     4 C    0.991     2 C    0.969
                            13 H    0.959
     4   6 C    3.936 --     3 C    0.991    14 H    0.967    15 H    0.954
                             5 N    0.939
     5   7 N    3.823 --     7 C    0.958     6 C    0.954     8 C    0.954
                             4 C    0.939
     6   6 C    3.919 --    16 H    0.976    17 H    0.976    18 H    0.962
                             5 N    0.954
     7   6 C    3.928 --    21 H    0.976    19 H    0.974    20 H    0.974
                             5 N    0.958
     8   6 C    3.918 --    24 H    0.976    23 H    0.969    22 H    0.968
                             5 N    0.954
     9   8 O    1.971 --     3 C    1.000    25 H    0.885
    10   1 H    0.902 --     1 O    0.886
    11   1 H    0.997 --     2 C    0.965
    12   1 H    0.998 --     2 C    0.975
    13   1 H    0.996 --     3 C    0.959
    14   1 H    0.992 --     4 C    0.967
    15   1 H    0.985 --     4 C    0.954
    16   1 H    0.991 --     6 C    0.976
    17   1 H    0.991 --     6 C    0.976
    18   1 H    0.984 --     6 C    0.962
    19   1 H    0.989 --     7 C    0.974
    20   1 H    0.989 --     7 C    0.974
    21   1 H    0.991 --     7 C    0.976
    22   1 H    0.987 --     8 C    0.968
    23   1 H    0.987 --     8 C    0.969
    24   1 H    0.991 --     8 C    0.976
    25   1 H    0.902 --     9 O    0.885
 ---------------------------------------------------------------------------

molecular dipole:
                 x           y           z       tot (Debye)
 q only:        4.859      -4.569       0.945
   full:        4.505      -4.376       0.799      16.091

           -------------------------------------------------
          | TOTAL ENERGY              -31.649405791234 Eh   |
          | GRADIENT NORM               0.000474033821 Eh/α |
          | HOMO-LUMO GAP               8.985118796281 eV   |
           -------------------------------------------------

 * finished run on 2024/12/20 at 07:03:41.248
