   * xtb version 6.7.1 (edcfbbe) compiled by 'conda@3ef47c1a292c' on 2024-11-25

   ID    Z sym.   atoms
    1    6 C      1, 2, 4, 6, 7, 9-13
    2   15 P      3
    3    8 O      5, 8
    4    1 H      14-37

          program call               : xtb C0917.xyz --opt --namespace C0917 --charge +1
          :  Hamiltonian                  GFN2-xTB          :
 * total energy  :   -43.8848749 Eh     change       -0.2492726E-09 Eh
 * total energy  :   -43.8920667 Eh     change       -0.7191843E-02 Eh
 * total energy  :   -43.8946491 Eh     change       -0.2582383E-02 Eh
 * total energy  :   -43.8951538 Eh     change       -0.5046509E-03 Eh
 * total energy  :   -43.8954105 Eh     change       -0.2567543E-03 Eh
 * total energy  :   -43.8955584 Eh     change       -0.1478314E-03 Eh
 * total energy  :   -43.8956667 Eh     change       -0.1083131E-03 Eh
 * total energy  :   -43.8957296 Eh     change       -0.6287111E-04 Eh
 * total energy  :   -43.8957688 Eh     change       -0.3925384E-04 Eh
 * total energy  :   -43.8958075 Eh     change       -0.3869074E-04 Eh
 * total energy  :   -43.8958262 Eh     change       -0.1872250E-04 Eh
 * total energy  :   -43.8958502 Eh     change       -0.2398925E-04 Eh
 * total energy  :   -43.8958632 Eh     change       -0.1294264E-04 Eh
 * total energy  :   -43.8958728 Eh     change       -0.9617169E-05 Eh
 * total energy  :   -43.8958846 Eh     change       -0.1180444E-04 Eh
 * total energy  :   -43.8958953 Eh     change       -0.1068768E-04 Eh
 * total energy  :   -43.8959028 Eh     change       -0.7574734E-05 Eh
 * total energy  :   -43.8959081 Eh     change       -0.5241195E-05 Eh
 * total energy  :   -43.8959118 Eh     change       -0.3733431E-05 Eh
   *** GEOMETRY OPTIMIZATION CONVERGED AFTER 19 ITERATIONS ***

 final structure:
================
37
 xtb: 6.7.1 (edcfbbe)
C            0.66434861926295       -0.15078128258201       -0.57485024936597
C            0.57202472654793       -0.48739055514529       -2.06051882014216
P           -0.01268420199126       -1.43476238102633        0.54225315446941
C            0.70033084755782       -1.17709254082622        2.22909338191301
O            0.21221855598705        0.02640729289175        2.75988369672798
C            1.09949983273668        1.13508051029479        2.74352772726967
C            2.42680383412846        0.88842025501973        3.45849952252259
O            3.29310051131154        0.17971112146888        2.59126188391799
C            4.60249895044140        0.04578898183985        3.10379855330935
C           -1.81639197909404       -1.26405367526476        0.77646100067140
C           -2.61463799989097       -0.93197993359686       -0.47973570292376
C            0.49139454103872       -3.11686738664168        0.01694395930082
C           -0.42983221805407       -3.77063032321351       -1.00831990344444
H            0.12712637473203        0.77718067095062       -0.35693405547302
H            1.71290828816671       -0.01568642671195       -0.28999578109846
H            1.15480647968390       -1.37324026064348       -2.29952633619689
H           -0.45523618146037       -0.64400710933283       -2.37756274704549
H            0.97685351421011        0.34050204492193       -2.63793361439609
H            0.34028659699060       -1.99446154426167        2.86767882842082
H            1.79569493933993       -1.20294856666174        2.18476299706923
H            1.31348045163962        1.45048131750933        1.71567205721798
H            0.54685629258571        1.92333070140931        3.25681364979088
H            2.87273814917883        1.85666153626586        3.72090850636991
H            2.25925088690354        0.32081592408118        4.38488301197724
H            4.60141413507550       -0.51522093485676        4.04382153401491
H            5.17388647663649       -0.49633846240580        2.35394933866794
H            5.05699008599954        1.02607787895498        3.27377975003027
H           -2.16795162439735       -2.19816183888998        1.22506734136175
H           -1.93149992183461       -0.47031015092885        1.52315581743709
H           -2.51218591287580       -1.70195547087273       -1.23992717281004
H           -3.66826423038845       -0.85769607197691       -0.22098309117881
H           -2.30998070401842        0.02337520956740       -0.89962795628489
H            1.51077143645481       -3.03954512247908       -0.37157898182195
H            0.52721124569363       -3.72725454856575        0.92457464704473
H           -0.48567152927627       -3.19398402010822       -1.92712533120353
H           -0.04572305485825       -4.75726408577526       -1.25611013422112
H           -1.43302621416458       -3.89611075240571       -0.60914048189664

          :  Hamiltonian                  GFN2-xTB          :
         :: total energy             -43.895911810605 Eh    ::
         :: gradient norm              0.000308700786 Eh/a0 ::
         :: HOMO-LUMO gap              5.726176734382 eV    ::
         :: SCC energy               -44.421613878889 Eh    ::
         :: -> dispersion             -0.029239688741 Eh    ::
         :: repulsion energy           0.525702068283 Eh    ::

    * Orbital Energies and Occupations

         #    Occupation            Energy/Eh            Energy/eV
      -------------------------------------------------------------
         1        2.0000           -0.8532727             -23.2187
       ...           ...                  ...                  ...
        28        2.0000           -0.6109259             -16.6241
        29        2.0000           -0.6088439             -16.5675
        30        2.0000           -0.5976835             -16.2638
        31        2.0000           -0.5933405             -16.1456
        32        2.0000           -0.5919149             -16.1068
        33        2.0000           -0.5871812             -15.9780
        34        2.0000           -0.5846923             -15.9103
        35        2.0000           -0.5764892             -15.6871
        36        2.0000           -0.5712278             -15.5439
        37        2.0000           -0.5691670             -15.4878
        38        2.0000           -0.5639575             -15.3461
        39        2.0000           -0.5363839             -14.5957
        40        2.0000           -0.5138238             -13.9819 (HOMO)
        41                         -0.3033907              -8.2557 (LUMO)
        42                         -0.2795224              -7.6062
        43                         -0.2737234              -7.4484
        44                         -0.1997725              -5.4361
        45                         -0.1364913              -3.7141
        46                         -0.0977853              -2.6609
        47                         -0.0834688              -2.2713
        48                         -0.0696530              -1.8954
        49                         -0.0393274              -1.0702
        50                         -0.0301746              -0.8211
        51                         -0.0264664              -0.7202
       ...                                ...                  ...
        81                          0.7248494              19.7242
      -------------------------------------------------------------
                  HL-Gap            0.2104331 Eh            5.7262 eV

     #   Z          covCN         q      C6AA      α(0)
     1   6 C        3.749    -0.066    21.836     6.665
     2   6 C        3.804    -0.118    22.755     6.791
     3  15 P        3.921     0.193   151.927    22.141
     4   6 C        3.639     0.042    20.223     6.468
     5   8 O        1.740    -0.291    18.822     5.858
     6   6 C        3.689     0.060    19.752     6.361
     7   6 C        3.699     0.068    19.605     6.333
     8   8 O        1.700    -0.331    19.541     5.968
     9   6 C        3.650     0.032    20.351     6.480
    10   6 C        3.749    -0.069    21.886     6.672
    11   6 C        3.800    -0.117    22.734     6.789
    12   6 C        3.749    -0.074    21.971     6.685
    13   6 C        3.803    -0.117    22.745     6.790
    14   1 H        0.927     0.095     1.832     2.117
    15   1 H        0.927     0.097     1.814     2.106
    16   1 H        0.925     0.065     2.144     2.290
    17   1 H        0.925     0.066     2.133     2.284
    18   1 H        0.925     0.077     2.010     2.217
    19   1 H        0.925     0.092     1.860     2.133
    20   1 H        0.925     0.110     1.694     2.035
    21   1 H        0.924     0.051     2.305     2.374
    22   1 H        0.924     0.083     1.944     2.180
    23   1 H        0.924     0.048     2.341     2.393
    24   1 H        0.923     0.046     2.366     2.405
    25   1 H        0.924     0.041     2.433     2.439
    26   1 H        0.925     0.067     2.113     2.273
    27   1 H        0.924     0.046     2.368     2.406
    28   1 H        0.927     0.095     1.830     2.115
    29   1 H        0.928     0.109     1.703     2.040
    30   1 H        0.925     0.064     2.152     2.294
    31   1 H        0.925     0.077     2.007     2.215
    32   1 H        0.925     0.064     2.147     2.292
    33   1 H        0.927     0.095     1.835     2.118
    34   1 H        0.927     0.089     1.887     2.148
    35   1 H        0.925     0.065     2.136     2.286
    36   1 H        0.925     0.077     2.006     2.215
    37   1 H        0.925     0.065     2.142     2.289

Wiberg/Mayer (AO) data.
largest (>0.10) Wiberg bond orders for each atom

     #   Z sym  total        # sym  WBO       # sym  WBO       # sym  WBO
 ---------------------------------------------------------------------------
     1   6 C    3.986 --     3 P    1.004     2 C    1.000    15 H    0.934
                            14 H    0.933
     2   6 C    3.984 --     1 C    1.000    16 H    0.979    17 H    0.978
                            18 H    0.977
     3  15 P    4.513 --    10 C    1.011     1 C    1.004    12 C    1.000
                             4 C    0.966
     4   6 C    3.955 --     5 O    1.005     3 P    0.966    19 H    0.933
                            20 H    0.921
     5   8 O    2.127 --     4 C    1.005     6 C    0.967
     6   6 C    3.940 --     7 C    0.997     5 O    0.967    22 H    0.965
                            21 H    0.963
     7   6 C    3.955 --     6 C    0.997     8 O    0.982    24 H    0.965
                            23 H    0.965
     8   8 O    2.069 --     7 C    0.982     9 C    0.981
     9   6 C    3.940 --     8 O    0.981    26 H    0.979    25 H    0.979
                            27 H    0.977
    10   6 C    3.984 --     3 P    1.011    11 C    1.002    28 H    0.932
                            29 H    0.927
    11   6 C    3.985 --    10 C    1.002    30 H    0.979    32 H    0.979
                            31 H    0.977
    12   6 C    3.987 --    13 C    1.003     3 P    1.000    34 H    0.936
                            33 H    0.935
    13   6 C    3.981 --    12 C    1.003    37 H    0.979    35 H    0.979
                            36 H    0.977
    14   1 H    0.991 --     1 C    0.933
    15   1 H    0.991 --     1 C    0.934
    16   1 H    0.996 --     2 C    0.979
    17   1 H    0.996 --     2 C    0.978
    18   1 H    0.994 --     2 C    0.977
    19   1 H    0.991 --     4 C    0.933
    20   1 H    0.988 --     4 C    0.921
    21   1 H    0.997 --     6 C    0.963
    22   1 H    0.992 --     6 C    0.965
    23   1 H    0.997 --     7 C    0.965
    24   1 H    0.998 --     7 C    0.965
    25   1 H    0.998 --     9 C    0.979
    26   1 H    0.995 --     9 C    0.979
    27   1 H    0.998 --     9 C    0.977
    28   1 H    0.991 --    10 C    0.932
    29   1 H    0.988 --    10 C    0.927
    30   1 H    0.996 --    11 C    0.979
    31   1 H    0.994 --    11 C    0.977
    32   1 H    0.996 --    11 C    0.979
    33   1 H    0.991 --    12 C    0.935
    34   1 H    0.992 --    12 C    0.936
    35   1 H    0.996 --    13 C    0.979
    36   1 H    0.993 --    13 C    0.977
    37   1 H    0.996 --    13 C    0.979
 ---------------------------------------------------------------------------

molecular dipole:
                 x           y           z       tot (Debye)
 q only:        0.554      -2.324       0.953
   full:        0.829      -2.254       1.244       6.874

           -------------------------------------------------
          | TOTAL ENERGY              -43.895911810605 Eh   |
          | GRADIENT NORM               0.000308700786 Eh/α |
          | HOMO-LUMO GAP               5.726176734382 eV   |
           -------------------------------------------------

 * finished run on 2024/12/20 at 07:04:11.241
