   * xtb version 6.7.1 (edcfbbe) compiled by 'conda@3ef47c1a292c' on 2024-11-25

   ID    Z sym.   atoms
    1    6 C      1-6, 8, 9, 11-13
    2    7 N      7, 10
    3    1 H      14-34

          program call               : xtb C0914.xyz --opt --namespace C0914 --charge +1
          :  Hamiltonian                  GFN2-xTB          :
 * total energy  :   -39.7609367 Eh     change       -0.7835510E-09 Eh
 * total energy  :   -39.7650323 Eh     change       -0.4095558E-02 Eh
 * total energy  :   -39.7658471 Eh     change       -0.8148514E-03 Eh
 * total energy  :   -39.7659813 Eh     change       -0.1341080E-03 Eh
 * total energy  :   -39.7660949 Eh     change       -0.1136069E-03 Eh
 * total energy  :   -39.7661313 Eh     change       -0.3646536E-04 Eh
 * total energy  :   -39.7661829 Eh     change       -0.5153937E-04 Eh
 * total energy  :   -39.7662426 Eh     change       -0.5974929E-04 Eh
 * total energy  :   -39.7662981 Eh     change       -0.5548352E-04 Eh
 * total energy  :   -39.7663539 Eh     change       -0.5578117E-04 Eh
 * total energy  :   -39.7667344 Eh     change       -0.4571376E-04 Eh
 * total energy  :   -39.7667879 Eh     change       -0.5349853E-04 Eh
 * total energy  :   -39.7668310 Eh     change       -0.4308237E-04 Eh
 * total energy  :   -39.7668610 Eh     change       -0.3006233E-04 Eh
 * total energy  :   -39.7668719 Eh     change       -0.1086971E-04 Eh
 * total energy  :   -39.7668816 Eh     change       -0.9716903E-05 Eh
 * total energy  :   -39.7668870 Eh     change       -0.5389577E-05 Eh
 * total energy  :   -39.7668944 Eh     change       -0.7395898E-05 Eh
 * total energy  :   -39.7668991 Eh     change       -0.4668506E-05 Eh
   *** GEOMETRY OPTIMIZATION CONVERGED AFTER 26 ITERATIONS ***

 final structure:
================
34
 xtb: 6.7.1 (edcfbbe)
C            1.07669132915791        0.34066634463476        0.29824297054247
C            0.44683102220532        1.21193789826802       -0.78157232848316
C            1.00876440166393        0.94490980705555       -2.17971919292326
C            0.81530565277426       -0.48444199636609       -2.69420947206662
C           -0.63811828619280       -0.95609538239287       -2.76878337886457
C           -1.49702780939934       -0.16122775301760       -3.75874228069739
N           -1.02298541814855       -0.30944734982729       -5.11766538776259
C           -0.21807175258216        0.58804367475010       -5.75832351284879
C            0.06279327067311        0.08229361034164       -6.98663579431558
N           -0.57100289816725       -1.12193483009788       -7.07965836360592
C           -1.22711658746589       -1.34988028564547       -5.93356601471891
C           -2.03193743868455       -2.55845914956786       -5.66913331576948
C           -0.54563919131989       -2.00133187888927       -8.21734882477670
H            0.81882151509670       -0.70747568413338        0.16748917672785
H            0.72494444696691        0.65198812690295        1.27830891332428
H            2.15966697556112        0.43587227017433        0.27988645704782
H           -0.63689312511220        1.07709397454499       -0.77570779911392
H            0.63993882789387        2.25944959411869       -0.54243905305759
H            0.56306871583764        1.66075758393365       -2.87520774644277
H            2.08194744858847        1.14460220870233       -2.16384135075652
H            1.27896312889511       -0.56626087332051       -3.68188025694322
H            1.35201371874352       -1.16622868959481       -2.03491772576363
H           -0.65293536055679       -2.01220148694661       -3.04604888489620
H           -1.10016926815408       -0.86807484331282       -1.78659343413556
H           -2.53566014398477       -0.49501896418237       -3.70564870378752
H           -1.46560739560042        0.89969905781380       -3.51012599479002
H            0.09014291269731        1.50799520567293       -5.30686316463381
H            0.65560137952954        0.48605285359126       -7.78112488996384
H           -1.38750371777572       -3.43450165483901       -5.57816299274488
H           -2.60406531234339       -2.45983108125310       -4.75180665082773
H           -2.72036007583163       -2.74270357652744       -6.49390450533840
H           -0.18243406160968       -2.98815638494569       -7.92841909474356
H           -1.54497028627440       -2.10744082809749       -8.64247724854397
H            0.11567338291444       -1.58835951754071       -8.97520015432537

          :  Hamiltonian                  GFN2-xTB          :
         :: total energy             -39.766899071446 Eh    ::
         :: gradient norm              0.000708397809 Eh/a0 ::
         :: HOMO-LUMO gap              3.302244780869 eV    ::
         :: SCC energy               -40.372314442080 Eh    ::
         :: -> dispersion             -0.026731686530 Eh    ::
         :: repulsion energy           0.605415370634 Eh    ::

    * Orbital Energies and Occupations

         #    Occupation            Energy/Eh            Energy/eV
      -------------------------------------------------------------
         1        2.0000           -0.8864598             -24.1218
       ...           ...                  ...                  ...
        25        2.0000           -0.6283966             -17.0995
        26        2.0000           -0.6159713             -16.7614
        27        2.0000           -0.6062759             -16.4976
        28        2.0000           -0.5938966             -16.1608
        29        2.0000           -0.5876580             -15.9910
        30        2.0000           -0.5814788             -15.8228
        31        2.0000           -0.5690122             -15.4836
        32        2.0000           -0.5615849             -15.2815
        33        2.0000           -0.5549571             -15.1012
        34        2.0000           -0.5479208             -14.9097
        35        2.0000           -0.5263335             -14.3223
        36        2.0000           -0.5197694             -14.1436
        37        2.0000           -0.5145093             -14.0005 (HOMO)
        38                         -0.3931541             -10.6983 (LUMO)
        39                         -0.3598540              -9.7921
        40                         -0.1808299              -4.9206
        41                         -0.1263937              -3.4393
        42                         -0.0652386              -1.7752
        43                         -0.0601639              -1.6371
        44                         -0.0452051              -1.2301
        45                         -0.0355328              -0.9669
        46                         -0.0242677              -0.6604
        47                         -0.0183928              -0.5005
        48                         -0.0049826              -0.1356
       ...                                ...                  ...
        73                          0.4782749              13.0145
      -------------------------------------------------------------
                  HL-Gap            0.1213553 Eh            3.3022 eV

     #   Z          covCN         q      C6AA      α(0)
     1   6 C        3.751    -0.108    22.635     6.785
     2   6 C        3.799    -0.057    21.597     6.617
     3   6 C        3.800    -0.062    21.697     6.632
     4   6 C        3.800    -0.065    21.742     6.639
     5   6 C        3.801    -0.070    21.842     6.654
     6   6 C        3.741    -0.023    21.065     6.548
     7   7 N        2.868     0.045    20.460     6.718
     8   6 C        3.057    -0.008    28.164     8.703
     9   6 C        3.046    -0.012    28.266     8.720
    10   7 N        2.872     0.046    20.434     6.714
    11   6 C        3.106     0.105    25.557     8.283
    12   6 C        3.754    -0.135    23.163     6.863
    13   6 C        3.692    -0.080    22.220     6.745
    14   1 H        0.925     0.035     2.523     2.484
    15   1 H        0.925     0.045     2.383     2.414
    16   1 H        0.925     0.043     2.413     2.429
    17   1 H        0.924     0.028     2.611     2.527
    18   1 H        0.924     0.042     2.426     2.436
    19   1 H        0.924     0.020     2.736     2.587
    20   1 H        0.924     0.047     2.360     2.402
    21   1 H        0.924     0.024     2.677     2.559
    22   1 H        0.925     0.060     2.196     2.317
    23   1 H        0.924     0.046     2.372     2.408
    24   1 H        0.925     0.076     2.021     2.223
    25   1 H        0.924     0.075     2.032     2.229
    26   1 H        0.925     0.092     1.862     2.134
    27   1 H        0.927     0.103     1.757     2.073
    28   1 H        0.926     0.102     1.770     2.081
    29   1 H        0.924     0.101     1.777     2.085
    30   1 H        0.925     0.095     1.830     2.116
    31   1 H        0.925     0.098     1.804     2.100
    32   1 H        0.924     0.097     1.815     2.107
    33   1 H        0.924     0.096     1.821     2.110
    34   1 H        0.925     0.103     1.762     2.076

Wiberg/Mayer (AO) data.
largest (>0.10) Wiberg bond orders for each atom

     #   Z sym  total        # sym  WBO       # sym  WBO       # sym  WBO
 ---------------------------------------------------------------------------
     1   6 C    3.995 --     2 C    1.021    16 H    0.987    15 H    0.986
                            14 H    0.986
     2   6 C    3.997 --     1 C    1.021     3 C    1.007    18 H    0.977
                            17 H    0.976
     3   6 C    3.996 --     2 C    1.007     4 C    1.007    20 H    0.975
                            19 H    0.974
     4   6 C    3.993 --     5 C    1.008     3 C    1.007    21 H    0.976
                            22 H    0.971
     5   6 C    3.985 --     4 C    1.008     6 C    0.985    23 H    0.975
                            24 H    0.964
     6   6 C    3.938 --     5 C    0.985     7 N    0.968    26 H    0.962
                            25 H    0.961
     7   7 N    3.697 --    11 C    1.330     8 C    1.212     6 C    0.968
     8   6 C    3.950 --     9 C    1.605     7 N    1.212    27 H    0.960
     9   6 C    3.948 --     8 C    1.605    10 N    1.211    28 H    0.962
    10   7 N    3.695 --    11 C    1.320     9 C    1.211    13 C    0.993
    11   6 C    3.953 --     7 N    1.330    10 N    1.320    12 C    1.048
    12   6 C    3.978 --    11 C    1.048    30 H    0.970    31 H    0.955
                            29 H    0.946
    13   6 C    3.939 --    10 N    0.993    34 H    0.975    32 H    0.965
                            33 H    0.963
    14   1 H    0.999 --     1 C    0.986
    15   1 H    0.998 --     1 C    0.986
    16   1 H    0.998 --     1 C    0.987
    17   1 H    0.999 --     2 C    0.976
    18   1 H    0.998 --     2 C    0.977
    19   1 H    1.000 --     3 C    0.974
    20   1 H    0.998 --     3 C    0.975
    21   1 H    0.999 --     4 C    0.976
    22   1 H    0.996 --     4 C    0.971
    23   1 H    0.998 --     5 C    0.975
    24   1 H    0.993 --     5 C    0.964
    25   1 H    0.994 --     6 C    0.961
    26   1 H    0.991 --     6 C    0.962
    27   1 H    0.989 --     8 C    0.960
    28   1 H    0.989 --     9 C    0.962
    29   1 H    0.990 --    12 C    0.946
    30   1 H    0.991 --    12 C    0.970
    31   1 H    0.990 --    12 C    0.955
    32   1 H    0.990 --    13 C    0.965
    33   1 H    0.991 --    13 C    0.963
    34   1 H    0.989 --    13 C    0.975
 ---------------------------------------------------------------------------

molecular dipole:
                 x           y           z       tot (Debye)
 q only:       -1.600      -1.944     -10.842
   full:       -1.634      -1.922     -10.952      28.566

           -------------------------------------------------
          | TOTAL ENERGY              -39.766899071446 Eh   |
          | GRADIENT NORM               0.000708397809 Eh/α |
          | HOMO-LUMO GAP               3.302244780869 eV   |
           -------------------------------------------------

 * finished run on 2024/12/20 at 07:03:57.209
