   * xtb version 6.7.1 (edcfbbe) compiled by 'conda@3ef47c1a292c' on 2024-11-25

   ID    Z sym.   atoms
    1    7 N      1, 5, 9
    2    6 C      2-4, 6-8, 10-17, 19-24
    3    8 O      18
    4    1 H      25-44

          program call               : xtb C0911.xyz --opt --namespace C0911 --charge +1
          :  Hamiltonian                  GFN2-xTB          :
 * total energy  :   -65.4003879 Eh     change       -0.5416325E-09 Eh
 * total energy  :   -65.4404394 Eh     change       -0.4005150E-01 Eh
 * total energy  :   -65.4458356 Eh     change       -0.5396129E-02 Eh
 * total energy  :   -65.4473107 Eh     change       -0.1475121E-02 Eh
 * total energy  :   -65.4479390 Eh     change       -0.6283351E-03 Eh
 * total energy  :   -65.4486207 Eh     change       -0.6816995E-03 Eh
 * total energy  :   -65.4491977 Eh     change       -0.5769693E-03 Eh
 * total energy  :   -65.4497507 Eh     change       -0.5530315E-03 Eh
 * total energy  :   -65.4503330 Eh     change       -0.5822588E-03 Eh
 * total energy  :   -65.4508277 Eh     change       -0.4946892E-03 Eh
 * total energy  :   -65.4593790 Eh     change       -0.3030741E-04 Eh
 * total energy  :   -65.4594102 Eh     change       -0.3126608E-04 Eh
 * total energy  :   -65.4594546 Eh     change       -0.4440416E-04 Eh
 * total energy  :   -65.4594765 Eh     change       -0.2182560E-04 Eh
 * total energy  :   -65.4595038 Eh     change       -0.2737072E-04 Eh
 * total energy  :   -65.4595235 Eh     change       -0.1961514E-04 Eh
 * total energy  :   -65.4595337 Eh     change       -0.1021026E-04 Eh
 * total energy  :   -65.4595445 Eh     change       -0.1088194E-04 Eh
 * total energy  :   -65.4595495 Eh     change       -0.4987872E-05 Eh
   *** GEOMETRY OPTIMIZATION CONVERGED AFTER 51 ITERATIONS ***

 final structure:
================
44
 xtb: 6.7.1 (edcfbbe)
N            2.05716172774953       -0.85670180635351       -1.07391225918461
C            2.98667562378471       -0.47203060636858       -0.53405566470063
C            4.14166150628354       -0.08085822320517        0.23862234637544
C            3.97171363867381       -0.57508212166554        1.68882100684338
N            3.58942828874094       -1.96965741536573        1.70220257249750
C            2.34787006962664       -2.46751125950475        1.81616918095092
C            1.14419468067560       -1.67654280929924        2.16538531592330
C            1.09755620517770       -1.36351455342052        3.66896126899515
N            2.37275064292438       -3.79077432326635        1.61908657035492
C            3.67294164102521       -4.17170681324510        1.33741979083427
C            4.45228427716076       -3.00560268818066        1.39750621521982
C            5.82240029486263       -3.03665008558070        1.17321012967795
C            6.38131012816520       -4.26328552797367        0.87745129482210
C            5.60523560502664       -5.42145088014063        0.79955902171271
C            4.24406827189281       -5.39988786209227        1.02677950665704
C            1.22915288524543       -4.66944040405439        1.62677499301680
C            0.42383581133274       -4.64455895581542        2.95146758642885
O           -0.73633424841220       -4.31756609209256        2.90986860819591
C            1.11760493970462       -5.00927851274347        4.19359304664193
C            2.40680044081086       -5.54583277678521        4.24242989620155
C            2.98016182891138       -5.85698135222392        5.46046877184622
C            2.28403036402099       -5.64154302990613        6.64088251821028
C            1.00032460404158       -5.11769854567615        6.60427988689383
C            0.42034269626178       -4.80623553350815        5.39174623056230
H            5.02811093862883       -0.52088342354385       -0.22573823421725
H            4.24440167296693        1.00587039558311        0.22400310808756
H            4.91238593580690       -0.46427808955353        2.23348576636100
H            3.20381019830270        0.01060736702684        2.19462205528039
H            1.13873968697082       -0.74697500926703        1.59343674704585
H            0.24728518475477       -2.23178038988967        1.89297880367850
H            1.96359130386453       -0.78894089576437        3.98935554425458
H            0.20261458744838       -0.78693983101025        3.88250453829732
H            1.05953473969476       -2.27892731402325        4.25384693800701
H            6.43100183266670       -2.14893902748923        1.22992608724685
H            7.44195191214651       -4.33034694484335        0.69611504052699
H            6.08328434338378       -6.35632540915987        0.55461716945324
H            3.66099330839412       -6.30397008328677        0.95355026398683
H            0.53713756043582       -4.38146065326728        0.82776217228654
H            1.56735021546001       -5.68892232697297        1.43699471515241
H            2.96360538453851       -5.74687975044481        3.34129086970522
H            3.97358808666356       -6.27791506203456        5.49036812532094
H            2.73987796078993       -5.89017094796736        7.58659939923084
H            0.45307490211585       -4.95779966098538        7.51995979587071
H           -0.57984167868717       -4.40249076464107        5.34043325946221

          :  Hamiltonian                  GFN2-xTB          :
         :: total energy             -65.459549530630 Eh    ::
         :: gradient norm              0.000652366198 Eh/a0 ::
         :: HOMO-LUMO gap              2.931561119771 eV    ::
         :: SCC energy               -66.567595338185 Eh    ::
         :: -> dispersion             -0.051400815356 Eh    ::
         :: repulsion energy           1.108045807556 Eh    ::

    * Orbital Energies and Occupations

         #    Occupation            Energy/Eh            Energy/eV
      -------------------------------------------------------------
         1        2.0000           -0.8769569             -23.8632
       ...           ...                  ...                  ...
        48        2.0000           -0.5899680             -16.0538
        49        2.0000           -0.5857149             -15.9381
        50        2.0000           -0.5833523             -15.8738
        51        2.0000           -0.5791268             -15.7588
        52        2.0000           -0.5758576             -15.6699
        53        2.0000           -0.5534366             -15.0598
        54        2.0000           -0.5503436             -14.9756
        55        2.0000           -0.5488597             -14.9352
        56        2.0000           -0.5468473             -14.8805
        57        2.0000           -0.5378143             -14.6347
        58        2.0000           -0.5284138             -14.3789
        59        2.0000           -0.5251401             -14.2898
        60        2.0000           -0.5197235             -14.1424 (HOMO)
        61                         -0.4119906             -11.2108 (LUMO)
        62                         -0.4055781             -11.0363
        63                         -0.3653114              -9.9406
        64                         -0.3582161              -9.7476
        65                         -0.3423533              -9.3159
        66                         -0.3350078              -9.1160
        67                         -0.3281294              -8.9289
        68                         -0.3145650              -8.5597
        69                         -0.2401457              -6.5347
        70                         -0.2069947              -5.6326
        71                         -0.1801261              -4.9015
       ...                                ...                  ...
       116                          1.0199347              27.7538
      -------------------------------------------------------------
                  HL-Gap            0.1077329 Eh            2.9316 eV

     #   Z          covCN         q      C6AA      α(0)
     1   7 N        0.911    -0.211    25.606     7.319
     2   6 C        1.900     0.113    28.329     8.596
     3   6 C        3.804    -0.065    21.737     6.638
     4   6 C        3.749    -0.006    20.743     6.496
     5   7 N        2.832    -0.000    21.265     6.849
     6   6 C        3.069     0.122    25.246     8.239
     7   6 C        3.803    -0.075    21.939     6.668
     8   6 C        3.753    -0.110    22.665     6.789
     9   7 N        2.830     0.016    20.978     6.803
    10   6 C        3.092     0.040    26.997     8.516
    11   6 C        3.094     0.039    27.013     8.518
    12   6 C        2.909    -0.036    28.888     8.813
    13   6 C        2.926    -0.019    28.489     8.753
    14   6 C        2.925    -0.019    28.490     8.753
    15   6 C        2.910    -0.033    28.815     8.802
    16   6 C        3.739    -0.043    21.431     6.606
    17   6 C        2.819     0.224    23.291     7.907
    18   8 O        0.858    -0.328    20.301     6.041
    19   6 C        2.969    -0.020    28.510     8.758
    20   6 C        2.919    -0.032    28.790     8.799
    21   6 C        2.918    -0.024    28.591     8.768
    22   6 C        2.920    -0.010    28.276     8.720
    23   6 C        2.916    -0.019    28.488     8.752
    24   6 C        2.927    -0.014    28.370     8.735
    25   1 H        0.924     0.092     1.864     2.135
    26   1 H        0.924     0.103     1.757     2.073
    27   1 H        0.924     0.087     1.913     2.163
    28   1 H        0.925     0.086     1.918     2.166
    29   1 H        0.924     0.085     1.924     2.169
    30   1 H        0.925     0.098     1.802     2.099
    31   1 H        0.925     0.048     2.339     2.392
    32   1 H        0.925     0.082     1.962     2.191
    33   1 H        0.925     0.053     2.277     2.360
    34   1 H        0.926     0.065     2.145     2.290
    35   1 H        0.926     0.079     1.992     2.207
    36   1 H        0.926     0.080     1.983     2.202
    37   1 H        0.926     0.067     2.116     2.275
    38   1 H        0.924     0.101     1.773     2.082
    39   1 H        0.924     0.097     1.813     2.106
    40   1 H        0.926     0.035     2.523     2.484
    41   1 H        0.926     0.052     2.292     2.368
    42   1 H        0.926     0.063     2.162     2.300
    43   1 H        0.926     0.064     2.152     2.294
    44   1 H        0.926     0.075     2.031     2.229

Wiberg/Mayer (AO) data.
largest (>0.10) Wiberg bond orders for each atom

     #   Z sym  total        # sym  WBO       # sym  WBO       # sym  WBO
 ---------------------------------------------------------------------------
     1   7 N    3.017 --     2 C    2.863
     2   6 C    3.949 --     1 N    2.863     3 C    1.050
     3   6 C    3.989 --     2 C    1.050     4 C    0.967    25 H    0.943
                            26 H    0.940
     4   6 C    3.952 --     5 N    0.979     3 C    0.967    28 H    0.965
                            27 H    0.962
     5   7 N    3.646 --     6 C    1.316    11 C    1.115     4 C    0.979
     6   6 C    3.949 --     9 N    1.337     5 N    1.316     7 C    1.030
     7   6 C    3.976 --     6 C    1.030     8 C    0.979    30 H    0.957
                            29 H    0.951
     8   6 C    3.979 --    31 H    0.985    33 H    0.983    32 H    0.979
                             7 C    0.979
     9   7 N    3.664 --     6 C    1.337    10 C    1.113    16 C    0.979
    10   6 C    3.953 --    15 C    1.343    11 C    1.279     9 N    1.113
    11   6 C    3.953 --    12 C    1.346    10 C    1.279     5 N    1.115
    12   6 C    3.985 --    13 C    1.487    11 C    1.346    34 H    0.964
                            15 C    0.117
    13   6 C    3.983 --    12 C    1.487    14 C    1.384    35 H    0.966
    14   6 C    3.983 --    15 C    1.488    13 C    1.384    36 H    0.966
    15   6 C    3.984 --    14 C    1.488    10 C    1.343    37 H    0.960
                            12 C    0.117
    16   6 C    3.940 --     9 N    0.979    38 H    0.953    39 H    0.950
                            17 C    0.929
    17   6 C    3.931 --    18 O    1.838    19 C    1.062    16 C    0.929
    18   8 O    2.104 --    17 C    1.838
    19   6 C    3.986 --    20 C    1.365    24 C    1.355    17 C    1.062
    20   6 C    3.992 --    21 C    1.465    19 C    1.365    40 H    0.964
                            23 C    0.103
    21   6 C    3.991 --    20 C    1.465    22 C    1.423    41 H    0.969
                            24 C    0.101
    22   6 C    3.986 --    23 C    1.427    21 C    1.423    42 H    0.969
    23   6 C    3.989 --    24 C    1.464    22 C    1.427    43 H    0.967
                            20 C    0.103
    24   6 C    3.985 --    23 C    1.464    19 C    1.355    44 H    0.963
                            21 C    0.101
    25   1 H    0.992 --     3 C    0.943
    26   1 H    0.988 --     3 C    0.940
    27   1 H    0.992 --     4 C    0.962
    28   1 H    0.992 --     4 C    0.965
    29   1 H    0.991 --     7 C    0.951
    30   1 H    0.990 --     7 C    0.957
    31   1 H    0.998 --     8 C    0.985
    32   1 H    0.992 --     8 C    0.979
    33   1 H    0.997 --     8 C    0.983
    34   1 H    0.995 --    12 C    0.964
    35   1 H    0.993 --    13 C    0.966
    36   1 H    0.993 --    14 C    0.966
    37   1 H    0.995 --    15 C    0.960
    38   1 H    0.989 --    16 C    0.953
    39   1 H    0.990 --    16 C    0.950
    40   1 H    0.999 --    20 C    0.964
    41   1 H    0.997 --    21 C    0.969
    42   1 H    0.996 --    22 C    0.969
    43   1 H    0.995 --    23 C    0.967
    44   1 H    0.994 --    24 C    0.963
 ---------------------------------------------------------------------------

molecular dipole:
                 x           y           z       tot (Debye)
 q only:        7.242      -5.634       4.742
   full:        7.752      -5.533       4.848      27.163

           -------------------------------------------------
          | TOTAL ENERGY              -65.459549530630 Eh   |
          | GRADIENT NORM               0.000652366198 Eh/α |
          | HOMO-LUMO GAP               2.931561119771 eV   |
           -------------------------------------------------

 * finished run on 2024/12/20 at 07:03:40.575
