   * xtb version 6.7.1 (edcfbbe) compiled by 'conda@3ef47c1a292c' on 2024-11-25

   ID    Z sym.   atoms
    1    6 C      1, 3-8, 10-18
    2    8 O      2
    3    7 N      9
    4    1 H      19-38

          program call               : xtb C0910.xyz --opt --namespace C0910 --charge +1
          :  Hamiltonian                  GFN2-xTB          :
 * total energy  :   -49.6421036 Eh     change        0.6081606E-09 Eh
 * total energy  :   -49.8876486 Eh     change       -0.2455451E+00 Eh
 * total energy  :   -50.1843980 Eh     change       -0.2967493E+00 Eh
 * total energy  :   -50.4368396 Eh     change       -0.2524416E+00 Eh
 * total energy  :   -50.5560021 Eh     change       -0.1191625E+00 Eh
 * total energy  :   -50.6565910 Eh     change       -0.1005889E+00 Eh
 * total energy  :   -50.7286618 Eh     change       -0.7207077E-01 Eh
 * total energy  :   -50.7771262 Eh     change       -0.4846437E-01 Eh
 * total energy  :   -50.8102272 Eh     change       -0.3310100E-01 Eh
 * total energy  :   -50.8315620 Eh     change       -0.2133486E-01 Eh
 * total energy  :   -50.8860987 Eh     change       -0.4374896E-04 Eh
 * total energy  :   -50.8861369 Eh     change       -0.3816616E-04 Eh
 * total energy  :   -50.8861637 Eh     change       -0.2677124E-04 Eh
 * total energy  :   -50.8861908 Eh     change       -0.2707497E-04 Eh
 * total energy  :   -50.8862022 Eh     change       -0.1146747E-04 Eh
 * total energy  :   -50.8862120 Eh     change       -0.9752198E-05 Eh
 * total energy  :   -50.8862250 Eh     change       -0.1306016E-04 Eh
 * total energy  :   -50.8862326 Eh     change       -0.7609497E-05 Eh
 * total energy  :   -50.8862373 Eh     change       -0.4615942E-05 Eh
   *** GEOMETRY OPTIMIZATION CONVERGED AFTER 45 ITERATIONS ***

 final structure:
================
38
 xtb: 6.7.1 (edcfbbe)
C            1.79738349266682        0.38869897057987       -0.09350230435765
O            1.98059957138985        1.05972689759917       -1.32465768759136
C            1.40484373396705        2.32077440360175       -1.44706419359983
C           -0.15981214854131        3.35239618809279       -2.55657515440229
C            0.18615348370697        4.77848803451218       -2.62144348227988
C            1.39243947069742        5.15399633255584       -2.10565529400242
C            1.91383014868755        4.65292644264678       -0.81922683244904
C            1.98654770346859        3.35981219591367       -0.54405446301210
N            2.43885134031603        5.17508651293375       -3.14226294667582
C            2.41333775738302        3.66319031661295       -3.51241732207306
C            1.28358877817522        2.74457004414247       -2.94822018357067
C           -0.15864832830488        2.46981189567237       -1.29995546273728
C           -0.89045242202668        1.19468754339962       -1.51680945909024
C           -0.69182210275496        0.38142500927006       -2.56020523916765
C            0.24113530209037        0.56507858250942       -3.64865964844833
C            1.10938723110582        1.56542254867623       -3.84381933865160
C            2.14594129922923        6.01060453714642       -4.32126198793488
C            3.76581349654397        5.57049558617294       -2.63859753979958
H            2.09639541266834       -0.64051467305916       -0.27657434370164
H            0.75055306355633        0.41240203913945        0.21952574150034
H            2.42598836358057        0.80687444808050        0.69864753382770
H           -0.97337927572861        3.11286742282290       -3.23920234173791
H           -0.16639113801049        5.25723670780612       -3.52477332237434
H            2.25805970158182        5.39809268986955       -0.11519484826608
H            2.37553477425581        3.00656669584804        0.39785859459125
H            2.38492154890617        3.61605600029701       -4.60124921269492
H            3.35114566283097        3.22866588921470       -3.16628684157200
H           -0.47651348140296        2.96892672682169       -0.38616113347890
H           -1.61770205072072        0.92653878977723       -0.76478690141567
H           -1.27620169759886       -0.52592340778305       -2.61271427117706
H            0.23097261503543       -0.22361062562939       -4.38743835000272
H            1.74242494352333        1.52855731341972       -4.71739949417683
H            1.98073593055138        7.03857487070812       -4.00113214672765
H            2.99153622264298        5.98520964614850       -5.00688666141337
H            1.26443911535428        5.66180317601566       -4.85150465220053
H            4.03774220776182        4.97510562831984       -1.77002803665828
H            4.51497412309341        5.42989224564598       -3.41589630536753
H            3.74416615032607        6.62111637449572       -2.35184446710909

          :  Hamiltonian                  GFN2-xTB          :
         :: total energy             -50.886237255968 Eh    ::
         :: gradient norm              0.000661062456 Eh/a0 ::
         :: HOMO-LUMO gap              1.620695896616 eV    ::
         :: SCC energy               -51.633755683542 Eh    ::
         :: -> dispersion             -0.043873326997 Eh    ::
         :: repulsion energy           0.747518427574 Eh    ::

    * Orbital Energies and Occupations

         #    Occupation            Energy/Eh            Energy/eV
      -------------------------------------------------------------
         1        2.0000           -0.8523272             -23.1930
       ...           ...                  ...                  ...
        35        2.0000           -0.6017397             -16.3742
        36        2.0000           -0.5940636             -16.1653
        37        2.0000           -0.5836309             -15.8814
        38        2.0000           -0.5809181             -15.8076
        39        2.0000           -0.5670388             -15.4299
        40        2.0000           -0.5615340             -15.2801
        41        2.0000           -0.5516343             -15.0107
        42        2.0000           -0.5482852             -14.9196
        43        2.0000           -0.5423308             -14.7576
        44        2.0000           -0.5374928             -14.6259
        45        2.0000           -0.5206550             -14.1677
        46        2.0000           -0.5083202             -13.8321
        47        2.0000           -0.4861875             -13.2298 (HOMO)
        48                         -0.4266280             -11.6091 (LUMO)
        49                         -0.3713437             -10.1048
        50                         -0.3579679              -9.7408
        51                         -0.2642699              -7.1911
        52                         -0.2554718              -6.9517
        53                         -0.1758600              -4.7854
        54                         -0.1659028              -4.5144
        55                         -0.1386541              -3.7730
        56                         -0.1180905              -3.2134
        57                         -0.1062527              -2.8913
        58                         -0.0853847              -2.3234
       ...                                ...                  ...
        92                          0.5646503              15.3649
      -------------------------------------------------------------
                  HL-Gap            0.0595595 Eh            1.6207 eV

     #   Z          covCN         q      C6AA      α(0)
     1   6 C        3.641     0.031    20.395     6.494
     2   8 O        1.702    -0.303    19.047     5.892
     3   6 C        3.966     0.151    18.098     6.044
     4   6 C        4.026    -0.003    20.551     6.440
     5   6 C        2.940    -0.046    29.150     8.855
     6   6 C        2.959     0.003    27.947     8.671
     7   6 C        2.898    -0.056    29.383     8.888
     8   6 C        2.903    -0.047    29.161     8.854
     9   7 N        3.630     0.121    19.168     6.503
    10   6 C        3.789    -0.043    21.348     6.580
    11   6 C        4.057     0.013    20.270     6.395
    12   6 C        3.992    -0.023    20.905     6.496
    13   6 C        2.893    -0.031    28.780     8.796
    14   6 C        2.893    -0.028    28.699     8.783
    15   6 C        2.893    -0.016    28.416     8.740
    16   6 C        2.896    -0.042    29.052     8.837
    17   6 C        3.711    -0.089    22.337     6.754
    18   6 C        3.713    -0.089    22.333     6.752
    19   1 H        0.925     0.077     2.007     2.215
    20   1 H        0.924     0.045     2.379     2.412
    21   1 H        0.924     0.044     2.402     2.424
    22   1 H        0.925     0.072     2.065     2.247
    23   1 H        0.925     0.060     2.195     2.317
    24   1 H        0.925     0.070     2.083     2.257
    25   1 H        0.926     0.072     2.068     2.249
    26   1 H        0.924     0.089     1.889     2.149
    27   1 H        0.925     0.097     1.811     2.105
    28   1 H        0.925     0.053     2.281     2.362
    29   1 H        0.926     0.056     2.248     2.345
    30   1 H        0.926     0.061     2.186     2.312
    31   1 H        0.926     0.065     2.141     2.288
    32   1 H        0.926     0.048     2.346     2.395
    33   1 H        0.925     0.101     1.776     2.084
    34   1 H        0.925     0.095     1.831     2.116
    35   1 H        0.925     0.097     1.809     2.103
    36   1 H        0.925     0.099     1.792     2.093
    37   1 H        0.925     0.093     1.849     2.126
    38   1 H        0.925     0.101     1.780     2.086

Wiberg/Mayer (AO) data.
largest (>0.10) Wiberg bond orders for each atom

     #   Z sym  total        # sym  WBO       # sym  WBO       # sym  WBO
 ---------------------------------------------------------------------------
     1   6 C    3.937 --    19 H    0.977    21 H    0.975     2 O    0.974
                            20 H    0.972
     2   8 O    2.114 --     3 C    1.005     1 C    0.974
     3   6 C    3.952 --     2 O    1.005     8 C    1.002    11 C    0.921
                            12 C    0.881
     4   6 C    3.977 --     5 C    1.078    22 H    0.964    12 C    0.946
                            11 C    0.846
     5   6 C    3.964 --     6 C    1.737     4 C    1.078    23 H    0.953
     6   6 C    3.888 --     5 C    1.737     7 C    1.022     9 N    0.914
     7   6 C    3.981 --     8 C    1.891     6 C    1.022    24 H    0.946
     8   6 C    3.986 --     7 C    1.891     3 C    1.002    25 H    0.955
     9   7 N    3.802 --    18 C    0.964    17 C    0.962     6 C    0.914
                            10 C    0.886
    10   6 C    3.926 --    11 C    0.996    27 H    0.966    26 H    0.966
                             9 N    0.886
    11   6 C    3.970 --    16 C    1.021    10 C    0.996     3 C    0.921
                             4 C    0.846
    12   6 C    3.985 --    13 C    1.035    28 H    0.967     4 C    0.946
                             3 C    0.881
    13   6 C    3.987 --    14 C    1.800    12 C    1.035    29 H    0.965
                            16 C    0.116
    14   6 C    3.985 --    13 C    1.800    15 C    1.134    30 H    0.965
    15   6 C    3.988 --    16 C    1.790    14 C    1.134    31 H    0.964
    16   6 C    3.981 --    15 C    1.790    11 C    1.021    32 H    0.962
                            13 C    0.116
    17   6 C    3.931 --    34 H    0.974    33 H    0.973    35 H    0.969
                             9 N    0.962
    18   6 C    3.931 --    37 H    0.974    38 H    0.973    36 H    0.968
                             9 N    0.964
    19   1 H    0.993 --     1 C    0.977
    20   1 H    0.998 --     1 C    0.972
    21   1 H    0.998 --     1 C    0.975
    22   1 H    0.994 --     4 C    0.964
    23   1 H    0.996 --     5 C    0.953
    24   1 H    0.994 --     7 C    0.946
    25   1 H    0.994 --     8 C    0.955
    26   1 H    0.992 --    10 C    0.966
    27   1 H    0.991 --    10 C    0.966
    28   1 H    0.997 --    12 C    0.967
    29   1 H    0.996 --    13 C    0.965
    30   1 H    0.996 --    14 C    0.965
    31   1 H    0.995 --    15 C    0.964
    32   1 H    0.997 --    16 C    0.962
    33   1 H    0.989 --    17 C    0.973
    34   1 H    0.991 --    17 C    0.974
    35   1 H    0.991 --    17 C    0.969
    36   1 H    0.990 --    18 C    0.968
    37   1 H    0.991 --    18 C    0.974
    38   1 H    0.989 --    18 C    0.973
 ---------------------------------------------------------------------------

molecular dipole:
                 x           y           z       tot (Debye)
 q only:        3.680       7.968      -5.381
   full:        3.728       8.149      -5.313      26.479

           -------------------------------------------------
          | TOTAL ENERGY              -50.886237255968 Eh   |
          | GRADIENT NORM               0.000661062456 Eh/α |
          | HOMO-LUMO GAP               1.620695896616 eV   |
           -------------------------------------------------

 * finished run on 2024/12/20 at 07:03:38.275
