   * xtb version 6.7.1 (edcfbbe) compiled by 'conda@3ef47c1a292c' on 2024-11-25

   ID    Z sym.   atoms
    1    6 C      1-6, 8-10, 12-14, 16-20, 22-25, 28, 29, 31-40, 43-46
    2    7 N      7, 15, 21, 30
    3   17 Cl     11, 41, 42, 49
    4    8 O      26, 27, 47, 48
    5    1 H      50-96

          program call               : xtb C0913.xyz --opt --namespace C0913 --charge +1
          :  Hamiltonian                  GFN2-xTB          :
 * total energy  :  -149.1071852 Eh     change       -0.4926392E-08 Eh
 * total energy  :  -149.1274492 Eh     change       -0.2026401E-01 Eh
 * total energy  :  -149.1365168 Eh     change       -0.9067569E-02 Eh
 * total energy  :  -149.1392402 Eh     change       -0.2723402E-02 Eh
 * total energy  :  -149.1416896 Eh     change       -0.2449401E-02 Eh
 * total energy  :  -149.1433127 Eh     change       -0.1623184E-02 Eh
 * total energy  :  -149.1447093 Eh     change       -0.1396546E-02 Eh
 * total energy  :  -149.1460893 Eh     change       -0.1380052E-02 Eh
 * total energy  :  -149.1474471 Eh     change       -0.1357756E-02 Eh
 * total energy  :  -149.1487158 Eh     change       -0.1268718E-02 Eh
 * total energy  :  -149.1703475 Eh     change       -0.1718066E-04 Eh
 * total energy  :  -149.1703680 Eh     change       -0.2049143E-04 Eh
 * total energy  :  -149.1703759 Eh     change       -0.7907457E-05 Eh
 * total energy  :  -149.1703843 Eh     change       -0.8328188E-05 Eh
 * total energy  :  -149.1703900 Eh     change       -0.5766005E-05 Eh
 * total energy  :  -149.1703985 Eh     change       -0.8440968E-05 Eh
 * total energy  :  -149.1704037 Eh     change       -0.5199185E-05 Eh
 * total energy  :  -149.1704112 Eh     change       -0.7572804E-05 Eh
 * total energy  :  -149.1704155 Eh     change       -0.4227478E-05 Eh
   *** GEOMETRY OPTIMIZATION CONVERGED AFTER 100 ITERATIONS ***

 final structure:
================
96
 xtb: 6.7.1 (edcfbbe)
C            0.90485508694699        0.25411948416985       -1.23108591983848
C            0.23221377252989       -1.03111079300623       -1.69817287039757
C            0.79074703009018       -2.28487182854112       -1.02139697950763
C            0.49513923442088       -2.38730450805872        0.47821370223415
C           -0.97632223176930       -2.68677459358141        0.78515082948943
C           -1.33791717641544       -4.15792351243074        0.62023350918397
N           -0.90146184914230       -5.07960979167300        1.66079312077306
C           -0.25560412963479       -4.84267220572649        2.85783841386483
C            0.28743170068932       -3.71584072976358        3.46246943665448
C            0.89094919723490       -3.85371776812224        4.70355921314965
Cl           1.56734934860748       -2.45946315702800        5.45014246768471
C            0.96166124280967       -5.09154353858145        5.35400444361646
C            0.42632353448433       -6.22305582901036        4.76246786247075
C           -0.17349626824855       -6.08449232312724        3.52177840718195
N           -0.77513237702605       -7.02532126603259        2.72311568793605
C           -1.21015108506536       -6.42085816052827        1.58275446111024
C           -1.84792920756359       -6.97102988883824        0.46905781828808
C           -2.24937424365798       -8.26390976645022        0.15158365524817
C           -2.85377891164608       -8.48265684084323       -1.07851802271755
C           -3.36486228385886       -9.60866292068477       -1.72259039699018
N           -3.36023067492589      -10.93158509828475       -1.37476686474096
C           -2.84819742544922      -11.58536046720585       -0.19709353086597
C           -3.97663081959649      -11.95273121737879        0.77578731420563
C           -3.45642048227102      -12.82717799743937        1.91417321914023
C           -2.48142572727606      -12.05467435684694        2.77328295394947
O           -2.43701979528543      -10.84581715908152        2.78474315238163
O           -1.68018930332604      -12.82177023660166        3.47733848599146
C           -3.99440291129565      -11.65676373801070       -2.36048130891159
C           -4.39347047994375      -10.74943825362466       -3.35294920467796
N           -3.98237671470460       -9.50286769060498       -2.94692560111116
C           -4.21881038682932       -8.33012860212070       -3.75836256544758
C           -5.62790016393789       -7.75887681906457       -3.55981233966184
C           -5.81084015128295       -6.97325506059583       -2.26049052672002
C           -5.10172296683170       -5.61632010035371       -2.22598675881219
C           -5.57463480200239       -4.60956623813243       -3.27716046114478
C           -7.05315954785346       -4.26039625220195       -3.16119207981051
C           -5.06433349970453      -11.17483843580280       -4.48788656463508
C           -5.31972020412487      -12.53288539683546       -4.61058523032094
C           -4.91009226960989      -13.44161912754065       -3.62329224891618
C           -4.24205291226347      -13.01340253138130       -2.48505715479200
Cl          -5.24017469323408      -15.11710023921352       -3.81636254379857
Cl          -6.15298424801288      -13.10391605663227       -6.00087290173254
C           -0.90776535241578       -8.41188036185421        3.08022688948050
C            0.18089244444233       -9.28943052509229        2.44481488378720
C            1.40129350140118       -9.44616101700448        3.34887205172196
C            1.06662097798139      -10.25372655368335        4.58092678776610
O            0.29713304249117      -11.18359497516159        4.61385602083995
O            1.72343715641938       -9.82643241630108        5.65007522402456
Cl           1.71974078717835       -5.22039921232920        6.89073109830383
H            0.69085504135955        0.45750105113204       -0.18499890180235
H            0.54521110564253        1.09727267003083       -1.81514825023125
H            1.98299381258172        0.18722084984162       -1.35647599271410
H           -0.84421088033935       -0.95663467862964       -1.53009047130069
H            0.38404572616645       -1.13346553755716       -2.77476484434265
H            0.39491763427605       -3.16688777468504       -1.53167461106765
H            1.87388490150678       -2.29226795689759       -1.15747070139669
H            1.12469084797541       -3.17340198644758        0.89988933217504
H            0.77962327908556       -1.44846728007728        0.95264056553675
H           -1.26357106841322       -2.34477188005008        1.77794796400678
H           -1.59806504570360       -2.13562462750038        0.07787313974070
H           -2.42961844865077       -4.24039640832851        0.55758791512448
H           -0.91046446684249       -4.50303123055771       -0.32757263763294
H            0.27681493863362       -2.73954342858296        3.01908281769511
H            0.48983488582459       -7.16816649128019        5.27402988564255
H           -2.06161903201190       -6.25156622470261       -0.30630054401615
H           -2.11483625997501       -9.07050449368840        0.84848710971351
H           -2.97099747775341       -7.58432177626525       -1.66584461379856
H           -2.33598557280078      -12.49564193537056       -0.52497709665296
H           -2.11862273531712      -10.94258410780433        0.28907580879830
H           -4.40076899567510      -11.03845872193771        1.19381418668453
H           -4.76218967364840      -12.48235725305983        0.23679909492509
H           -4.28411459487811      -13.13973182773457        2.55388722410452
H           -2.96588079568135      -13.72855423477707        1.54623877010548
H           -1.03155411303198      -12.29737847527211        4.00034521342475
H           -3.46124931439239       -7.57483846492456       -3.55332061806125
H           -4.09708020038964       -8.64057232398136       -4.79918291995490
H           -5.85846280250345       -7.11603563915974       -4.40854156015451
H           -6.33737545309159       -8.58869364592087       -3.57437939569195
H           -6.87755005657855       -6.80887228037211       -2.10916975092088
H           -5.45701755228448       -7.57668625175934       -1.42100679021522
H           -5.26213735813595       -5.18430351750970       -1.23527363432380
H           -4.02384953290578       -5.75216576756706       -2.34771728296648
H           -4.98704554121279       -3.69675938049172       -3.15331585659782
H           -5.36705814985233       -4.98871418585861       -4.27939372048564
H           -7.29060395301446       -3.93525961443429       -2.15074203646009
H           -7.30006335559830       -3.45326477545325       -3.84596149563708
H           -7.68132961356803       -5.11223606166088       -3.40763722962480
H           -5.38906664421989      -10.49804837668567       -5.25947326628908
H           -3.93695202610712      -13.73295179471355       -1.74495890530006
H           -0.85502398358030       -8.48489114398419        4.16662510813809
H           -1.89720657711038       -8.76125570270256        2.79203953801855
H           -0.23858554644141      -10.27806182509031        2.26488445934963
H            0.48123347045874       -8.86198091343306        1.48757442414957
H            2.18269440444508       -9.99665981243597        2.81826029090600
H            1.81668185950383       -8.48547442703049        3.65189430090272
H            1.55049215259347      -10.37725426036071        6.43176694350513

          :  Hamiltonian                  GFN2-xTB          :
         :: total energy            -149.170415478196 Eh    ::
         :: gradient norm              0.000812910830 Eh/a0 ::
         :: HOMO-LUMO gap              1.660430280299 eV    ::
         :: SCC energy              -151.051712231920 Eh    ::
         :: -> dispersion             -0.117900568600 Eh    ::
         :: repulsion energy           1.881296753724 Eh    ::

    * Orbital Energies and Occupations

         #    Occupation            Energy/Eh            Energy/eV
      -------------------------------------------------------------
         1        2.0000           -1.1341858             -30.8628
       ...           ...                  ...                  ...
       121        2.0000           -0.5032621             -13.6945
       122        2.0000           -0.5017586             -13.6535
       123        2.0000           -0.5011265             -13.6363
       124        2.0000           -0.5000922             -13.6082
       125        2.0000           -0.4979600             -13.5502
       126        2.0000           -0.4979056             -13.5487
       127        2.0000           -0.4974638             -13.5367
       128        2.0000           -0.4937740             -13.4363
       129        2.0000           -0.4900565             -13.3351
       130        2.0000           -0.4875632             -13.2673
       131        2.0000           -0.4862060             -13.2303
       132        2.0000           -0.4776003             -12.9962
       133        2.0000           -0.4456338             -12.1263 (HOMO)
       134                         -0.3846141             -10.4659 (LUMO)
       135                         -0.3409745              -9.2784
       136                         -0.3345321              -9.1031
       137                         -0.3270787              -8.9003
       138                         -0.3259284              -8.8690
       139                         -0.3251387              -8.8475
       140                         -0.3161428              -8.6027
       141                         -0.2827469              -7.6939
       142                         -0.2272608              -6.1841
       143                         -0.2268460              -6.1728
       144                         -0.2263549              -6.1594
       ...                                ...                  ...
       263                          0.5782959              15.7362
      -------------------------------------------------------------
                  HL-Gap            0.0610197 Eh            1.6604 eV

     #   Z          covCN         q      C6AA      α(0)
     1   6 C        3.751    -0.106    22.592     6.778
     2   6 C        3.799    -0.055    21.567     6.612
     3   6 C        3.801    -0.061    21.681     6.629
     4   6 C        3.800    -0.066    21.766     6.642
     5   6 C        3.801    -0.070    21.839     6.654
     6   6 C        3.739    -0.009    20.817     6.510
     7   7 N        2.816    -0.027    21.760     6.928
     8   6 C        3.042     0.044    26.970     8.518
     9   6 C        2.957    -0.063    29.555     8.917
    10   6 C        2.918     0.084    26.120     8.381
    11  17 Cl       1.000    -0.115   102.755    15.508
    12   6 C        2.921     0.086    26.087     8.376
    13   6 C        2.952    -0.062    29.545     8.915
    14   6 C        3.079     0.035    27.125     8.538
    15   7 N        2.811    -0.012    21.493     6.886
    16   6 C        3.024     0.103    25.689     8.314
    17   6 C        2.911    -0.101    30.538     9.062
    18   6 C        2.890    -0.023    28.566     8.763
    19   6 C        2.912    -0.099    30.481     9.053
    20   6 C        3.008     0.110    25.566     8.294
    21   7 N        2.817    -0.019    21.620     6.906
    22   6 C        3.744    -0.015    20.912     6.524
    23   6 C        3.805    -0.066    21.767     6.642
    24   6 C        3.804    -0.098    22.367     6.733
    25   6 C        2.690     0.363    20.834     7.470
    26   8 O        0.856    -0.454    22.793     6.401
    27   8 O        1.658    -0.367    20.229     6.072
    28   6 C        3.072     0.036    27.116     8.538
    29   6 C        3.063     0.039    27.067     8.531
    30   7 N        2.825    -0.021    21.656     6.912
    31   6 C        3.741    -0.014    20.898     6.522
    32   6 C        3.801    -0.069    21.829     6.652
    33   6 C        3.800    -0.065    21.742     6.639
    34   6 C        3.800    -0.058    21.613     6.619
    35   6 C        3.799    -0.056    21.573     6.613
    36   6 C        3.751    -0.107    22.610     6.781
    37   6 C        2.953    -0.060    29.481     8.906
    38   6 C        2.922     0.087    26.070     8.373
    39   6 C        2.922     0.086    26.090     8.376
    40   6 C        2.953    -0.060    29.499     8.908
    41  17 Cl       0.999    -0.112   102.642    15.500
    42  17 Cl       1.000    -0.111   102.608    15.497
    43   6 C        3.742    -0.025    21.094     6.552
    44   6 C        3.804    -0.066    21.763     6.642
    45   6 C        3.803    -0.099    22.380     6.735
    46   6 C        2.690     0.367    20.771     7.459
    47   8 O        0.856    -0.429    22.261     6.326
    48   8 O        1.660    -0.358    20.051     6.045
    49  17 Cl       0.994    -0.115   102.746    15.508
    50   1 H        0.925     0.036     2.507     2.476
    51   1 H        0.925     0.041     2.440     2.443
    52   1 H        0.925     0.040     2.455     2.450
    53   1 H        0.924     0.029     2.603     2.523
    54   1 H        0.924     0.035     2.512     2.479
    55   1 H        0.924     0.023     2.683     2.562
    56   1 H        0.924     0.042     2.423     2.434
    57   1 H        0.924     0.035     2.511     2.478
    58   1 H        0.925     0.050     2.319     2.381
    59   1 H        0.925     0.051     2.310     2.377
    60   1 H        0.924     0.063     2.168     2.303
    61   1 H        0.924     0.060     2.204     2.321
    62   1 H        0.924     0.066     2.125     2.279
    63   1 H        0.926     0.095     1.830     2.116
    64   1 H        0.926     0.081     1.968     2.194
    65   1 H        0.926     0.049     2.326     2.385
    66   1 H        0.926     0.061     2.190     2.314
    67   1 H        0.926     0.056     2.244     2.342
    68   1 H        0.924     0.067     2.113     2.273
    69   1 H        0.925     0.076     2.016     2.221
    70   1 H        0.924     0.068     2.108     2.271
    71   1 H        0.925     0.058     2.221     2.331
    72   1 H        0.924     0.089     1.886     2.148
    73   1 H        0.925     0.076     2.026     2.226
    74   1 H        0.802     0.370     0.545     1.160
    75   1 H        0.925     0.069     2.094     2.263
    76   1 H        0.924     0.068     2.110     2.272
    77   1 H        0.925     0.062     2.170     2.304
    78   1 H        0.924     0.047     2.353     2.399
    79   1 H        0.925     0.052     2.290     2.367
    80   1 H        0.924     0.032     2.561     2.503
    81   1 H        0.924     0.034     2.525     2.485
    82   1 H        0.924     0.017     2.773     2.604
    83   1 H        0.924     0.033     2.546     2.495
    84   1 H        0.924     0.032     2.560     2.502
    85   1 H        0.925     0.038     2.473     2.459
    86   1 H        0.925     0.042     2.424     2.435
    87   1 H        0.925     0.038     2.478     2.462
    88   1 H        0.926     0.084     1.940     2.178
    89   1 H        0.926     0.083     1.946     2.182
    90   1 H        0.925     0.073     2.052     2.240
    91   1 H        0.925     0.108     1.715     2.048
    92   1 H        0.925     0.077     2.011     2.217
    93   1 H        0.924     0.054     2.271     2.356
    94   1 H        0.924     0.088     1.899     2.155
    95   1 H        0.925     0.078     1.995     2.209
    96   1 H        0.804     0.343     0.606     1.222

Wiberg/Mayer (AO) data.
largest (>0.10) Wiberg bond orders for each atom

     #   Z sym  total        # sym  WBO       # sym  WBO       # sym  WBO
 ---------------------------------------------------------------------------
     1   6 C    3.996 --     2 C    1.021    52 H    0.987    51 H    0.986
                            50 H    0.985
     2   6 C    3.997 --     1 C    1.021     3 C    1.008    54 H    0.978
                            53 H    0.973
     3   6 C    3.996 --     2 C    1.008     4 C    1.007    56 H    0.976
                            55 H    0.974
     4   6 C    3.995 --     3 C    1.007     5 C    1.006    57 H    0.975
                            58 H    0.972
     5   6 C    3.988 --     6 C    1.006     4 C    1.006    59 H    0.969
                            60 H    0.964
     6   6 C    3.956 --     5 C    1.006     7 N    0.970    61 H    0.962
                            62 H    0.956
     7   7 N    3.566 --    16 C    1.190     8 C    1.147     6 C    0.970
     8   6 C    3.960 --     9 C    1.353    14 C    1.248     7 N    1.147
     9   6 C    3.965 --    10 C    1.416     8 C    1.353    63 H    0.951
    10   6 C    3.914 --     9 C    1.416    12 C    1.323    11 Cl   1.013
    11  17 Cl   1.160 --    10 C    1.013
    12   6 C    3.915 --    13 C    1.414    10 C    1.323    49 Cl   1.014
    13   6 C    3.967 --    12 C    1.414    14 C    1.358    64 H    0.956
    14   6 C    3.961 --    13 C    1.358     8 C    1.248    15 N    1.141
    15   7 N    3.584 --    16 C    1.206    14 C    1.141    43 C    0.982
    16   6 C    3.917 --    17 C    1.316    15 N    1.206     7 N    1.190
    17   6 C    3.932 --    18 C    1.418    16 C    1.316    65 H    0.950
    18   6 C    3.958 --    19 C    1.422    17 C    1.418    66 H    0.947
    19   6 C    3.935 --    18 C    1.422    20 C    1.317    67 H    0.940
    20   6 C    3.914 --    19 C    1.317    21 N    1.199    30 N    1.190
    21   7 N    3.574 --    20 C    1.199    28 C    1.134    22 C    0.983
    22   6 C    3.955 --    23 C    0.991    21 N    0.983    68 H    0.963
                            69 H    0.959
    23   6 C    3.987 --    24 C    1.007    22 C    0.991    71 H    0.973
                            70 H    0.973
    24   6 C    3.993 --    23 C    1.007    25 C    0.976    73 H    0.963
                            72 H    0.944
    25   6 C    3.917 --    26 O    1.697    27 O    1.207    24 C    0.976
    26   8 O    1.994 --    25 C    1.697    27 O    0.181
    27   8 O    2.239 --    25 C    1.207    74 H    0.804    26 O    0.181
    28   6 C    3.961 --    40 C    1.360    29 C    1.257    21 N    1.134
    29   6 C    3.964 --    37 C    1.355    28 C    1.257    30 N    1.145
    30   7 N    3.573 --    20 C    1.190    29 C    1.145    31 C    0.979
    31   6 C    3.954 --    32 C    0.990    30 N    0.979    76 H    0.964
                            75 H    0.957
    32   6 C    3.986 --    33 C    1.008    31 C    0.990    78 H    0.975
                            77 H    0.967
    33   6 C    3.995 --    32 C    1.008    34 C    1.008    80 H    0.974
                            79 H    0.972
    34   6 C    3.997 --    33 C    1.008    35 C    1.007    81 H    0.977
                            82 H    0.971
    35   6 C    3.997 --    36 C    1.021    34 C    1.007    83 H    0.978
                            84 H    0.975
    36   6 C    3.996 --    35 C    1.021    85 H    0.987    86 H    0.986
                            87 H    0.986
    37   6 C    3.966 --    38 C    1.414    29 C    1.355    88 H    0.959
    38   6 C    3.917 --    37 C    1.414    39 C    1.323    42 Cl   1.017
    39   6 C    3.915 --    40 C    1.412    38 C    1.323    41 Cl   1.016
    40   6 C    3.967 --    39 C    1.412    28 C    1.360    89 H    0.959
    41  17 Cl   1.165 --    39 C    1.016
    42  17 Cl   1.167 --    38 C    1.017
    43   6 C    3.948 --    44 C    0.990    15 N    0.982    90 H    0.962
                            91 H    0.946
    44   6 C    3.988 --    45 C    1.003    43 C    0.990    93 H    0.975
                            92 H    0.965
    45   6 C    3.991 --    44 C    1.003    46 C    0.978    95 H    0.966
                            94 H    0.940
    46   6 C    3.909 --    47 O    1.719    48 O    1.170    45 C    0.978
    47   8 O    2.037 --    46 C    1.719    48 O    0.174
    48   8 O    2.233 --    46 C    1.170    96 H    0.856    47 O    0.174
    49  17 Cl   1.161 --    12 C    1.014
    50   1 H    0.999 --     1 C    0.985
    51   1 H    0.998 --     1 C    0.986
    52   1 H    0.998 --     1 C    0.987
    53   1 H    0.999 --     2 C    0.973
    54   1 H    0.999 --     2 C    0.978
    55   1 H    0.999 --     3 C    0.974
    56   1 H    0.998 --     3 C    0.976
    57   1 H    0.999 --     4 C    0.975
    58   1 H    0.997 --     4 C    0.972
    59   1 H    0.997 --     5 C    0.969
    60   1 H    0.995 --     5 C    0.964
    61   1 H    0.994 --     6 C    0.962
    62   1 H    0.993 --     6 C    0.956
    63   1 H    0.990 --     9 C    0.951
    64   1 H    0.993 --    13 C    0.956
    65   1 H    0.997 --    17 C    0.950
    66   1 H    0.996 --    18 C    0.947
    67   1 H    0.996 --    19 C    0.940
    68   1 H    0.994 --    22 C    0.963
    69   1 H    0.994 --    22 C    0.959
    70   1 H    0.995 --    23 C    0.973
    71   1 H    0.996 --    23 C    0.973
    72   1 H    0.991 --    24 C    0.944
    73   1 H    0.994 --    24 C    0.963
    74   1 H    0.863 --    27 O    0.804
    75   1 H    0.994 --    31 C    0.957
    76   1 H    0.993 --    31 C    0.964
    77   1 H    0.995 --    32 C    0.967
    78   1 H    0.998 --    32 C    0.975
    79   1 H    0.997 --    33 C    0.972
    80   1 H    0.999 --    33 C    0.974
    81   1 H    0.999 --    34 C    0.977
    82   1 H    1.000 --    34 C    0.971
    83   1 H    0.999 --    35 C    0.978
    84   1 H    0.999 --    35 C    0.975
    85   1 H    0.999 --    36 C    0.987
    86   1 H    0.998 --    36 C    0.986
    87   1 H    0.999 --    36 C    0.986
    88   1 H    0.992 --    37 C    0.959
    89   1 H    0.993 --    40 C    0.959
    90   1 H    0.994 --    43 C    0.962
    91   1 H    0.987 --    43 C    0.946
    92   1 H    0.994 --    44 C    0.965
    93   1 H    0.997 --    44 C    0.975
    94   1 H    0.992 --    45 C    0.940
    95   1 H    0.994 --    45 C    0.966
    96   1 H    0.883 --    48 O    0.856
 ---------------------------------------------------------------------------

molecular dipole:
                 x           y           z       tot (Debye)
 q only:       -3.860     -14.789      -0.072
   full:       -3.661     -15.164       0.299      39.658

           -------------------------------------------------
          | TOTAL ENERGY             -149.170415478196 Eh   |
          | GRADIENT NORM               0.000812910830 Eh/α |
          | HOMO-LUMO GAP               1.660430280299 eV   |
           -------------------------------------------------

 * finished run on 2024/12/20 at 07:03:56.277
