   * xtb version 6.7.1 (edcfbbe) compiled by 'conda@3ef47c1a292c' on 2024-11-25

   ID    Z sym.   atoms
    1    6 C      1-4, 7-14
    2    7 N      5, 6
    3    1 H      15-29

          program call               : xtb C0922.xyz --opt --namespace C0922 --charge +1
          :  Hamiltonian                  GFN2-xTB          :
 * total energy  :   -38.7832569 Eh     change       -0.7566499E-09 Eh
 * total energy  :   -38.8022248 Eh     change       -0.1896790E-01 Eh
 * total energy  :   -38.8057321 Eh     change       -0.3507337E-02 Eh
 * total energy  :   -38.8063638 Eh     change       -0.6317355E-03 Eh
 * total energy  :   -38.8068760 Eh     change       -0.5121800E-03 Eh
 * total energy  :   -38.8071016 Eh     change       -0.2255493E-03 Eh
 * total energy  :   -38.8073444 Eh     change       -0.2428333E-03 Eh
 * total energy  :   -38.8075546 Eh     change       -0.2102560E-03 Eh
 * total energy  :   -38.8077223 Eh     change       -0.1676640E-03 Eh
 * total energy  :   -38.8078530 Eh     change       -0.1306790E-03 Eh
 * total energy  :   -38.8079237 Eh     change       -0.7073233E-04 Eh
 * total energy  :   -38.8079479 Eh     change       -0.2413525E-04 Eh
 * total energy  :   -38.8079538 Eh     change       -0.5939636E-05 Eh
 * total energy  :   -38.8079647 Eh     change       -0.1089503E-04 Eh
 * total energy  :   -38.8079698 Eh     change       -0.5115023E-05 Eh
 * total energy  :   -38.8079719 Eh     change       -0.2107444E-05 Eh
   *** GEOMETRY OPTIMIZATION CONVERGED AFTER 16 ITERATIONS ***

 final structure:
================
29
 xtb: 6.7.1 (edcfbbe)
C            0.75491225266373       -0.13887028910223       -0.03687768704003
C            0.39049352254726        0.31930704589336       -1.39281112725496
C            0.34349935483106        1.60365849848056       -1.91691581506079
C           -0.06585234704667        1.48973117027537       -3.23860870584860
N           -0.25635265793060        0.18162745202304       -3.48729880995738
N            0.02268044640467       -0.52743546080797       -2.36813162784481
C           -0.04818497672794       -1.95917586354969       -2.30678077693929
C           -0.70861253664937       -0.41497358303188       -4.69634047968377
C           -1.95240239922301       -1.03499874894451       -4.73119675566864
C           -2.39237043539980       -1.59963540828238       -5.91535127885477
C           -1.59864992537185       -1.54377433303261       -7.05018115362249
C           -0.36086202235518       -0.92200407097486       -7.00769819989143
C            0.09262331997244       -0.35436187024779       -5.82955817285339
C           -0.28929302610173        2.54307757630941       -4.25004084822270
H           -0.05320979723907       -0.71924549249966        0.40633019535266
H            0.96223481807841        0.71618385140605        0.59888365436581
H            1.64310219582374       -0.76988934823238       -0.06665170303612
H            0.57497863820262        2.51179930255722       -1.40046331609033
H           -0.97905118197912       -2.28657740228595       -1.83785393688100
H            0.00410644848584       -2.37186060939243       -3.31369874206562
H            0.79001002443919       -2.33966759667783       -1.72349224912046
H           -2.57172280757564       -1.06040226303940       -3.84729838082916
H           -3.35791211311495       -2.07863419333772       -5.95091765807491
H           -1.94676558073293       -1.98460863039767       -7.97064874441900
H            0.25563757785821       -0.87952767067898       -7.89167407622931
H            1.05734371211030        0.12685590671161       -5.78416638184566
H            0.63975447379930        2.77157373338515       -4.77220829559549
H           -1.02496174558515        2.22956592378666       -4.98641772506564
H           -0.62600323218356        3.45515237368721       -3.76520120172269

          :  Hamiltonian                  GFN2-xTB          :
         :: total energy             -38.807971914332 Eh    ::
         :: gradient norm              0.000929186659 Eh/a0 ::
         :: HOMO-LUMO gap              3.889024079339 eV    ::
         :: SCC energy               -39.472152673480 Eh    ::
         :: -> dispersion             -0.026661596423 Eh    ::
         :: repulsion energy           0.664180759148 Eh    ::

    * Orbital Energies and Occupations

         #    Occupation            Energy/Eh            Energy/eV
      -------------------------------------------------------------
         1        2.0000           -0.8840535             -24.0563
       ...           ...                  ...                  ...
        24        2.0000           -0.6261153             -17.0375
        25        2.0000           -0.6216419             -16.9157
        26        2.0000           -0.6199215             -16.8689
        27        2.0000           -0.6188203             -16.8390
        28        2.0000           -0.6164176             -16.7736
        29        2.0000           -0.6097905             -16.5932
        30        2.0000           -0.5982572             -16.2794
        31        2.0000           -0.5742826             -15.6270
        32        2.0000           -0.5666305             -15.4188
        33        2.0000           -0.5598895             -15.2354
        34        2.0000           -0.5569486             -15.1553
        35        2.0000           -0.5471848             -14.8897
        36        2.0000           -0.5447362             -14.8230 (HOMO)
        37                         -0.4018172             -10.9340 (LUMO)
        38                         -0.3685414             -10.0285
        39                         -0.3648232              -9.9273
        40                         -0.3254866              -8.8569
        41                         -0.2410309              -6.5588
        42                         -0.2060283              -5.6063
        43                         -0.1192801              -3.2458
        44                         -0.0576050              -1.5675
        45                         -0.0426094              -1.1595
        46                         -0.0158112              -0.4302
        47                         -0.0100143              -0.2725
       ...                                ...                  ...
        71                          0.5299478              14.4206
      -------------------------------------------------------------
                  HL-Gap            0.1429190 Eh            3.8890 eV

     #   Z          covCN         q      C6AA      α(0)
     1   6 C        3.755    -0.130    23.059     6.847
     2   6 C        3.058     0.063    26.535     8.448
     3   6 C        3.038    -0.079    29.936     8.974
     4   6 C        3.057     0.066    26.477     8.438
     5   7 N        2.964     0.059    20.207     6.676
     6   7 N        2.955     0.070    20.018     6.645
     7   6 C        3.688    -0.080    22.225     6.748
     8   6 C        2.914     0.038    27.152     8.545
     9   6 C        2.920    -0.037    28.909     8.817
    10   6 C        2.921    -0.018    28.463     8.749
    11   6 C        2.919    -0.015    28.390     8.738
    12   6 C        2.921    -0.017    28.443     8.746
    13   6 C        2.920    -0.034    28.856     8.809
    14   6 C        3.755    -0.127    23.001     6.838
    15   1 H        0.925     0.088     1.899     2.155
    16   1 H        0.925     0.093     1.853     2.129
    17   1 H        0.925     0.087     1.904     2.158
    18   1 H        0.927     0.090     1.880     2.144
    19   1 H        0.924     0.095     1.834     2.118
    20   1 H        0.925     0.094     1.842     2.122
    21   1 H        0.925     0.102     1.763     2.077
    22   1 H        0.926     0.055     2.261     2.351
    23   1 H        0.926     0.070     2.081     2.256
    24   1 H        0.926     0.073     2.053     2.241
    25   1 H        0.926     0.071     2.070     2.250
    26   1 H        0.926     0.059     2.212     2.326
    27   1 H        0.925     0.094     1.840     2.121
    28   1 H        0.925     0.078     2.000     2.212
    29   1 H        0.925     0.093     1.849     2.126

Wiberg/Mayer (AO) data.
largest (>0.10) Wiberg bond orders for each atom

     #   Z sym  total        # sym  WBO       # sym  WBO       # sym  WBO
 ---------------------------------------------------------------------------
     1   6 C    3.981 --     2 C    1.047    16 H    0.975    15 H    0.957
                            17 H    0.952
     2   6 C    3.951 --     3 C    1.413     6 N    1.296     1 C    1.047
                             5 N    0.108
     3   6 C    3.973 --     4 C    1.414     2 C    1.413    18 H    0.966
     4   6 C    3.955 --     3 C    1.414     5 N    1.287    14 C    1.047
                             6 N    0.110
     5   7 N    3.630 --     4 C    1.287     6 N    1.089     8 C    0.970
                             2 C    0.108
     6   7 N    3.637 --     2 C    1.296     5 N    1.089     7 C    0.994
                             4 C    0.110
     7   6 C    3.940 --     6 N    0.994    20 H    0.969    21 H    0.964
                            19 H    0.961
     8   6 C    3.935 --    13 C    1.393     9 C    1.391     5 N    0.970
                            11 C    0.105
     9   6 C    3.988 --    10 C    1.444     8 C    1.391    22 H    0.967
                            12 C    0.109
    10   6 C    3.987 --     9 C    1.444    11 C    1.436    23 H    0.967
                            13 C    0.109
    11   6 C    3.984 --    12 C    1.438    10 C    1.436    24 H    0.967
                             8 C    0.105
    12   6 C    3.987 --    13 C    1.442    11 C    1.438    25 H    0.966
                             9 C    0.109
    13   6 C    3.988 --    12 C    1.442     8 C    1.393    26 H    0.967
                            10 C    0.109
    14   6 C    3.982 --     4 C    1.047    28 H    0.971    29 H    0.967
                            27 H    0.946
    15   1 H    0.991 --     1 C    0.957
    16   1 H    0.991 --     1 C    0.975
    17   1 H    0.991 --     1 C    0.952
    18   1 H    0.991 --     3 C    0.966
    19   1 H    0.990 --     7 C    0.961
    20   1 H    0.991 --     7 C    0.969
    21   1 H    0.989 --     7 C    0.964
    22   1 H    0.997 --     9 C    0.967
    23   1 H    0.994 --    10 C    0.967
    24   1 H    0.995 --    11 C    0.967
    25   1 H    0.994 --    12 C    0.966
    26   1 H    0.997 --    13 C    0.967
    27   1 H    0.990 --    14 C    0.946
    28   1 H    0.993 --    14 C    0.971
    29   1 H    0.991 --    14 C    0.967
 ---------------------------------------------------------------------------

molecular dipole:
                 x           y           z       tot (Debye)
 q only:       -0.399      -0.468      -6.169
   full:       -0.397      -0.501      -6.148      15.711

           -------------------------------------------------
          | TOTAL ENERGY              -38.807971914332 Eh   |
          | GRADIENT NORM               0.000929186659 Eh/α |
          | HOMO-LUMO GAP               3.889024079339 eV   |
           -------------------------------------------------

 * finished run on 2024/12/20 at 07:04:22.921
