   * xtb version 6.7.1 (edcfbbe) compiled by 'conda@3ef47c1a292c' on 2024-11-25

   ID    Z sym.   atoms
    1    6 C      1-3, 5, 6, 8-11
    2    7 N      4, 7, 12
    3    1 H      13-24

          program call               : xtb C0927.xyz --opt --namespace C0927 --charge +1
          :  Hamiltonian                  GFN2-xTB          :
 * total energy  :   -33.6727691 Eh     change       -0.7321859E-09 Eh
 * total energy  :   -33.7066729 Eh     change       -0.3390386E-01 Eh
 * total energy  :   -33.7087013 Eh     change       -0.2028361E-02 Eh
 * total energy  :   -33.7087094 Eh     change       -0.8072876E-05 Eh
 * total energy  :   -33.7091777 Eh     change       -0.4683735E-03 Eh
 * total energy  :   -33.7093345 Eh     change       -0.1567785E-03 Eh
 * total energy  :   -33.7093943 Eh     change       -0.5978041E-04 Eh
 * total energy  :   -33.7094582 Eh     change       -0.6394322E-04 Eh
 * total energy  :   -33.7095319 Eh     change       -0.7364599E-04 Eh
 * total energy  :   -33.7096390 Eh     change       -0.1071288E-03 Eh
 * total energy  :   -33.7099002 Eh     change       -0.1159429E-03 Eh
 * total energy  :   -33.7099399 Eh     change       -0.3968564E-04 Eh
 * total energy  :   -33.7099105 Eh     change        0.2938305E-04 Eh
 * total energy  :   -33.7099828 Eh     change       -0.7231422E-04 Eh
 * total energy  :   -33.7099925 Eh     change       -0.9618932E-05 Eh
 * total energy  :   -33.7100001 Eh     change       -0.7654137E-05 Eh
 * total energy  :   -33.7100020 Eh     change       -0.1900052E-05 Eh
 * total energy  :   -33.7100036 Eh     change       -0.1565577E-05 Eh
 * total energy  :   -33.7100043 Eh     change       -0.7596719E-06 Eh
   *** GEOMETRY OPTIMIZATION CONVERGED AFTER 20 ITERATIONS ***

 final structure:
================
24
 xtb: 6.7.1 (edcfbbe)
C            1.26870606204819        0.37672498409093        0.47077179099836
C            0.48916572825438        0.46204911906947        1.53132392557451
C           -1.01093874458586        0.38022545120245        1.46924071791852
N           -1.51324136849498       -0.68165534487108        2.32094608457352
C           -2.57831008926695       -0.61249744896764        3.16492302793647
C           -2.71331152975861       -1.83503873422778        3.74932900415115
N           -1.72084733048471       -2.62884355280571        3.25740983982668
C           -1.00915238905766       -1.90749676566397        2.39158299892653
C           -1.54808916988833       -4.04124055869819        3.51189092517252
C           -2.35183918725399       -4.87138278236599        2.49115153999101
C           -2.05092575233448       -4.40890275547767        1.15746647329634
N           -1.78585483045908       -3.94317663648377        0.14923997930514
H            0.87259479464283        0.23066328580705       -0.52030687208015
H            2.33741912542554        0.46731180435912        0.54927490175156
H            0.90010017427110        0.62110914272864        2.51861069356473
H           -1.45625052282585        1.31921179277042        1.80885438440955
H           -1.33386918316146        0.19101041873288        0.44071894889300
H           -3.15925201758938        0.27814038071253        3.29387544293378
H           -3.42591088541003       -2.17857899339532        4.47132738038336
H           -0.16274464122097       -2.25583331594119        1.83185587787668
H           -0.48522602839376       -4.28109777997741        3.43079995059940
H           -1.88868591765286       -4.26601325777019        4.52435801825168
H           -2.08693880744086       -5.92631773464084        2.58236780466553
H           -3.42689748936217       -4.76842071818569        2.66079716108047

          :  Hamiltonian                  GFN2-xTB          :
         :: total energy             -33.710004331288 Eh    ::
         :: gradient norm              0.000309407264 Eh/a0 ::
         :: HOMO-LUMO gap              3.708589570989 eV    ::
         :: SCC energy               -34.292880392806 Eh    ::
         :: -> dispersion             -0.019039123337 Eh    ::
         :: repulsion energy           0.582876061518 Eh    ::

    * Orbital Energies and Occupations

         #    Occupation            Energy/Eh            Energy/eV
      -------------------------------------------------------------
         1        2.0000           -0.9021005             -24.5474
       ...           ...                  ...                  ...
        19        2.0000           -0.6663352             -18.1319
        20        2.0000           -0.6601018             -17.9623
        21        2.0000           -0.6524625             -17.7544
        22        2.0000           -0.6460118             -17.5789
        23        2.0000           -0.6381287             -17.3644
        24        2.0000           -0.6178909             -16.8137
        25        2.0000           -0.6051274             -16.4664
        26        2.0000           -0.6006399             -16.3442
        27        2.0000           -0.6003027             -16.3351
        28        2.0000           -0.5927829             -16.1304
        29        2.0000           -0.5691294             -15.4868
        30        2.0000           -0.5604855             -15.2516
        31        2.0000           -0.5504590             -14.9788 (HOMO)
        32                         -0.4141708             -11.2702 (LUMO)
        33                         -0.3777407             -10.2788
        34                         -0.3490284              -9.4975
        35                         -0.3469202              -9.4402
        36                         -0.3394877              -9.2379
        37                         -0.1922572              -5.2316
        38                         -0.1378921              -3.7522
        39                         -0.0676546              -1.8410
        40                         -0.0589526              -1.6042
        41                         -0.0563744              -1.5340
        42                         -0.0377384              -1.0269
       ...                                ...                  ...
        60                          1.0074912              27.4152
      -------------------------------------------------------------
                  HL-Gap            0.1362882 Eh            3.7086 eV

     #   Z          covCN         q      C6AA      α(0)
     1   6 C        2.837    -0.079    29.953     8.969
     2   6 C        2.886    -0.044    29.099     8.844
     3   6 C        3.747    -0.029    21.167     6.562
     4   7 N        2.871     0.075    19.941     6.632
     5   6 C        3.073    -0.005    28.074     8.688
     6   6 C        3.068    -0.006    28.100     8.692
     7   7 N        2.871     0.059    20.207     6.676
     8   6 C        3.097     0.053    26.704     8.469
     9   6 C        3.750    -0.017    20.944     6.527
    10   6 C        3.804    -0.066    21.766     6.642
    11   6 C        1.900     0.112    28.332     8.596
    12   7 N        0.911    -0.206    25.494     7.303
    13   1 H        0.926     0.072     2.061     2.245
    14   1 H        0.926     0.081     1.966     2.192
    15   1 H        0.926     0.059     2.215     2.327
    16   1 H        0.924     0.098     1.801     2.099
    17   1 H        0.924     0.102     1.768     2.080
    18   1 H        0.926     0.112     1.683     2.029
    19   1 H        0.926     0.108     1.710     2.045
    20   1 H        0.926     0.120     1.610     1.984
    21   1 H        0.924     0.093     1.847     2.125
    22   1 H        0.924     0.099     1.791     2.093
    23   1 H        0.924     0.112     1.678     2.026
    24   1 H        0.924     0.097     1.813     2.106

Wiberg/Mayer (AO) data.
largest (>0.10) Wiberg bond orders for each atom

     #   Z sym  total        # sym  WBO       # sym  WBO       # sym  WBO
 ---------------------------------------------------------------------------
     1   6 C    3.982 --     2 C    1.987    13 H    0.971    14 H    0.971
     2   6 C    3.980 --     1 C    1.987     3 C    1.003    15 H    0.963
     3   6 C    3.932 --     2 C    1.003     4 N    0.956    16 H    0.954
                            17 H    0.947
     4   7 N    3.724 --     8 C    1.376     5 C    1.230     3 C    0.956
     5   6 C    3.949 --     6 C    1.592     4 N    1.230    18 H    0.960
     6   6 C    3.947 --     5 C    1.592     7 N    1.222    19 H    0.961
     7   7 N    3.706 --     8 C    1.350     6 C    1.222     9 C    0.976
     8   6 C    3.948 --     4 N    1.376     7 N    1.350    20 H    0.952
     9   6 C    3.945 --     7 N    0.976    21 H    0.966    10 C    0.964
                            22 H    0.963
    10   6 C    3.987 --    11 C    1.051     9 C    0.964    24 H    0.943
                            23 H    0.937
    11   6 C    3.950 --    12 N    2.862    10 C    1.051
    12   7 N    3.018 --    11 C    2.862
    13   1 H    0.995 --     1 C    0.971
    14   1 H    0.993 --     1 C    0.971
    15   1 H    0.997 --     2 C    0.963
    16   1 H    0.990 --     3 C    0.954
    17   1 H    0.989 --     3 C    0.947
    18   1 H    0.988 --     5 C    0.960
    19   1 H    0.988 --     6 C    0.961
    20   1 H    0.986 --     8 C    0.952
    21   1 H    0.991 --     9 C    0.966
    22   1 H    0.990 --     9 C    0.963
    23   1 H    0.987 --    10 C    0.937
    24   1 H    0.991 --    10 C    0.943
 ---------------------------------------------------------------------------

molecular dipole:
                 x           y           z       tot (Debye)
 q only:       -2.883      -3.459       5.568
   full:       -3.038      -3.684       5.992      19.475

           -------------------------------------------------
          | TOTAL ENERGY              -33.710004331288 Eh   |
          | GRADIENT NORM               0.000309407264 Eh/α |
          | HOMO-LUMO GAP               3.708589570989 eV   |
           -------------------------------------------------

 * finished run on 2024/12/20 at 07:04:34.741
