   * xtb version 6.7.1 (edcfbbe) compiled by 'conda@3ef47c1a292c' on 2024-11-25

   ID    Z sym.   atoms
    1    6 C      1-4, 6-13
    2    7 N      5
    3    1 H      14-41

          program call               : xtb C0928.xyz --opt --namespace C0928 --charge +1
          :  Hamiltonian                  GFN2-xTB          :
 * total energy  :   -42.5088213 Eh     change       -0.1144826E-09 Eh
 * total energy  :   -42.5115023 Eh     change       -0.2681024E-02 Eh
 * total energy  :   -42.5120297 Eh     change       -0.5273649E-03 Eh
 * total energy  :   -42.5121021 Eh     change       -0.7239368E-04 Eh
 * total energy  :   -42.5121484 Eh     change       -0.4635009E-04 Eh
 * total energy  :   -42.5121670 Eh     change       -0.1856484E-04 Eh
 * total energy  :   -42.5122054 Eh     change       -0.3841228E-04 Eh
 * total energy  :   -42.5122208 Eh     change       -0.1535464E-04 Eh
 * total energy  :   -42.5122442 Eh     change       -0.2345890E-04 Eh
 * total energy  :   -42.5122619 Eh     change       -0.1766883E-04 Eh
 * total energy  :   -42.5122765 Eh     change       -0.1459054E-04 Eh
 * total energy  :   -42.5122916 Eh     change       -0.1513830E-04 Eh
 * total energy  :   -42.5123047 Eh     change       -0.1307391E-04 Eh
 * total energy  :   -42.5123148 Eh     change       -0.1013262E-04 Eh
 * total energy  :   -42.5123244 Eh     change       -0.9567633E-05 Eh
 * total energy  :   -42.5123336 Eh     change       -0.9259243E-05 Eh
 * total energy  :   -42.5123378 Eh     change       -0.4116141E-05 Eh
   *** GEOMETRY OPTIMIZATION CONVERGED AFTER 17 ITERATIONS ***

 final structure:
================
41
 xtb: 6.7.1 (edcfbbe)
C            1.36093175858012       -0.18827896582763       -0.08813503480537
C            0.76285033065735       -0.92785669731165        1.10401668579453
C            1.18959665590404       -0.35099456518942        2.45760904079019
C            0.78844659583355        1.10571387688515        2.67696579570843
N           -0.67322605204638        1.33872398497327        2.54376210750548
C           -1.50620058195907        0.60266897143582        3.54433952693737
C           -1.18690819202404        0.83371349543866        5.02041525044074
C           -1.60157813791389        2.18165871052316        5.61665331276956
C           -3.10495535849516        2.42914942992524        5.56846320390259
C           -0.98614720325426        2.78937293604051        2.42794675742997
C           -0.84383049612788        3.28986413683272        0.99161195639667
C           -1.76785911368398        2.59567348230033       -0.01450902337678
C           -3.24920066992869        2.75384688797356        0.30934473515720
H            0.98442393971347        0.82831202338315       -0.18099970836270
H            1.11884217773245       -0.71350513002370       -1.00769131199073
H            2.44349050592401       -0.14696732203758       -0.00228285205191
H           -0.32840579870933       -0.95845878982309        1.01629917473100
H            1.10120356478456       -1.96393573351224        1.07032002342925
H            0.80044690932992       -0.97902858581456        3.26010094358591
H            2.27788353918098       -0.39178756553627        2.52325515822092
H            1.10451142821427        1.44084133972113        3.66527924230832
H            1.28856353115526        1.72880632573341        1.93461653255770
H           -0.93355190830693        0.93686790177766        1.63230580937911
H           -2.54915599825232        0.86135756555261        3.35414750826464
H           -1.38666262488198       -0.46172291742231        3.33322361029086
H           -1.72789167072603        0.05475840158226        5.56237098723071
H           -0.12698719546579        0.66372547674399        5.21021905002417
H           -1.29197535077304        2.17452823637458        6.66275929954745
H           -1.07250055086943        3.00560863424697        5.13748956308771
H           -3.64126383042515        1.60382887397030        6.02968268198026
H           -3.34605829089827        3.33496055862376        6.11696956293485
H           -3.47501770404126        2.55344255508803        4.55275613996060
H           -2.00973620545971        2.95364458059062        2.76258104626536
H           -0.31686514979775        3.34791274789856        3.08308985997832
H           -1.07787129415569        4.35512314749388        1.00000416121219
H            0.19112387782016        3.19618201637728        0.65601008725781
H           -1.57667434370877        3.04004047226610       -0.99181374807806
H           -1.52470411540560        1.53147426996954       -0.11077432657887
H           -3.49883206851865        3.80290678303320        0.44339575107958
H           -3.84902236034921        2.36934295449242       -0.51042067158492
H           -3.53602254865541        2.21149549525157        1.20786211066783

          :  Hamiltonian                  GFN2-xTB          :
         :: total energy             -42.512337756862 Eh    ::
         :: gradient norm              0.000279652481 Eh/a0 ::
         :: HOMO-LUMO gap              8.739295043144 eV    ::
         :: SCC energy               -43.132090761828 Eh    ::
         :: -> dispersion             -0.031388599139 Eh    ::
         :: repulsion energy           0.619753004965 Eh    ::

    * Orbital Energies and Occupations

         #    Occupation            Energy/Eh            Energy/eV
      -------------------------------------------------------------
         1        2.0000           -0.8545096             -23.2524
       ...           ...                  ...                  ...
        28        2.0000           -0.6078961             -16.5417
        29        2.0000           -0.6021270             -16.3847
        30        2.0000           -0.5993850             -16.3101
        31        2.0000           -0.5925967             -16.1254
        32        2.0000           -0.5771031             -15.7038
        33        2.0000           -0.5734734             -15.6050
        34        2.0000           -0.5688269             -15.4786
        35        2.0000           -0.5674547             -15.4412
        36        2.0000           -0.5655177             -15.3885
        37        2.0000           -0.5627277             -15.3126
        38        2.0000           -0.5611250             -15.2690
        39        2.0000           -0.5583984             -15.1948
        40        2.0000           -0.5513511             -15.0030 (HOMO)
        41                         -0.2301879              -6.2637 (LUMO)
        42                         -0.1477974              -4.0218
        43                         -0.1364612              -3.7133
        44                         -0.1309736              -3.5640
        45                         -0.0740290              -2.0144
        46                         -0.0671253              -1.8266
        47                         -0.0600741              -1.6347
        48                         -0.0436074              -1.1866
        49                         -0.0406441              -1.1060
        50                         -0.0375095              -1.0207
        51                         -0.0333755              -0.9082
       ...                                ...                  ...
        80                          0.1853772               5.0444
      -------------------------------------------------------------
                  HL-Gap            0.3211632 Eh            8.7393 eV

     #   Z          covCN         q      C6AA      α(0)
     1   6 C        3.751    -0.116    22.773     6.806
     2   6 C        3.799    -0.063    21.712     6.634
     3   6 C        3.801    -0.079    22.014     6.680
     4   6 C        3.741    -0.033    21.245     6.576
     5   7 N        3.575     0.030    20.708     6.759
     6   6 C        3.735    -0.032    21.226     6.575
     7   6 C        3.800    -0.074    21.919     6.666
     8   6 C        3.799    -0.065    21.750     6.640
     9   6 C        3.751    -0.113    22.728     6.799
    10   6 C        3.741    -0.035    21.285     6.583
    11   6 C        3.801    -0.080    22.019     6.681
    12   6 C        3.799    -0.063    21.716     6.635
    13   6 C        3.751    -0.115    22.763     6.804
    14   1 H        0.925     0.029     2.603     2.523
    15   1 H        0.925     0.057     2.236     2.339
    16   1 H        0.925     0.054     2.276     2.359
    17   1 H        0.924     0.023     2.694     2.567
    18   1 H        0.924     0.063     2.160     2.298
    19   1 H        0.924     0.056     2.243     2.342
    20   1 H        0.924     0.078     2.005     2.214
    21   1 H        0.924     0.086     1.921     2.168
    22   1 H        0.924     0.089     1.884     2.147
    23   1 H        0.859     0.237     0.936     1.515
    24   1 H        0.924     0.085     1.927     2.171
    25   1 H        0.924     0.081     1.969     2.194
    26   1 H        0.924     0.074     2.037     2.232
    27   1 H        0.925     0.055     2.259     2.350
    28   1 H        0.924     0.059     2.212     2.326
    29   1 H        0.925     0.035     2.512     2.479
    30   1 H        0.925     0.050     2.315     2.379
    31   1 H        0.925     0.057     2.237     2.339
    32   1 H        0.925     0.027     2.627     2.534
    33   1 H        0.925     0.097     1.808     2.103
    34   1 H        0.924     0.085     1.932     2.174
    35   1 H        0.924     0.079     1.989     2.206
    36   1 H        0.924     0.050     2.319     2.381
    37   1 H        0.924     0.064     2.150     2.293
    38   1 H        0.924     0.027     2.629     2.536
    39   1 H        0.925     0.054     2.271     2.357
    40   1 H        0.925     0.058     2.217     2.329
    41   1 H        0.925     0.028     2.615     2.529

Wiberg/Mayer (AO) data.
largest (>0.10) Wiberg bond orders for each atom

     #   Z sym  total        # sym  WBO       # sym  WBO       # sym  WBO
 ---------------------------------------------------------------------------
     1   6 C    3.993 --     2 C    1.020    16 H    0.986    15 H    0.984
                            14 H    0.984
     2   6 C    3.994 --     1 C    1.020     3 C    1.006    18 H    0.973
                            17 H    0.970
     3   6 C    3.986 --     4 C    1.007     2 C    1.006    19 H    0.972
                            20 H    0.966
     4   6 C    3.930 --     3 C    1.007    21 H    0.964    22 H    0.961
                             5 N    0.937
     5   7 N    3.762 --     4 C    0.937    10 C    0.935     6 C    0.930
                            23 H    0.883
     6   6 C    3.929 --     7 C    1.009    25 H    0.967    24 H    0.963
                             5 N    0.930
     7   6 C    3.985 --     6 C    1.009     8 C    1.006    27 H    0.968
                            26 H    0.964
     8   6 C    3.993 --     9 C    1.021     7 C    1.006    28 H    0.974
                            29 H    0.974
     9   6 C    3.993 --     8 C    1.021    30 H    0.986    31 H    0.984
                            32 H    0.983
    10   6 C    3.928 --    11 C    1.007    34 H    0.966    33 H    0.959
                             5 N    0.935
    11   6 C    3.987 --    10 C    1.007    12 C    1.006    36 H    0.971
                            35 H    0.965
    12   6 C    3.994 --    13 C    1.020    11 C    1.006    37 H    0.972
                            38 H    0.963
    13   6 C    3.993 --    12 C    1.020    39 H    0.985    41 H    0.985
                            40 H    0.984
    14   1 H    0.999 --     1 C    0.984
    15   1 H    0.997 --     1 C    0.984
    16   1 H    0.997 --     1 C    0.986
    17   1 H    0.999 --     2 C    0.970
    18   1 H    0.996 --     2 C    0.973
    19   1 H    0.997 --     3 C    0.972
    20   1 H    0.994 --     3 C    0.966
    21   1 H    0.993 --     4 C    0.964
    22   1 H    0.992 --     4 C    0.961
    23   1 H    0.944 --     5 N    0.883
    24   1 H    0.993 --     6 C    0.963
    25   1 H    0.993 --     6 C    0.967
    26   1 H    0.994 --     7 C    0.964
    27   1 H    0.997 --     7 C    0.968
    28   1 H    0.996 --     8 C    0.974
    29   1 H    0.999 --     8 C    0.974
    30   1 H    0.997 --     9 C    0.986
    31   1 H    0.997 --     9 C    0.984
    32   1 H    0.999 --     9 C    0.983
    33   1 H    0.990 --    10 C    0.959
    34   1 H    0.993 --    10 C    0.966
    35   1 H    0.993 --    11 C    0.965
    36   1 H    0.997 --    11 C    0.971
    37   1 H    0.996 --    12 C    0.972
    38   1 H    0.999 --    12 C    0.963
    39   1 H    0.997 --    13 C    0.985
    40   1 H    0.997 --    13 C    0.984
    41   1 H    0.999 --    13 C    0.985
 ---------------------------------------------------------------------------

molecular dipole:
                 x           y           z       tot (Debye)
 q only:       -1.270       2.616       4.806
   full:       -1.291       2.553       4.704      13.994

           -------------------------------------------------
          | TOTAL ENERGY              -42.512337756862 Eh   |
          | GRADIENT NORM               0.000279652481 Eh/α |
          | HOMO-LUMO GAP               8.739295043144 eV   |
           -------------------------------------------------

 * finished run on 2024/12/20 at 07:04:35.769
