   * xtb version 6.7.1 (edcfbbe) compiled by 'conda@3ef47c1a292c' on 2024-11-25

   ID    Z sym.   atoms
    1    8 O      1
    2    6 C      2-7, 9, 12-24
    3    7 N      8, 10, 11
    4    1 H      25-50

          program call               : xtb C0925.xyz --opt --namespace C0925 --charge +1
          :  Hamiltonian                  GFN2-xTB          :
 * total energy  :   -68.5646578 Eh     change       -0.3166178E-09 Eh
 * total energy  :   -68.5700768 Eh     change       -0.5419096E-02 Eh
 * total energy  :   -68.5712476 Eh     change       -0.1170752E-02 Eh
 * total energy  :   -68.5717054 Eh     change       -0.4577504E-03 Eh
 * total energy  :   -68.5721681 Eh     change       -0.4627062E-03 Eh
 * total energy  :   -68.5725171 Eh     change       -0.3490706E-03 Eh
 * total energy  :   -68.5729034 Eh     change       -0.3863138E-03 Eh
 * total energy  :   -68.5732434 Eh     change       -0.3399149E-03 Eh
 * total energy  :   -68.5735097 Eh     change       -0.2663676E-03 Eh
 * total energy  :   -68.5738263 Eh     change       -0.3165800E-03 Eh
 * total energy  :   -68.5817941 Eh     change       -0.7978418E-05 Eh
 * total energy  :   -68.5818095 Eh     change       -0.1534433E-04 Eh
 * total energy  :   -68.5818159 Eh     change       -0.6446624E-05 Eh
 * total energy  :   -68.5818277 Eh     change       -0.1174646E-04 Eh
 * total energy  :   -68.5818358 Eh     change       -0.8149550E-05 Eh
 * total energy  :   -68.5818442 Eh     change       -0.8448643E-05 Eh
 * total energy  :   -68.5818531 Eh     change       -0.8870338E-05 Eh
 * total energy  :   -68.5818593 Eh     change       -0.6152856E-05 Eh
 * total energy  :   -68.5818636 Eh     change       -0.4293462E-05 Eh
   *** GEOMETRY OPTIMIZATION CONVERGED AFTER 78 ITERATIONS ***

 final structure:
================
50
 xtb: 6.7.1 (edcfbbe)
O            0.28332775674386        0.49834294045618        2.32659558293621
C            0.28519238060516        1.15230434577039        1.08461517077910
C            0.57070151814711        2.65598890485047        1.18902359698002
C            1.96671046732557        3.00610092994890        1.71450705003799
C            3.13235438208633        2.51984247998629        0.84699532591450
C            3.18062127039760        3.12113876749590       -0.55897833240051
C            3.55432915059881        4.60628587039118       -0.59177328115995
N            4.93942472183242        4.82144692053190       -0.23063714798162
C            5.43783121097441        5.19013326637578        0.96106085247168
N            4.73156372485009        5.43061067605533        2.07135611433915
N            6.78058927865528        5.24703412320736        0.91184425870321
C            7.18037065100601        4.90069804457525       -0.37187014698584
C            6.01110572384599        4.62143174256530       -1.09495569840881
C            6.06018718507432        4.23787543448131       -2.42458627063878
C            7.31191917737348        4.14283673316506       -3.00582541692829
C            8.47275843828519        4.41988179231876       -2.28811857299854
C            8.43022752997716        4.80421310649751       -0.96003442674719
C            7.63279524567684        5.61974963815474        2.02567355617947
C            7.29369286840774        7.00147666738958        2.53354365805837
C            6.91201039778781        7.20057239402134        3.85555861790734
C            6.60377724855206        8.47363653170624        4.30758110981479
C            6.66373713579539        9.55070952532508        3.44003540593799
C            7.03695524889643        9.35612775451383        2.11956054889206
C            7.35119223846471        8.08737755301804        1.66700982996679
H            1.17450648906208        0.48853116491065        2.69073032664702
H            0.99014871821311        0.67319078952160        0.39063579216367
H           -0.72269252216985        1.01472754545786        0.68674643628178
H            0.40906685162260        3.10481284536044        0.20815471580189
H           -0.16264836664947        3.08539487060623        1.87400463352526
H            2.01134826789614        4.09293280220883        1.83203737575284
H            2.08452964339806        2.58031492434670        2.71379059274438
H            4.07257858272201        2.73037606531736        1.36489376372149
H            3.06680130374073        1.43644191944801        0.74285357546858
H            3.91173218782110        2.56906926175636       -1.15277507775372
H            2.21064848994953        3.00404895700548       -1.04057632481783
H            3.41981594148573        4.99594143796994       -1.60368550584946
H            2.91335934383969        5.18411057541798        0.07588764618494
H            3.72592703125703        5.42186495495852        2.03610325414677
H            5.17282095627381        5.93974491155579        2.82437400694429
H            5.16766677160852        4.02190465452706       -2.98813988990089
H            7.39077343942625        3.84660686126323       -4.03927345211782
H            9.42841464215902        4.33275606084700       -2.77944437303155
H            9.33619776528904        5.01678270674439       -0.41645672263411
H            7.52784152310827        4.87842743158501        2.82493736466986
H            8.66338535434560        5.59306999218466        1.66757120712230
H            6.88441462659701        6.36525168460815        4.54220709983929
H            6.32228017415042        8.62151007687773        5.33834301862997
H            6.42765988220820       10.54196948197851        3.79342569998433
H            7.09192397418817       10.19496761220075        1.44329047715134
H            7.65187397703507        7.93787426853836        0.63973297475623

          :  Hamiltonian                  GFN2-xTB          :
         :: total energy             -68.581863566284 Eh    ::
         :: gradient norm              0.000417310873 Eh/a0 ::
         :: HOMO-LUMO gap              2.917306276327 eV    ::
         :: SCC energy               -69.664783109340 Eh    ::
         :: -> dispersion             -0.051799505329 Eh    ::
         :: repulsion energy           1.082919543056 Eh    ::

    * Orbital Energies and Occupations

         #    Occupation            Energy/Eh            Energy/eV
      -------------------------------------------------------------
         1        2.0000           -0.8713255             -23.7100
       ...           ...                  ...                  ...
        51        2.0000           -0.5661928             -15.4069
        52        2.0000           -0.5593543             -15.2208
        53        2.0000           -0.5511008             -14.9962
        54        2.0000           -0.5449003             -14.8275
        55        2.0000           -0.5418204             -14.7437
        56        2.0000           -0.5368368             -14.6081
        57        2.0000           -0.5342782             -14.5384
        58        2.0000           -0.5278282             -14.3629
        59        2.0000           -0.5236561             -14.2494
        60        2.0000           -0.5219638             -14.2034
        61        2.0000           -0.5192617             -14.1298
        62        2.0000           -0.5171611             -14.0727
        63        2.0000           -0.4868331             -13.2474 (HOMO)
        64                         -0.3796241             -10.3301 (LUMO)
        65                         -0.3483438              -9.4789
        66                         -0.3450475              -9.3892
        67                         -0.3410649              -9.2808
        68                         -0.3342374              -9.0951
        69                         -0.2219371              -6.0392
        70                         -0.2166293              -5.8948
        71                         -0.1803264              -4.9069
        72                         -0.1357069              -3.6928
        73                         -0.1224462              -3.3319
        74                         -0.0649575              -1.7676
       ...                                ...                  ...
       122                          0.5589296              15.2092
      -------------------------------------------------------------
                  HL-Gap            0.1072090 Eh            2.9173 eV

     #   Z          covCN         q      C6AA      α(0)
     1   8 O        1.656    -0.434    21.512     6.261
     2   6 C        3.673     0.078    19.510     6.330
     3   6 C        3.799    -0.077    21.974     6.674
     4   6 C        3.799    -0.058    21.623     6.621
     5   6 C        3.800    -0.066    21.764     6.642
     6   6 C        3.801    -0.072    21.878     6.659
     7   6 C        3.739    -0.012    20.863     6.517
     8   7 N        2.817    -0.028    21.786     6.932
     9   6 C        2.997     0.196    23.822     8.006
    10   7 N        2.638    -0.250    26.512     7.647
    11   7 N        2.824    -0.029    21.811     6.936
    12   6 C        3.084     0.038    27.050     8.526
    13   6 C        3.094     0.037    27.065     8.527
    14   6 C        2.910    -0.037    28.927     8.819
    15   6 C        2.926    -0.024    28.594     8.769
    16   6 C        2.926    -0.023    28.578     8.767
    17   6 C        2.910    -0.037    28.913     8.817
    18   6 C        3.745    -0.018    20.974     6.533
    19   6 C        2.971    -0.008    28.214     8.713
    20   6 C        2.922    -0.046    29.136     8.852
    21   6 C        2.919    -0.024    28.615     8.772
    22   6 C        2.920    -0.022    28.554     8.763
    23   6 C        2.919    -0.023    28.571     8.765
    24   6 C        2.922    -0.037    28.921     8.819
    25   1 H        0.805     0.286     0.763     1.372
    26   1 H        0.923     0.018     2.768     2.602
    27   1 H        0.924     0.058     2.225     2.333
    28   1 H        0.924     0.035     2.511     2.478
    29   1 H        0.924     0.057     2.238     2.340
    30   1 H        0.924     0.016     2.794     2.614
    31   1 H        0.924     0.044     2.400     2.423
    32   1 H        0.924     0.026     2.646     2.544
    33   1 H        0.924     0.055     2.261     2.352
    34   1 H        0.924     0.054     2.271     2.357
    35   1 H        0.925     0.069     2.095     2.264
    36   1 H        0.924     0.078     1.998     2.210
    37   1 H        0.924     0.065     2.147     2.291
    38   1 H        0.860     0.215     1.031     1.591
    39   1 H        0.860     0.224     0.994     1.561
    40   1 H        0.926     0.064     2.150     2.293
    41   1 H        0.926     0.073     2.053     2.241
    42   1 H        0.926     0.073     2.050     2.239
    43   1 H        0.926     0.063     2.168     2.302
    44   1 H        0.924     0.070     2.085     2.258
    45   1 H        0.924     0.089     1.888     2.149
    46   1 H        0.925     0.039     2.466     2.456
    47   1 H        0.926     0.056     2.252     2.347
    48   1 H        0.926     0.058     2.219     2.330
    49   1 H        0.926     0.055     2.261     2.352
    50   1 H        0.926     0.037     2.486     2.465

Wiberg/Mayer (AO) data.
largest (>0.10) Wiberg bond orders for each atom

     #   Z sym  total        # sym  WBO       # sym  WBO       # sym  WBO
 ---------------------------------------------------------------------------
     1   8 O    1.969 --     2 C    1.007    25 H    0.902
     2   6 C    3.958 --     1 O    1.007     3 C    0.994    27 H    0.971
                            26 H    0.967
     3   6 C    3.995 --     4 C    1.007     2 C    0.994    29 H    0.975
                            28 H    0.973
     4   6 C    3.997 --     3 C    1.007     5 C    1.007    31 H    0.973
                            30 H    0.969
     5   6 C    3.995 --     6 C    1.008     4 C    1.007    32 H    0.976
                            33 H    0.971
     6   6 C    3.987 --     5 C    1.008     7 C    0.991    34 H    0.974
                            35 H    0.966
     7   6 C    3.948 --     6 C    0.991     8 N    0.970    36 H    0.963
                            37 H    0.961
     8   7 N    3.601 --     9 C    1.269    13 C    1.087     7 C    0.970
     9   6 C    3.972 --     8 N    1.269    10 N    1.268    11 N    1.263
    10   7 N    3.349 --     9 C    1.268    38 H    0.922    39 H    0.909
    11   7 N    3.597 --     9 C    1.263    12 C    1.091    18 C    0.963
    12   6 C    3.950 --    17 C    1.366    13 C    1.286    11 N    1.091
    13   6 C    3.950 --    14 C    1.367    12 C    1.286     8 N    1.087
    14   6 C    3.986 --    15 C    1.465    13 C    1.367    40 H    0.964
                            17 C    0.114
    15   6 C    3.982 --    14 C    1.465    16 C    1.407    41 H    0.967
    16   6 C    3.982 --    17 C    1.465    15 C    1.407    42 H    0.967
    17   6 C    3.986 --    16 C    1.465    12 C    1.366    43 H    0.962
                            14 C    0.114
    18   6 C    3.946 --    19 C    0.990    11 N    0.963    44 H    0.961
                            45 H    0.956
    19   6 C    3.982 --    20 C    1.409    24 C    1.409    18 C    0.990
                            22 C    0.109
    20   6 C    3.990 --    21 C    1.435    19 C    1.409    46 H    0.966
                            23 C    0.109
    21   6 C    3.990 --    22 C    1.444    20 C    1.435    47 H    0.969
                            24 C    0.112
    22   6 C    3.989 --    21 C    1.444    23 C    1.434    48 H    0.969
                            19 C    0.109
    23   6 C    3.990 --    24 C    1.449    22 C    1.434    49 H    0.969
                            20 C    0.109
    24   6 C    3.992 --    23 C    1.449    19 C    1.409    50 H    0.969
                            21 C    0.112
    25   1 H    0.918 --     1 O    0.902
    26   1 H    1.000 --     2 C    0.967
    27   1 H    0.997 --     2 C    0.971
    28   1 H    0.999 --     3 C    0.973
    29   1 H    0.997 --     3 C    0.975
    30   1 H    1.000 --     4 C    0.969
    31   1 H    0.998 --     4 C    0.973
    32   1 H    0.999 --     5 C    0.976
    33   1 H    0.997 --     5 C    0.971
    34   1 H    0.997 --     6 C    0.974
    35   1 H    0.994 --     6 C    0.966
    36   1 H    0.993 --     7 C    0.963
    37   1 H    0.995 --     7 C    0.961
    38   1 H    0.953 --    10 N    0.922
    39   1 H    0.949 --    10 N    0.909
    40   1 H    0.995 --    14 C    0.964
    41   1 H    0.994 --    15 C    0.967
    42   1 H    0.994 --    16 C    0.967
    43   1 H    0.995 --    17 C    0.962
    44   1 H    0.994 --    18 C    0.961
    45   1 H    0.991 --    18 C    0.956
    46   1 H    0.998 --    20 C    0.966
    47   1 H    0.997 --    21 C    0.969
    48   1 H    0.996 --    22 C    0.969
    49   1 H    0.997 --    23 C    0.969
    50   1 H    0.999 --    24 C    0.969
 ---------------------------------------------------------------------------

molecular dipole:
                 x           y           z       tot (Debye)
 q only:       10.868      10.242       1.119
   full:       11.024      10.468       1.203      38.761

           -------------------------------------------------
          | TOTAL ENERGY              -68.581863566284 Eh   |
          | GRADIENT NORM               0.000417310873 Eh/α |
          | HOMO-LUMO GAP               2.917306276327 eV   |
           -------------------------------------------------

 * finished run on 2024/12/20 at 07:04:32.188
