   * xtb version 6.7.1 (edcfbbe) compiled by 'conda@3ef47c1a292c' on 2024-11-25

   ID    Z sym.   atoms
    1    6 C      1, 3-10, 12-16, 18
    2    8 O      2, 17
    3    7 N      11
    4    1 H      19-36

          program call               : xtb C0926.xyz --opt --namespace C0926 --charge +1
          :  Hamiltonian                  GFN2-xTB          :
 * total energy  :   -51.9390984 Eh     change       -0.4163851E-09 Eh
 * total energy  :   -51.9441779 Eh     change       -0.5079538E-02 Eh
 * total energy  :   -51.9457793 Eh     change       -0.1601400E-02 Eh
 * total energy  :   -51.9464478 Eh     change       -0.6684858E-03 Eh
 * total energy  :   -51.9472453 Eh     change       -0.7974674E-03 Eh
 * total energy  :   -51.9478309 Eh     change       -0.5856456E-03 Eh
 * total energy  :   -51.9485163 Eh     change       -0.6854323E-03 Eh
 * total energy  :   -51.9490893 Eh     change       -0.5729705E-03 Eh
 * total energy  :   -51.9494801 Eh     change       -0.3908200E-03 Eh
 * total energy  :   -51.9497790 Eh     change       -0.2988267E-03 Eh
 * total energy  :   -51.9520744 Eh     change       -0.8079022E-05 Eh
 * total energy  :   -51.9520840 Eh     change       -0.9637495E-05 Eh
 * total energy  :   -51.9520936 Eh     change       -0.9557101E-05 Eh
 * total energy  :   -51.9521015 Eh     change       -0.7906726E-05 Eh
 * total energy  :   -51.9521078 Eh     change       -0.6282630E-05 Eh
 * total energy  :   -51.9521132 Eh     change       -0.5451505E-05 Eh
 * total energy  :   -51.9521186 Eh     change       -0.5360331E-05 Eh
 * total energy  :   -51.9521242 Eh     change       -0.5617839E-05 Eh
 * total energy  :   -51.9521270 Eh     change       -0.2776661E-05 Eh
   *** GEOMETRY OPTIMIZATION CONVERGED AFTER 44 ITERATIONS ***

 final structure:
================
36
 xtb: 6.7.1 (edcfbbe)
C            0.35037849330466        1.02618945128761       -0.33516561909774
O            1.46558940807795        0.87468601556772        0.51989232806411
C            1.41971622088118        1.44543778767632        1.75810887017692
C            0.45681823091997        2.35649777202832        2.18303414031111
C            0.53390091768771        2.91651345196925        3.44063761605356
C            1.56646165028439        2.58094941279528        4.31831173451113
C            2.52241717686599        1.66179177311208        3.90105978832738
C            2.45304206577944        1.08862477948804        2.63566106093027
C            3.50040468442772        0.11953472885464        2.17434477215889
C            4.51812723544809        0.81419052325205        1.24130706995405
N            5.12423009718115        1.90959020585774        1.96065098506734
C            4.46471555065413        3.07267757297799        2.04469519245204
C            4.91867494601814        4.09099130082375        2.86072361561366
C            6.07680412273861        3.90514118957923        3.60042755906813
C            6.75240622490218        2.69340168245724        3.49010214148910
C            6.24397041465184        1.71209730661269        2.66880088024793
O            1.55962695027645        3.20880565077975        5.51886970567230
C            2.50022561441960        2.82964576599309        6.49530821387788
H            0.22809100835168        2.06504152746616       -0.65444096822180
H           -0.56770378360829        0.67829775790606        0.14365455122613
H            0.56270961405274        0.40568695096552       -1.20374137599091
H           -0.36003069152589        2.63407411436429        1.53781679554851
H           -0.21029629741882        3.62112919849623        3.77315775344924
H            3.31972761005119        1.35654661081612        4.56221317993986
H            4.02213053408822       -0.31401638373532        3.02843484709764
H            3.03073234124185       -0.67883946659569        1.60030238158403
H            5.28513369346648        0.10673368479804        0.92565691189042
H            3.98749096365436        1.19088832933557        0.36615298723103
H            3.57739192738410        3.18532349939610        1.44203142660774
H            4.36605777045390        5.01505910596132        2.91252525907437
H            6.45145530002020        4.68481758244700        4.24457236670376
H            7.66109459610112        2.51134626158982        4.04094329204572
H            6.72876814187419        0.75228634116208        2.56623426208674
H            2.42570490646008        1.76459173281543        6.73307448386452
H            3.52410725229142        3.06512900436270        6.18202822737886
H            2.25445510854176        3.41247777735026        7.38063356359868

          :  Hamiltonian                  GFN2-xTB          :
         :: total energy             -51.952126993476 Eh    ::
         :: gradient norm              0.000150850562 Eh/a0 ::
         :: HOMO-LUMO gap              0.699954102681 eV    ::
         :: SCC energy               -52.732786331984 Eh    ::
         :: -> dispersion             -0.036361822445 Eh    ::
         :: repulsion energy           0.780659338508 Eh    ::

    * Orbital Energies and Occupations

         #    Occupation            Energy/Eh            Energy/eV
      -------------------------------------------------------------
         1        2.0000           -0.8703562             -23.6836
       ...           ...                  ...                  ...
        35        2.0000           -0.6058353             -16.4856
        36        2.0000           -0.6039418             -16.4341
        37        2.0000           -0.5919276             -16.1072
        38        2.0000           -0.5892636             -16.0347
        39        2.0000           -0.5807862             -15.8040
        40        2.0000           -0.5795084             -15.7692
        41        2.0000           -0.5689029             -15.4806
        42        2.0000           -0.5608224             -15.2608
        43        2.0000           -0.5573579             -15.1665
        44        2.0000           -0.5351473             -14.5621
        45        2.0000           -0.5292810             -14.4025
        46        2.0000           -0.5195614             -14.1380
        47        2.0000           -0.4750802             -12.9276 (HOMO)
        48        0.0000           -0.4493574             -12.2276 (LUMO)
        49                         -0.4193238             -11.4104
        50                         -0.3420653              -9.3081
        51                         -0.3198238              -8.7028
        52                         -0.2987994              -8.1307
        53                         -0.2055195              -5.5925
        54                         -0.1530018              -4.1634
        55                         -0.0860513              -2.3416
        56                         -0.0698927              -1.9019
        57                         -0.0655128              -1.7827
        58                         -0.0442555              -1.2043
       ...                                ...                  ...
        90                          0.5416307              14.7385
      -------------------------------------------------------------
                  HL-Gap            0.0257228 Eh            0.7000 eV

     #   Z          covCN         q      C6AA      α(0)
     1   6 C        3.642     0.027    20.459     6.503
     2   8 O        1.704    -0.275    18.569     5.818
     3   6 C        2.865     0.123    25.292     8.244
     4   6 C        2.915    -0.064    29.586     8.919
     5   6 C        2.922    -0.053    29.318     8.879
     6   6 C        2.861     0.137    25.016     8.198
     7   6 C        2.920    -0.084    30.112     8.999
     8   6 C        2.971    -0.025    28.625     8.776
     9   6 C        3.810    -0.069    21.815     6.648
    10   6 C        3.764    -0.037    21.268     6.573
    11   7 N        2.752     0.114    19.292     6.524
    12   6 C        2.894     0.032    27.273     8.562
    13   6 C        2.915    -0.011    28.297     8.723
    14   6 C        2.925     0.009    27.821     8.650
    15   6 C        2.915    -0.014    28.350     8.731
    16   6 C        2.891     0.030    27.327     8.571
    17   8 O        1.706    -0.255    18.230     5.765
    18   6 C        3.644     0.032    20.371     6.488
    19   1 H        0.924     0.048     2.346     2.395
    20   1 H        0.924     0.056     2.252     2.347
    21   1 H        0.925     0.073     2.050     2.239
    22   1 H        0.926     0.063     2.162     2.299
    23   1 H        0.926     0.074     2.042     2.234
    24   1 H        0.926     0.034     2.528     2.487
    25   1 H        0.924     0.060     2.204     2.322
    26   1 H        0.925     0.098     1.803     2.100
    27   1 H        0.925     0.091     1.871     2.139
    28   1 H        0.924     0.105     1.742     2.064
    29   1 H        0.926     0.108     1.718     2.050
    30   1 H        0.926     0.103     1.755     2.072
    31   1 H        0.926     0.102     1.769     2.080
    32   1 H        0.926     0.104     1.753     2.070
    33   1 H        0.926     0.105     1.736     2.061
    34   1 H        0.924     0.050     2.315     2.380
    35   1 H        0.924     0.030     2.589     2.516
    36   1 H        0.925     0.080     1.981     2.201

Wiberg/Mayer (AO) data.
largest (>0.10) Wiberg bond orders for each atom

     #   Z sym  total        # sym  WBO       # sym  WBO       # sym  WBO
 ---------------------------------------------------------------------------
     1   6 C    3.935 --    21 H    0.978    20 H    0.977    19 H    0.976
                             2 O    0.974
     2   8 O    2.221 --     3 C    1.063     1 C    0.974
     3   6 C    3.936 --     4 C    1.360     8 C    1.324     2 O    1.063
     4   6 C    3.988 --     5 C    1.469     3 C    1.360    22 H    0.963
     5   6 C    3.981 --     4 C    1.469     6 C    1.339    23 H    0.965
     6   6 C    3.941 --     7 C    1.369     5 C    1.339    17 O    1.078
     7   6 C    3.984 --     8 C    1.400     6 C    1.369    24 H    0.964
     8   6 C    3.984 --     7 C    1.400     3 C    1.324     9 C    1.022
     9   6 C    3.981 --     8 C    1.022    25 H    0.973    26 H    0.953
                            10 C    0.949
    10   6 C    3.935 --    11 N    0.976    27 H    0.964    28 H    0.959
                             9 C    0.949
    11   7 N    3.765 --    12 C    1.314    16 C    1.313    10 C    0.976
    12   6 C    3.958 --    13 C    1.448    11 N    1.314    29 H    0.953
    13   6 C    3.983 --    12 C    1.448    14 C    1.436    30 H    0.960
    14   6 C    3.965 --    13 C    1.436    15 C    1.405    31 H    0.962
    15   6 C    3.980 --    16 C    1.477    14 C    1.405    32 H    0.960
    16   6 C    3.956 --    15 C    1.477    11 N    1.313    33 H    0.955
    17   8 O    2.245 --     6 C    1.078    18 C    0.981
    18   6 C    3.940 --    17 O    0.981    36 H    0.977    35 H    0.977
                            34 H    0.976
    19   1 H    0.997 --     1 C    0.976
    20   1 H    0.996 --     1 C    0.977
    21   1 H    0.994 --     1 C    0.978
    22   1 H    0.995 --     4 C    0.963
    23   1 H    0.994 --     5 C    0.965
    24   1 H    0.998 --     7 C    0.964
    25   1 H    0.996 --     9 C    0.973
    26   1 H    0.988 --     9 C    0.953
    27   1 H    0.991 --    10 C    0.964
    28   1 H    0.989 --    10 C    0.959
    29   1 H    0.988 --    12 C    0.953
    30   1 H    0.989 --    13 C    0.960
    31   1 H    0.990 --    14 C    0.962
    32   1 H    0.989 --    15 C    0.960
    33   1 H    0.989 --    16 C    0.955
    34   1 H    0.997 --    18 C    0.976
    35   1 H    0.999 --    18 C    0.977
    36   1 H    0.993 --    18 C    0.977
 ---------------------------------------------------------------------------

molecular dipole:
                 x           y           z       tot (Debye)
 q only:        8.870       4.205       4.599
   full:        8.875       4.146       4.590      27.496

           -------------------------------------------------
          | TOTAL ENERGY              -51.952126993476 Eh   |
          | GRADIENT NORM               0.000150850562 Eh/α |
          | HOMO-LUMO GAP               0.699954102681 eV   |
           -------------------------------------------------

 * finished run on 2024/12/20 at 07:04:34.130
