   * xtb version 6.7.1 (edcfbbe) compiled by 'conda@3ef47c1a292c' on 2024-11-25

   ID    Z sym.   atoms
    1    9 F      1, 3, 4, 6, 7, 9, 10, 12, 13, 15, 16, 18, 19, 21, 22, 24, 25
    2    6 C      2, 5, 8, 11, 14, 17, 20, 23, 26, 27, 29-36, 38, 39
    3    7 N      28, 37
    4    1 H      40-51

          program call               : xtb C0923.xyz --opt --namespace C0923 --charge +1
          :  Hamiltonian                  GFN2-xTB          :
 * total energy  :  -134.7470070 Eh     change       -0.2216325E-09 Eh
 * total energy  :  -134.7599073 Eh     change       -0.1290026E-01 Eh
 * total energy  :  -134.7648554 Eh     change       -0.4948057E-02 Eh
 * total energy  :  -134.7660997 Eh     change       -0.1244294E-02 Eh
 * total energy  :  -134.7667455 Eh     change       -0.6457971E-03 Eh
 * total energy  :  -134.7670286 Eh     change       -0.2831113E-03 Eh
 * total energy  :  -134.7673419 Eh     change       -0.3133141E-03 Eh
 * total energy  :  -134.7677183 Eh     change       -0.3764212E-03 Eh
 * total energy  :  -134.7681041 Eh     change       -0.3858249E-03 Eh
 * total energy  :  -134.7683976 Eh     change       -0.2935054E-03 Eh
 * total energy  :  -134.7717016 Eh     change       -0.2555794E-04 Eh
 * total energy  :  -134.7717143 Eh     change       -0.1271827E-04 Eh
 * total energy  :  -134.7717281 Eh     change       -0.1378850E-04 Eh
 * total energy  :  -134.7717340 Eh     change       -0.5885369E-05 Eh
 * total energy  :  -134.7717428 Eh     change       -0.8797010E-05 Eh
 * total energy  :  -134.7717482 Eh     change       -0.5432989E-05 Eh
 * total energy  :  -134.7717553 Eh     change       -0.7057793E-05 Eh
 * total energy  :  -134.7717614 Eh     change       -0.6122707E-05 Eh
 * total energy  :  -134.7717655 Eh     change       -0.4104209E-05 Eh
   *** GEOMETRY OPTIMIZATION CONVERGED AFTER 101 ITERATIONS ***

 final structure:
================
51
 xtb: 6.7.1 (edcfbbe)
F           -0.25155470018677       -0.20832676639602       -0.76688088063330
C            0.97295618659722       -0.68937562872526       -0.64961117538308
F            1.57030310484648       -0.08052805126174        0.36965008102295
F            0.89789283975065       -1.98445673076125       -0.37777336668824
C            1.77259262204139       -0.45719307656302       -1.97508173376549
F            1.28850794807715       -1.27144292505372       -2.92218030753589
F            1.58581693151933        0.80495626452279       -2.38856350950102
C            3.30528592898062       -0.68922097455930       -1.77861335507330
F            3.82016811455715        0.38422272460599       -1.15773186157788
F            3.52307552192797       -1.74606739608957       -0.98182416018466
C            4.04248410056967       -0.93604664127463       -3.13719398349911
F            3.70520297434648       -2.15285071107375       -3.58412060919997
F            3.64985220460489       -0.03583115575410       -4.04775784900623
C            5.59609136805385       -0.86880966980093       -2.99269521388189
F            5.97008124802827        0.32945187991819       -2.50465087830051
F            6.00805372326466       -1.79348924429727       -2.11304591445455
C            6.34041707234377       -1.05818405964846       -4.35859744972765
F            5.81231292848315       -2.05416252186952       -5.07277085917397
F            6.20412225276178        0.07319115405679       -5.06620800248316
C            7.85518635724938       -1.36633383157820       -4.12922114458643
F            8.31871140096814       -0.65671783781434       -3.06920025602965
F            7.99281828823942       -2.65826602567672       -3.79584841134423
C            8.77241267754763       -1.04368426464581       -5.35466872913576
F            8.21071195759606       -1.56704935743874       -6.45484894771388
F            8.76888667245401        0.30247259437028       -5.52249147466948
C           10.21158240774649       -1.56447419822899       -5.18416128832658
C           11.22639816271040       -0.48464585391668       -4.78118823917254
N           10.96551348081729        0.07279538115911       -3.46249584257083
C           11.19608301402284       -0.67770578501516       -2.37121228402859
C           10.88094853511320       -0.23051516716425       -1.11465224171485
C           10.28922257935875        1.03090242473228       -0.94457850138578
C           10.09709045578778        1.80144969099798       -2.10021506456012
C           10.44545403267607        1.30308614388777       -3.33016812087017
C            9.88807431894479        1.51745610743132        0.36893952615533
C            8.72067254323018        2.27213367585094        0.52184520615064
C            8.37824988801992        2.70375838313840        1.79511819513877
N            9.10807757105333        2.45146183634305        2.86486355642771
C           10.21248352968268        1.74247785021038        2.72787240610174
C           10.64790414801797        1.24183008518428        1.50977048135074
H           10.21165524047898       -2.39363796521320       -4.47478576254728
H           10.51368691043761       -1.95960227091049       -6.15744371609126
H           12.21912072434383       -0.94243984769884       -4.78433130738211
H           11.21505058498974        0.32463703679605       -5.51421712742597
H           11.63573936037500       -1.65189200929760       -2.52676611034880
H           11.06297481590012       -0.86792850167339       -0.26410766016614
H            9.68319025448340        2.79459701301673       -2.03184238497461
H           10.29608709431229        1.88066371816756       -4.23003633264630
H            8.07613975407746        2.47586674097626       -0.31845853638659
H            7.48047609552111        3.28203505637298        1.96276321396724
H           10.77367028644980        1.56570982967412        3.63473534449963
H           11.57388448685247        0.69276287796859        1.44396258331325

          :  Hamiltonian                  GFN2-xTB          :
         :: total energy            -134.771765498526 Eh    ::
         :: gradient norm              0.000344194660 Eh/a0 ::
         :: HOMO-LUMO gap              0.506895079422 eV    ::
         :: SCC energy              -135.676921530576 Eh    ::
         :: -> dispersion             -0.055515075937 Eh    ::
         :: repulsion energy           0.905156032050 Eh    ::

    * Orbital Energies and Occupations

         #    Occupation            Energy/Eh            Energy/eV
      -------------------------------------------------------------
         1        2.0000           -1.0425883             -28.3703
       ...           ...                  ...                  ...
        98        2.0000           -0.6293141             -17.1245
        99        2.0000           -0.6282580             -17.0958
       100        2.0000           -0.6222453             -16.9322
       101        2.0000           -0.6185395             -16.8313
       102        2.0000           -0.6161302             -16.7658
       103        2.0000           -0.6153918             -16.7457
       104        2.0000           -0.6081579             -16.5488
       105        2.0000           -0.6030288             -16.4092
       106        2.0000           -0.5966589             -16.2359
       107        2.0000           -0.5626250             -15.3098
       108        2.0000           -0.5580384             -15.1850
       109        2.0000           -0.5425837             -14.7645
       110        1.9999           -0.4831281             -13.1466 (HOMO)
       111        0.0001           -0.4645001             -12.6397 (LUMO)
       112                         -0.4266546             -11.6099
       113                         -0.3749513             -10.2029
       114                         -0.3613541              -9.8329
       115                         -0.3026289              -8.2350
       116                         -0.2724164              -7.4128
       117                         -0.2305836              -6.2745
       118                         -0.2289585              -6.2303
       119                         -0.2049426              -5.5768
       120                         -0.1994924              -5.4285
       121                         -0.1919728              -5.2238
       ...                                ...                  ...
       168                          0.5030790              13.6895
      -------------------------------------------------------------
                  HL-Gap            0.0186281 Eh            0.5069 eV

     #   Z          covCN         q      C6AA      α(0)
     1   9 F        0.791    -0.144    10.674     3.859
     2   6 C        3.326     0.492    17.341     6.616
     3   9 F        0.791    -0.165    10.876     3.896
     4   9 F        0.791    -0.156    10.793     3.881
     5   6 C        3.515     0.315    16.992     6.086
     6   9 F        0.788    -0.161    10.840     3.889
     7   9 F        0.789    -0.158    10.815     3.885
     8   6 C        3.515     0.321    16.921     6.073
     9   9 F        0.789    -0.167    10.900     3.900
    10   9 F        0.789    -0.167    10.902     3.900
    11   6 C        3.515     0.326    16.862     6.063
    12   9 F        0.789    -0.158    10.812     3.884
    13   9 F        0.788    -0.163    10.856     3.892
    14   6 C        3.516     0.323    16.893     6.068
    15   9 F        0.789    -0.174    10.969     3.912
    16   9 F        0.788    -0.170    10.926     3.905
    17   6 C        3.515     0.328    16.836     6.059
    18   9 F        0.789    -0.155    10.785     3.879
    19   9 F        0.789    -0.164    10.874     3.895
    20   6 C        3.516     0.316    16.982     6.082
    21   9 F        0.788    -0.209    11.325     3.975
    22   9 F        0.789    -0.175    10.977     3.914
    23   6 C        3.516     0.324    16.874     6.064
    24   9 F        0.789    -0.179    11.021     3.921
    25   9 F        0.788    -0.202    11.254     3.963
    26   6 C        3.801    -0.092    22.262     6.718
    27   6 C        3.755    -0.034    21.228     6.570
    28   7 N        2.748     0.090    19.692     6.591
    29   6 C        2.887     0.029    27.353     8.574
    30   6 C        2.919    -0.019    28.488     8.753
    31   6 C        2.980     0.064    26.565     8.454
    32   6 C        2.920    -0.019    28.487     8.752
    33   6 C        2.884     0.031    27.296     8.565
    34   6 C        2.985     0.024    27.455     8.595
    35   6 C        2.917    -0.033    28.827     8.804
    36   6 C        2.908     0.068    26.488     8.439
    37   7 N        1.837    -0.170    25.472     7.479
    38   6 C        2.908     0.067    26.503     8.442
    39   6 C        2.916    -0.033    28.832     8.805
    40   1 H        0.924     0.097     1.809     2.103
    41   1 H        0.924     0.128     1.551     1.948
    42   1 H        0.924     0.112     1.683     2.029
    43   1 H        0.924     0.114     1.661     2.015
    44   1 H        0.926     0.104     1.751     2.070
    45   1 H        0.926     0.106     1.730     2.057
    46   1 H        0.926     0.108     1.712     2.046
    47   1 H        0.926     0.115     1.656     2.013
    48   1 H        0.926     0.058     2.217     2.329
    49   1 H        0.926     0.077     2.007     2.215
    50   1 H        0.926     0.076     2.018     2.221
    51   1 H        0.926     0.055     2.254     2.348

Wiberg/Mayer (AO) data.
largest (>0.10) Wiberg bond orders for each atom

     #   Z sym  total        # sym  WBO       # sym  WBO       # sym  WBO
 ---------------------------------------------------------------------------
     1   9 F    1.131 --     2 C    0.990
     2   6 C    3.885 --     1 F    0.990     4 F    0.981     3 F    0.973
                             5 C    0.883
     3   9 F    1.108 --     2 C    0.973
     4   9 F    1.118 --     2 C    0.981
     5   6 C    3.895 --     6 F    0.984     7 F    0.984     8 C    0.904
                             2 C    0.883
     6   9 F    1.102 --     5 C    0.984
     7   9 F    1.102 --     5 C    0.984
     8   6 C    3.891 --    10 F    0.980     9 F    0.979     5 C    0.904
                            11 C    0.902
     9   9 F    1.096 --     8 C    0.979
    10   9 F    1.097 --     8 C    0.980
    11   6 C    3.895 --    12 F    0.985    13 F    0.983    14 C    0.905
                             8 C    0.902
    12   9 F    1.105 --    11 C    0.985
    13   9 F    1.102 --    11 C    0.983
    14   6 C    3.887 --    16 F    0.980    15 F    0.974    11 C    0.905
                            17 C    0.901
    15   9 F    1.088 --    14 C    0.974
    16   9 F    1.096 --    14 C    0.980
    17   6 C    3.895 --    18 F    0.990    19 F    0.980    20 C    0.906
                            14 C    0.901
    18   9 F    1.111 --    17 C    0.990
    19   9 F    1.099 --    17 C    0.980
    20   6 C    3.868 --    22 F    0.980    21 F    0.950    17 C    0.906
                            23 C    0.906
    21   9 F    1.057 --    20 C    0.950
    22   9 F    1.094 --    20 C    0.980
    23   6 C    3.866 --    24 F    0.976    26 C    0.958    25 F    0.951
                            20 C    0.906
    24   9 F    1.091 --    23 C    0.976
    25   9 F    1.065 --    23 C    0.951
    26   6 C    3.969 --    27 C    0.996    40 H    0.965    23 C    0.958
                            41 H    0.955
    27   6 C    3.945 --    26 C    0.996    28 N    0.973    43 H    0.961
                            42 H    0.956
    28   7 N    3.734 --    33 C    1.300    29 C    1.289    27 C    0.973
    29   6 C    3.954 --    30 C    1.512    28 N    1.289    44 H    0.955
    30   6 C    3.982 --    29 C    1.512    31 C    1.333    45 H    0.956
    31   6 C    3.969 --    32 C    1.342    30 C    1.333    34 C    1.087
    32   6 C    3.981 --    33 C    1.498    31 C    1.342    46 H    0.956
    33   6 C    3.950 --    32 C    1.498    28 N    1.300    47 H    0.952
    34   6 C    3.986 --    39 C    1.367    35 C    1.366    31 C    1.087
    35   6 C    3.986 --    36 C    1.427    34 C    1.366    48 H    0.966
                            38 C    0.114
    36   6 C    3.974 --    37 N    1.443    35 C    1.427    49 H    0.958
                            39 C    0.114
    37   7 N    3.069 --    36 C    1.443    38 C    1.441
    38   6 C    3.974 --    37 N    1.441    39 C    1.429    50 H    0.959
                            35 C    0.114
    39   6 C    3.987 --    38 C    1.429    34 C    1.367    51 H    0.966
                            36 C    0.114
    40   1 H    0.990 --    26 C    0.965
    41   1 H    0.982 --    26 C    0.955
    42   1 H    0.986 --    27 C    0.956
    43   1 H    0.986 --    27 C    0.961
    44   1 H    0.989 --    29 C    0.955
    45   1 H    0.988 --    30 C    0.956
    46   1 H    0.988 --    32 C    0.956
    47   1 H    0.986 --    33 C    0.952
    48   1 H    0.997 --    35 C    0.966
    49   1 H    0.993 --    36 C    0.958
    50   1 H    0.993 --    38 C    0.959
    51   1 H    0.997 --    39 C    0.966
 ---------------------------------------------------------------------------

molecular dipole:
                 x           y           z       tot (Debye)
 q only:       20.815       0.493      -4.562
   full:       20.922       0.230      -5.057      54.714

           -------------------------------------------------
          | TOTAL ENERGY             -134.771765498526 Eh   |
          | GRADIENT NORM               0.000344194660 Eh/α |
          | HOMO-LUMO GAP               0.506895079422 eV   |
           -------------------------------------------------

 * finished run on 2024/12/20 at 07:04:28.199
