   * xtb version 6.7.1 (edcfbbe) compiled by 'conda@3ef47c1a292c' on 2024-11-25

   ID    Z sym.   atoms
    1    6 C      1-3, 5-16
    2    7 N      4
    3    1 H      17-34

          program call               : xtb C0921.xyz --opt --namespace C0921 --charge +1
          :  Hamiltonian                  GFN2-xTB          :
 * total energy  :   -43.6510038 Eh     change       -0.1636039E-08 Eh
 * total energy  :   -43.6600300 Eh     change       -0.9026210E-02 Eh
 * total energy  :   -43.6627139 Eh     change       -0.2683923E-02 Eh
 * total energy  :   -43.6630523 Eh     change       -0.3384520E-03 Eh
 * total energy  :   -43.6633313 Eh     change       -0.2789950E-03 Eh
 * total energy  :   -43.6635937 Eh     change       -0.2624109E-03 Eh
 * total energy  :   -43.6637615 Eh     change       -0.1677160E-03 Eh
 * total energy  :   -43.6639268 Eh     change       -0.1653614E-03 Eh
 * total energy  :   -43.6640636 Eh     change       -0.1367737E-03 Eh
 * total energy  :   -43.6641817 Eh     change       -0.1181528E-03 Eh
 * total energy  :   -43.6652090 Eh     change       -0.5459246E-04 Eh
 * total energy  :   -43.6652416 Eh     change       -0.3257922E-04 Eh
 * total energy  :   -43.6652819 Eh     change       -0.4037250E-04 Eh
 * total energy  :   -43.6653233 Eh     change       -0.4135831E-04 Eh
 * total energy  :   -43.6653445 Eh     change       -0.2119566E-04 Eh
 * total energy  :   -43.6653519 Eh     change       -0.7395089E-05 Eh
 * total energy  :   -43.6653593 Eh     change       -0.7361746E-05 Eh
 * total energy  :   -43.6653656 Eh     change       -0.6330732E-05 Eh
 * total energy  :   -43.6653701 Eh     change       -0.4557114E-05 Eh
   *** GEOMETRY OPTIMIZATION CONVERGED AFTER 36 ITERATIONS ***

 final structure:
================
34
 xtb: 6.7.1 (edcfbbe)
C            0.55394317562875        0.40084056287019        0.10653632975978
C            0.21687017998439       -0.79054301993062       -0.35083356111429
C           -1.19082386187758       -1.16147125998102       -0.71242295201296
N           -1.29310132543605       -1.74481966068507       -2.08861538490347
C           -0.37947902304920       -2.91427836981974       -2.19412941796107
C            0.62115305989572       -2.99792451287811       -3.15082599301106
C            1.44058885455021       -4.11694969015861       -3.20085017480281
C            1.27537715448638       -5.15570983928186       -2.30442971705853
C            0.27827201965980       -5.07221171021463       -1.34707205458831
C           -0.54439825553892       -3.96174553325163       -1.29128256788128
C           -2.68802994273447       -2.23204272896259       -2.35266118111546
C           -3.73349560437174       -1.37669195727736       -1.82753470536864
C           -4.63771014221060       -0.73540406039784       -1.37597116936311
C           -0.94008196253080       -0.67114615304517       -3.06988843420152
C           -1.83900948132851        0.53029244337358       -3.03137989846740
C           -1.40814590920661        1.73321728330324       -2.69718130441198
H           -0.16801108836301        1.19128295034400        0.22849206949640
H            1.56347432979109        0.62498701839437        0.40144062117890
H            0.95297146032139       -1.57780772438719       -0.44167700129710
H           -1.57336521153250       -1.89295003523618        0.00295683699360
H           -1.83381113871688       -0.27973834768633       -0.67756332160470
H            0.80150089274567       -2.21762446006230       -3.86958208121366
H            2.21261685491651       -4.16396795456055       -3.95226143278612
H            1.91645101049220       -6.02105536128137       -2.34830520754422
H            0.13538635682949       -5.87081276892088       -0.63679748751397
H           -1.30517246623538       -3.93304828650815       -0.52571237426019
H           -2.80791886687125       -2.34255666411908       -3.43489962277597
H           -2.80647650336516       -3.22052278486441       -1.90077396296613
H           -5.43272838867898       -0.16087304433962       -1.00056266401649
H            0.08254811824245       -0.35558716520447       -2.85088409974261
H           -0.98776734388769       -1.10554886079858       -4.07207051229808
H           -2.85770562442036        0.38371576627666       -3.35779439762109
H           -2.05601345099861        2.59078783405431       -2.73107000951781
H           -0.39023787619001        1.91412809523523       -2.39168316600125

          :  Hamiltonian                  GFN2-xTB          :
         :: total energy             -43.665370146558 Eh    ::
         :: gradient norm              0.000653282550 Eh/a0 ::
         :: HOMO-LUMO gap              4.617659770956 eV    ::
         :: SCC energy               -44.501790902269 Eh    ::
         :: -> dispersion             -0.035008958326 Eh    ::
         :: repulsion energy           0.836420755711 Eh    ::

    * Orbital Energies and Occupations

         #    Occupation            Energy/Eh            Energy/eV
      -------------------------------------------------------------
         1        2.0000           -0.8490143             -23.1029
       ...           ...                  ...                  ...
        29        2.0000           -0.6155941             -16.7512
        30        2.0000           -0.6032640             -16.4156
        31        2.0000           -0.6026286             -16.3984
        32        2.0000           -0.5766445             -15.6913
        33        2.0000           -0.5730713             -15.5941
        34        2.0000           -0.5700104             -15.5108
        35        2.0000           -0.5652706             -15.3818
        36        2.0000           -0.5637521             -15.3405
        37        2.0000           -0.5573110             -15.1652
        38        2.0000           -0.5533155             -15.0565
        39        2.0000           -0.5506398             -14.9837
        40        2.0000           -0.5498098             -14.9611
        41        2.0000           -0.5462388             -14.8639 (HOMO)
        42                         -0.3765430             -10.2463 (LUMO)
        43                         -0.3692192             -10.0470
        44                         -0.3568806              -9.7112
        45                         -0.3501496              -9.5281
        46                         -0.3142716              -8.5518
        47                         -0.2958716              -8.0511
        48                         -0.2416304              -6.5751
        49                         -0.2093754              -5.6974
        50                         -0.1532084              -4.1690
        51                         -0.1332068              -3.6247
        52                         -0.1241085              -3.3772
       ...                                ...                  ...
        82                          1.2843184              34.9481
      -------------------------------------------------------------
                  HL-Gap            0.1696959 Eh            4.6177 eV

     #   Z          covCN         q      C6AA      α(0)
     1   6 C        2.838    -0.079    29.977     8.973
     2   6 C        2.884    -0.042    29.049     8.836
     3   6 C        3.764    -0.026    21.080     6.544
     4   7 N        3.623     0.105    19.434     6.547
     5   6 C        2.927     0.034    27.251     8.561
     6   6 C        2.920    -0.040    28.993     8.830
     7   6 C        2.922    -0.017    28.438     8.745
     8   6 C        2.918    -0.015    28.397     8.739
     9   6 C        2.921    -0.017    28.442     8.746
    10   6 C        2.922    -0.038    28.953     8.824
    11   6 C        3.760    -0.009    20.792     6.500
    12   6 C        1.962    -0.028    31.814     9.109
    13   6 C        1.909    -0.074    33.113     9.293
    14   6 C        3.762    -0.026    21.078     6.545
    15   6 C        2.884    -0.044    29.102     8.844
    16   6 C        2.838    -0.079    29.974     8.972
    17   1 H        0.926     0.066     2.129     2.281
    18   1 H        0.926     0.078     2.000     2.211
    19   1 H        0.925     0.055     2.263     2.352
    20   1 H        0.924     0.085     1.930     2.173
    21   1 H        0.924     0.090     1.876     2.142
    22   1 H        0.926     0.059     2.206     2.322
    23   1 H        0.926     0.072     2.064     2.247
    24   1 H        0.926     0.075     2.035     2.231
    25   1 H        0.926     0.071     2.071     2.251
    26   1 H        0.926     0.052     2.289     2.366
    27   1 H        0.924     0.097     1.817     2.108
    28   1 H        0.924     0.100     1.789     2.092
    29   1 H        0.928     0.123     1.586     1.969
    30   1 H        0.924     0.086     1.914     2.164
    31   1 H        0.924     0.081     1.969     2.194
    32   1 H        0.926     0.064     2.149     2.292
    33   1 H        0.926     0.078     1.998     2.210
    34   1 H        0.926     0.065     2.140     2.287

Wiberg/Mayer (AO) data.
largest (>0.10) Wiberg bond orders for each atom

     #   Z sym  total        # sym  WBO       # sym  WBO       # sym  WBO
 ---------------------------------------------------------------------------
     1   6 C    3.984 --     2 C    1.981    18 H    0.972    17 H    0.971
     2   6 C    3.984 --     1 C    1.981     3 C    1.017    19 H    0.961
     3   6 C    3.933 --     2 C    1.017    21 H    0.957    20 H    0.952
                             4 N    0.918
     4   7 N    3.797 --    14 C    0.926     3 C    0.918    11 C    0.917
                             5 C    0.914
     5   6 C    3.928 --     6 C    1.427    10 C    1.402     4 N    0.914
                             8 C    0.108
     6   6 C    3.988 --     5 C    1.427     7 C    1.425    22 H    0.961
                             9 C    0.108
     7   6 C    3.987 --     8 C    1.449     6 C    1.425    23 H    0.967
                            10 C    0.112
     8   6 C    3.986 --     7 C    1.449     9 C    1.430    24 H    0.966
                             5 C    0.108
     9   6 C    3.987 --    10 C    1.448     8 C    1.430    25 H    0.967
                             6 C    0.108
    10   6 C    3.989 --     9 C    1.448     5 C    1.402    26 H    0.959
                             7 C    0.112
    11   6 C    3.943 --    12 C    1.049    27 H    0.948    28 H    0.942
                             4 N    0.917
    12   6 C    3.977 --    13 C    2.891    11 C    1.049
    13   6 C    3.963 --    12 C    2.891    29 H    0.962
    14   6 C    3.937 --    15 C    1.016    30 H    0.961    31 H    0.956
                             4 N    0.926
    15   6 C    3.982 --    16 C    1.978    14 C    1.016    32 H    0.959
    16   6 C    3.983 --    15 C    1.978    33 H    0.972    34 H    0.971
    17   1 H    0.995 --     1 C    0.971
    18   1 H    0.993 --     1 C    0.972
    19   1 H    0.997 --     2 C    0.961
    20   1 H    0.993 --     3 C    0.952
    21   1 H    0.991 --     3 C    0.957
    22   1 H    0.996 --     6 C    0.961
    23   1 H    0.994 --     7 C    0.967
    24   1 H    0.993 --     8 C    0.966
    25   1 H    0.994 --     9 C    0.967
    26   1 H    0.997 --    10 C    0.959
    27   1 H    0.990 --    11 C    0.948
    28   1 H    0.990 --    11 C    0.942
    29   1 H    0.984 --    13 C    0.962
    30   1 H    0.993 --    14 C    0.961
    31   1 H    0.993 --    14 C    0.956
    32   1 H    0.996 --    15 C    0.959
    33   1 H    0.993 --    16 C    0.972
    34   1 H    0.996 --    16 C    0.971
 ---------------------------------------------------------------------------

molecular dipole:
                 x           y           z       tot (Debye)
 q only:       -1.973      -3.316      -3.748
   full:       -2.026      -3.412      -3.793      13.952

           -------------------------------------------------
          | TOTAL ENERGY              -43.665370146558 Eh   |
          | GRADIENT NORM               0.000653282550 Eh/α |
          | HOMO-LUMO GAP               4.617659770956 eV   |
           -------------------------------------------------

 * finished run on 2024/12/20 at 07:04:22.381
