   * xtb version 6.7.1 (edcfbbe) compiled by 'conda@3ef47c1a292c' on 2024-11-25

   ID    Z sym.   atoms
    1    6 C      1-12, 14, 17-29
    2    7 N      13, 15, 16
    3   17 Cl     30, 31
    4    1 H      32-67

          program call               : xtb C0929.xyz --opt --namespace C0929 --charge +1
          :  Hamiltonian                  GFN2-xTB          :
 * total energy  :   -91.5928875 Eh     change       -0.3398952E-08 Eh
 * total energy  :   -91.5982782 Eh     change       -0.5390670E-02 Eh
 * total energy  :   -91.5991435 Eh     change       -0.8653746E-03 Eh
 * total energy  :   -91.5994006 Eh     change       -0.2570963E-03 Eh
 * total energy  :   -91.5996875 Eh     change       -0.2869117E-03 Eh
 * total energy  :   -91.5998927 Eh     change       -0.2051397E-03 Eh
 * total energy  :   -91.6001278 Eh     change       -0.2350736E-03 Eh
 * total energy  :   -91.6003514 Eh     change       -0.2236195E-03 Eh
 * total energy  :   -91.6005629 Eh     change       -0.2114863E-03 Eh
 * total energy  :   -91.6007845 Eh     change       -0.2216073E-03 Eh
 * total energy  :   -91.6045664 Eh     change       -0.1142537E-04 Eh
 * total energy  :   -91.6045782 Eh     change       -0.1182041E-04 Eh
 * total energy  :   -91.6045915 Eh     change       -0.1333414E-04 Eh
 * total energy  :   -91.6046060 Eh     change       -0.1450153E-04 Eh
 * total energy  :   -91.6046208 Eh     change       -0.1478894E-04 Eh
 * total energy  :   -91.6046355 Eh     change       -0.1469496E-04 Eh
 * total energy  :   -91.6046514 Eh     change       -0.1586656E-04 Eh
 * total energy  :   -91.6046699 Eh     change       -0.1856824E-04 Eh
 * total energy  :   -91.6046747 Eh     change       -0.4793279E-05 Eh
   *** GEOMETRY OPTIMIZATION CONVERGED AFTER 68 ITERATIONS ***

 final structure:
================
67
 xtb: 6.7.1 (edcfbbe)
C            1.25781876987543        0.75771311741760        0.87937258682796
C            1.06997946592456        2.17826510595947        0.36033602122731
C            1.38350122165778        2.32392654894401       -1.12955969069587
C            0.48842737777121        1.50500110339643       -2.06192374608217
C           -1.00468920808318        1.82800041151529       -1.97686975279406
C           -1.37321172211079        3.27943385763530       -2.29229887260389
C           -0.93073155225023        3.77628506499459       -3.67053992315154
C           -1.44133076355300        2.95013126318155       -4.85269724139130
C           -2.96437429091953        2.87739269271454       -4.98588232628117
C           -3.64502030387084        4.21058272863660       -5.30667651804496
C           -3.35062265461015        4.74228659705441       -6.71182608626445
C           -4.04618290481832        3.94661982884883       -7.82245282060726
N           -5.47202400368021        4.19961102839488       -7.86731878078767
C           -6.05878691583428        5.25491203136973       -8.45413011167838
N           -5.42003529983808        6.20789767643629       -9.14241378329123
N           -7.39448159981727        5.19399768645168       -8.30793667716738
C           -7.69344885179395        4.04771429506920       -7.58046749411897
C           -6.47156606158056        3.41649617043849       -7.29974871171301
C           -6.42483216097135        2.23084169498840       -6.58531442680579
C           -7.62996632844508        1.70266417331885       -6.15941490751389
C           -8.84139057517037        2.33125883677989       -6.43560614013652
C           -8.89659082880049        3.51351015772990       -7.15143357449619
C           -8.33968039142219        6.15634152877108       -8.83598347656316
C           -7.98651981863313        7.56955999088663       -8.43623717357099
C           -8.03912309931793        8.60702414081357       -9.36025566218847
C           -7.72050196346228        9.89835843559582       -8.97937604423605
C           -7.32651088220109       10.16982590940345       -7.67618359858239
C           -7.26902261059839        9.12934352242169       -6.74448835728811
C           -7.60746900991716        7.84109824837308       -7.12664807049056
Cl          -6.77996355357767        9.43388440648842       -5.12519481171369
Cl          -6.91421817349054       11.77111745788774       -7.21480738799537
H            0.54271288662011        0.07523883671003        0.42718089492312
H            1.11513768057220        0.72924295189999        1.95708992673016
H            2.26163927291412        0.40165791035506        0.65828037862085
H            0.04868095819136        2.50735856821982        0.56046470351781
H            1.73818434677594        2.84421128722704        0.91165878029814
H            1.31762206231745        3.38025978042972       -1.39905429556091
H            2.41747611419682        2.01205326353046       -1.29756336412315
H            0.83454632238424        1.65701994297863       -3.08680932708840
H            0.61833197822563        0.44461998102300       -1.83817912473729
H           -1.53824550213776        1.16127770765420       -2.65885126195922
H           -1.36192208428956        1.60101096268785       -0.97086530176445
H           -2.45664211321541        3.38719902476782       -2.19644621425714
H           -0.92417951393127        3.93155845907842       -1.54135601576808
H           -1.25279760476212        4.81463549925108       -3.78109208751562
H            0.15944444723839        3.77855802202574       -3.71263093544422
H           -1.01117783282268        3.36003901588282       -5.76981666968001
H           -1.06473761498128        1.93106484174783       -4.75727896071324
H           -3.19885079021624        2.14370250516095       -5.76149208607073
H           -3.38195230674681        2.49873509984667       -4.05277165008646
H           -4.72552465698381        4.10116012224462       -5.18230239541951
H           -3.31289741691023        4.95431489964573       -4.58272892055050
H           -3.66286155725491        5.78831798052543       -6.76942887417944
H           -2.27659468785231        4.70867119531777       -6.89234854810137
H           -3.62084220558947        4.19496178069011       -8.79892311578256
H           -3.90685453387752        2.87765928001223       -7.66231059213419
H           -4.41662593963661        6.26237636319691       -9.10799401382319
H           -5.92765691497134        7.03373167565093       -9.41955313625025
H           -5.49495833819893        1.73672752115460       -6.35990867300074
H           -7.63105732799559        0.78155667644494       -5.59937618815368
H           -9.75810509849546        1.88561594856521       -6.08478094527692
H           -9.84072068114488        3.98856307626613       -7.36160199597221
H           -8.38226835716492        6.06916402290209       -9.92698518304983
H           -9.32274578717057        5.89456608337700       -8.43813165627366
H           -8.34569499788341        8.41306857246972      -10.37690511222756
H           -7.77393730953388       10.70465299272282       -9.69258061779341
H           -7.57905620197667        7.05433243655134       -6.38843986102747

          :  Hamiltonian                  GFN2-xTB          :
         :: total energy             -91.604674735053 Eh    ::
         :: gradient norm              0.000344512525 Eh/a0 ::
         :: HOMO-LUMO gap              2.292504493454 eV    ::
         :: SCC energy               -92.937402157673 Eh    ::
         :: -> dispersion             -0.071833324470 Eh    ::
         :: repulsion energy           1.332727422620 Eh    ::

    * Orbital Energies and Occupations

         #    Occupation            Energy/Eh            Energy/eV
      -------------------------------------------------------------
         1        2.0000           -1.1534935             -31.3882
       ...           ...                  ...                  ...
        72        2.0000           -0.5191864             -14.1278
        73        2.0000           -0.5179135             -14.0931
        74        2.0000           -0.5142165             -13.9925
        75        2.0000           -0.5115127             -13.9190
        76        2.0000           -0.5075082             -13.8100
        77        2.0000           -0.5011054             -13.6358
        78        2.0000           -0.4971943             -13.5293
        79        2.0000           -0.4907991             -13.3553
        80        2.0000           -0.4877806             -13.2732
        81        2.0000           -0.4838076             -13.1651
        82        2.0000           -0.4705748             -12.8050
        83        2.0000           -0.4662374             -12.6870
        84        2.0000           -0.4641404             -12.6299 (HOMO)
        85                         -0.3798924             -10.3374 (LUMO)
        86                         -0.3619922              -9.8503
        87                         -0.3585506              -9.7567
        88                         -0.3473109              -9.4508
        89                         -0.3349350              -9.1140
        90                         -0.2425250              -6.5994
        91                         -0.2395270              -6.5179
        92                         -0.2251287              -6.1261
        93                         -0.2216290              -6.0308
        94                         -0.1807199              -4.9176
        95                         -0.1319942              -3.5917
       ...                                ...                  ...
       170                          0.5596217              15.2281
      -------------------------------------------------------------
                  HL-Gap            0.0842480 Eh            2.2925 eV

     #   Z          covCN         q      C6AA      α(0)
     1   6 C        3.751    -0.102    22.517     6.767
     2   6 C        3.799    -0.052    21.516     6.604
     3   6 C        3.800    -0.058    21.613     6.619
     4   6 C        3.800    -0.058    21.612     6.619
     5   6 C        3.800    -0.057    21.604     6.618
     6   6 C        3.800    -0.058    21.619     6.620
     7   6 C        3.800    -0.059    21.636     6.623
     8   6 C        3.800    -0.060    21.662     6.627
     9   6 C        3.800    -0.060    21.662     6.627
    10   6 C        3.800    -0.064    21.722     6.636
    11   6 C        3.801    -0.069    21.814     6.650
    12   6 C        3.739    -0.016    20.947     6.530
    13   7 N        2.818    -0.024    21.707     6.920
    14   6 C        2.999     0.194    23.853     8.012
    15   7 N        2.638    -0.246    26.418     7.634
    16   7 N        2.821    -0.026    21.752     6.927
    17   6 C        3.086     0.036    27.105     8.534
    18   6 C        3.089     0.039    27.014     8.520
    19   6 C        2.911    -0.036    28.893     8.814
    20   6 C        2.926    -0.023    28.591     8.769
    21   6 C        2.926    -0.023    28.571     8.766
    22   6 C        2.910    -0.037    28.923     8.819
    23   6 C        3.745    -0.021    21.024     6.541
    24   6 C        2.969    -0.006    28.175     8.707
    25   6 C        2.921    -0.047    29.167     8.856
    26   6 C        2.955    -0.037    28.918     8.820
    27   6 C        2.915     0.092    25.952     8.354
    28   6 C        2.916     0.091    25.985     8.359
    29   6 C        2.962    -0.054    29.337     8.884
    30  17 Cl       0.988    -0.113   102.698    15.504
    31  17 Cl       0.986    -0.103   102.368    15.479
    32   1 H        0.925     0.033     2.538     2.491
    33   1 H        0.925     0.034     2.537     2.491
    34   1 H        0.925     0.035     2.514     2.479
    35   1 H        0.924     0.029     2.595     2.519
    36   1 H        0.924     0.029     2.600     2.522
    37   1 H        0.924     0.027     2.624     2.533
    38   1 H        0.924     0.031     2.571     2.508
    39   1 H        0.924     0.026     2.638     2.540
    40   1 H        0.924     0.034     2.524     2.484
    41   1 H        0.924     0.024     2.678     2.559
    42   1 H        0.924     0.036     2.509     2.477
    43   1 H        0.924     0.023     2.681     2.561
    44   1 H        0.924     0.038     2.481     2.463
    45   1 H        0.924     0.024     2.669     2.555
    46   1 H        0.924     0.040     2.446     2.446
    47   1 H        0.924     0.024     2.670     2.555
    48   1 H        0.924     0.044     2.398     2.422
    49   1 H        0.924     0.020     2.733     2.585
    50   1 H        0.925     0.047     2.352     2.399
    51   1 H        0.924     0.028     2.618     2.530
    52   1 H        0.925     0.056     2.249     2.345
    53   1 H        0.924     0.035     2.521     2.483
    54   1 H        0.925     0.067     2.114     2.274
    55   1 H        0.924     0.061     2.193     2.316
    56   1 H        0.925     0.089     1.888     2.149
    57   1 H        0.860     0.220     1.008     1.573
    58   1 H        0.860     0.220     1.007     1.572
    59   1 H        0.926     0.069     2.098     2.265
    60   1 H        0.926     0.074     2.044     2.236
    61   1 H        0.926     0.074     2.045     2.236
    62   1 H        0.926     0.062     2.171     2.304
    63   1 H        0.924     0.079     1.987     2.204
    64   1 H        0.924     0.099     1.794     2.094
    65   1 H        0.926     0.066     2.128     2.281
    66   1 H        0.926     0.090     1.878     2.143
    67   1 H        0.926     0.069     2.100     2.266

Wiberg/Mayer (AO) data.
largest (>0.10) Wiberg bond orders for each atom

     #   Z sym  total        # sym  WBO       # sym  WBO       # sym  WBO
 ---------------------------------------------------------------------------
     1   6 C    3.997 --     2 C    1.020    34 H    0.988    33 H    0.987
                            32 H    0.986
     2   6 C    3.998 --     1 C    1.020     3 C    1.008    36 H    0.978
                            35 H    0.976
     3   6 C    3.997 --     2 C    1.008     4 C    1.008    38 H    0.977
                            37 H    0.976
     4   6 C    3.997 --     5 C    1.008     3 C    1.008    39 H    0.975
                            40 H    0.975
     5   6 C    3.997 --     4 C    1.008     6 C    1.008    41 H    0.975
                            42 H    0.974
     6   6 C    3.997 --     5 C    1.008     7 C    1.007    43 H    0.975
                            44 H    0.975
     7   6 C    3.997 --     8 C    1.008     6 C    1.007    45 H    0.974
                            46 H    0.974
     8   6 C    3.996 --     7 C    1.008     9 C    1.007    47 H    0.973
                            48 H    0.973
     9   6 C    3.996 --    10 C    1.008     8 C    1.007    50 H    0.972
                            49 H    0.971
    10   6 C    3.993 --     9 C    1.008    11 C    1.007    51 H    0.976
                            52 H    0.970
    11   6 C    3.988 --    10 C    1.007    12 C    0.991    53 H    0.975
                            54 H    0.965
    12   6 C    3.944 --    11 C    0.991    13 N    0.967    55 H    0.965
                            56 H    0.959
    13   7 N    3.603 --    14 C    1.274    18 C    1.088    12 C    0.967
    14   6 C    3.972 --    13 N    1.274    15 N    1.268    16 N    1.261
    15   7 N    3.354 --    14 C    1.268    57 H    0.927    58 H    0.917
    16   7 N    3.595 --    14 C    1.261    17 C    1.086    23 C    0.971
    17   6 C    3.948 --    22 C    1.367    18 C    1.285    16 N    1.086
    18   6 C    3.950 --    19 C    1.366    17 C    1.285    13 N    1.088
    19   6 C    3.985 --    20 C    1.466    18 C    1.366    59 H    0.960
                            22 C    0.114
    20   6 C    3.982 --    19 C    1.466    21 C    1.406    60 H    0.967
    21   6 C    3.981 --    22 C    1.465    20 C    1.406    61 H    0.967
    22   6 C    3.986 --    21 C    1.465    17 C    1.367    62 H    0.962
                            19 C    0.114
    23   6 C    3.951 --    24 C    0.996    16 N    0.971    63 H    0.958
                            64 H    0.949
    24   6 C    3.984 --    29 C    1.403    25 C    1.398    23 C    0.996
    25   6 C    3.987 --    26 C    1.440    24 C    1.398    65 H    0.965
    26   6 C    3.983 --    25 C    1.440    27 C    1.397    66 H    0.962
                            29 C    0.102
    27   6 C    3.934 --    26 C    1.397    28 C    1.341    31 Cl   1.026
    28   6 C    3.933 --    29 C    1.407    27 C    1.341    30 Cl   1.017
    29   6 C    3.985 --    28 C    1.407    24 C    1.403    67 H    0.964
                            26 C    0.102
    30  17 Cl   1.176 --    28 C    1.017
    31  17 Cl   1.190 --    27 C    1.026
    32   1 H    0.999 --     1 C    0.986
    33   1 H    0.999 --     1 C    0.987
    34   1 H    0.999 --     1 C    0.988
    35   1 H    0.999 --     2 C    0.976
    36   1 H    0.999 --     2 C    0.978
    37   1 H    0.999 --     3 C    0.976
    38   1 H    0.999 --     3 C    0.977
    39   1 H    0.999 --     4 C    0.975
    40   1 H    0.999 --     4 C    0.975
    41   1 H    0.999 --     5 C    0.975
    42   1 H    0.999 --     5 C    0.974
    43   1 H    0.999 --     6 C    0.975
    44   1 H    0.999 --     6 C    0.975
    45   1 H    0.999 --     7 C    0.974
    46   1 H    0.998 --     7 C    0.974
    47   1 H    0.999 --     8 C    0.973
    48   1 H    0.998 --     8 C    0.973
    49   1 H    1.000 --     9 C    0.971
    50   1 H    0.998 --     9 C    0.972
    51   1 H    0.999 --    10 C    0.976
    52   1 H    0.997 --    10 C    0.970
    53   1 H    0.999 --    11 C    0.975
    54   1 H    0.995 --    11 C    0.965
    55   1 H    0.996 --    12 C    0.965
    56   1 H    0.992 --    12 C    0.959
    57   1 H    0.951 --    15 N    0.927
    58   1 H    0.951 --    15 N    0.917
    59   1 H    0.995 --    19 C    0.960
    60   1 H    0.994 --    20 C    0.967
    61   1 H    0.994 --    21 C    0.967
    62   1 H    0.995 --    22 C    0.962
    63   1 H    0.993 --    23 C    0.958
    64   1 H    0.989 --    23 C    0.949
    65   1 H    0.995 --    25 C    0.965
    66   1 H    0.992 --    26 C    0.962
    67   1 H    0.995 --    29 C    0.964
 ---------------------------------------------------------------------------

molecular dipole:
                 x           y           z       tot (Debye)
 q only:      -11.722       8.899     -15.597
   full:      -11.612       9.673     -15.316      54.691

           -------------------------------------------------
          | TOTAL ENERGY              -91.604674735053 Eh   |
          | GRADIENT NORM               0.000344512525 Eh/α |
          | HOMO-LUMO GAP               2.292504493454 eV   |
           -------------------------------------------------

 * finished run on 2024/12/20 at 07:04:40.965
