   * xtb version 6.7.1 (edcfbbe) compiled by 'conda@3ef47c1a292c' on 2024-11-25

   ID    Z sym.   atoms
    1    6 C      1-4, 6-8, 10, 11
    2    7 N      5
    3    8 O      9
    4    1 H      12-31

          program call               : xtb C0920.xyz --opt --namespace C0920 --charge +1
          :  Hamiltonian                  GFN2-xTB          :
 * total energy  :   -36.0511837 Eh     change       -0.5370282E-10 Eh
 * total energy  :   -36.0582289 Eh     change       -0.7045219E-02 Eh
 * total energy  :   -36.0599103 Eh     change       -0.1681351E-02 Eh
 * total energy  :   -36.0599750 Eh     change       -0.6476559E-04 Eh
 * total energy  :   -36.0600090 Eh     change       -0.3397655E-04 Eh
 * total energy  :   -36.0600323 Eh     change       -0.2326104E-04 Eh
 * total energy  :   -36.0600509 Eh     change       -0.1868398E-04 Eh
 * total energy  :   -36.0600832 Eh     change       -0.3225447E-04 Eh
 * total energy  :   -36.0601044 Eh     change       -0.2120525E-04 Eh
 * total energy  :   -36.0601235 Eh     change       -0.1914221E-04 Eh
 * total energy  :   -36.0612714 Eh     change       -0.1890189E-04 Eh
 * total energy  :   -36.0613092 Eh     change       -0.3784303E-04 Eh
 * total energy  :   -36.0613204 Eh     change       -0.1116307E-04 Eh
 * total energy  :   -36.0613287 Eh     change       -0.8335745E-05 Eh
 * total energy  :   -36.0613365 Eh     change       -0.7730871E-05 Eh
 * total energy  :   -36.0613431 Eh     change       -0.6659883E-05 Eh
 * total energy  :   -36.0613493 Eh     change       -0.6230060E-05 Eh
 * total energy  :   -36.0613546 Eh     change       -0.5211234E-05 Eh
 * total energy  :   -36.0613589 Eh     change       -0.4313225E-05 Eh
   *** GEOMETRY OPTIMIZATION CONVERGED AFTER 54 ITERATIONS ***

 final structure:
================
31
 xtb: 6.7.1 (edcfbbe)
C            2.10958187080807       -0.03454377937404       -0.06098643719714
C            0.91433977891406        0.54441373047797       -0.80882571658296
C            0.64446798267670       -0.17011840554831       -2.13896614473782
C            0.12526877792790       -1.60671125085623       -1.99525746460550
N           -1.34904234423975       -1.80600947003074       -2.18479075470482
C           -2.08971432680075       -0.95609797965135       -1.23622194508895
C           -1.73348299757861       -1.50457465005524       -3.59333524800543
C           -3.15558726522646       -1.97193159912338       -3.92750704255059
O           -3.30501661676517       -3.34387130220712       -3.68089904531803
C           -3.06796436647146       -3.64367262728444       -2.33210401952564
C           -1.64264370135788       -3.24771771425480       -1.92809732517117
H            1.95121533536721       -1.07185218069183        0.22462387329838
H            2.28807272697621        0.53537567784754        0.84581501234638
H            3.00478883834743        0.01746389668157       -0.67420501275132
H            0.03553226045379        0.51982565915387       -0.16320056551630
H            1.12314940134015        1.59138654237851       -1.03177308076700
H           -0.03233060771177        0.43216627579651       -2.74448677005517
H            1.58866157219904       -0.21128215928386       -2.68405833373811
H            0.62586174208369       -2.25002865375752       -2.72090361556775
H            0.37309577320223       -1.97557030898974       -0.99804960146608
H           -1.77281752974686       -1.18234300031718       -0.21968084006559
H           -1.89529535753800        0.09319307671412       -1.44393339445270
H           -3.15980197278175       -1.12950215202652       -1.31115660189890
H           -1.03687852558140       -2.03308858361221       -4.24776260600845
H           -1.64961403909766       -0.43420488564897       -3.77685879963516
H           -3.33290695497009       -1.83011704904892       -4.99504243867902
H           -3.90664032346139       -1.39176175555668       -3.37272136074162
H           -3.81719250401687       -3.16207050587295       -1.68791134054887
H           -3.17631045413022       -4.72520342584997       -2.23281758897501
H           -1.47912000245616       -3.46468045332510       -0.87193917797998
H           -0.94708617035826       -3.84180096668652       -2.52515661330885

          :  Hamiltonian                  GFN2-xTB          :
         :: total energy             -36.061358866244 Eh    ::
         :: gradient norm              0.000342709971 Eh/a0 ::
         :: HOMO-LUMO gap              8.363455424784 eV    ::
         :: SCC energy               -36.512752246030 Eh    ::
         :: -> dispersion             -0.023021633140 Eh    ::
         :: repulsion energy           0.451393379786 Eh    ::

    * Orbital Energies and Occupations

         #    Occupation            Energy/Eh            Energy/eV
      -------------------------------------------------------------
         1        2.0000           -0.8736073             -23.7721
       ...           ...                  ...                  ...
        21        2.0000           -0.6561697             -17.8553
        22        2.0000           -0.6526177             -17.7586
        23        2.0000           -0.6474626             -17.6184
        24        2.0000           -0.6362463             -17.3131
        25        2.0000           -0.6270533             -17.0630
        26        2.0000           -0.6143884             -16.7184
        27        2.0000           -0.6100346             -16.5999
        28        2.0000           -0.6006454             -16.3444
        29        2.0000           -0.5965269             -16.2323
        30        2.0000           -0.5722037             -15.5705
        31        2.0000           -0.5609796             -15.2650
        32        2.0000           -0.5593509             -15.2207
        33        2.0000           -0.5536733             -15.0662 (HOMO)
        34                         -0.2463220              -6.7028 (LUMO)
        35                         -0.1807601              -4.9187
        36                         -0.1711206              -4.6564
        37                         -0.1514738              -4.1218
        38                         -0.1126922              -3.0665
        39                         -0.0932131              -2.5365
        40                         -0.0753035              -2.0491
        41                         -0.0640619              -1.7432
        42                         -0.0595336              -1.6200
        43                         -0.0362824              -0.9873
        44                         -0.0263626              -0.7174
       ...                                ...                  ...
        64                          0.1840538               5.0084
      -------------------------------------------------------------
                  HL-Gap            0.3073513 Eh            8.3635 eV

     #   Z          covCN         q      C6AA      α(0)
     1   6 C        3.752    -0.116    22.774     6.805
     2   6 C        3.799    -0.066    21.760     6.642
     3   6 C        3.800    -0.075    21.929     6.667
     4   6 C        3.761    -0.041    21.362     6.589
     5   7 N        3.621     0.122    19.149     6.499
     6   6 C        3.711    -0.092    22.396     6.763
     7   6 C        3.759    -0.043    21.385     6.593
     8   6 C        3.721     0.064    19.617     6.326
     9   8 O        1.702    -0.281    18.671     5.834
    10   6 C        3.721     0.064    19.612     6.325
    11   6 C        3.766    -0.044    21.400     6.593
    12   1 H        0.925     0.034     2.533     2.489
    13   1 H        0.925     0.059     2.212     2.326
    14   1 H        0.925     0.052     2.299     2.371
    15   1 H        0.924     0.038     2.475     2.460
    16   1 H        0.924     0.059     2.210     2.325
    17   1 H        0.925     0.050     2.322     2.383
    18   1 H        0.924     0.077     2.011     2.217
    19   1 H        0.924     0.079     1.992     2.207
    20   1 H        0.924     0.092     1.862     2.134
    21   1 H        0.925     0.097     1.809     2.104
    22   1 H        0.925     0.104     1.752     2.070
    23   1 H        0.925     0.097     1.816     2.107
    24   1 H        0.924     0.097     1.814     2.106
    25   1 H        0.925     0.089     1.891     2.151
    26   1 H        0.924     0.099     1.795     2.095
    27   1 H        0.923     0.051     2.304     2.374
    28   1 H        0.923     0.052     2.300     2.372
    29   1 H        0.924     0.099     1.790     2.092
    30   1 H        0.924     0.087     1.904     2.158
    31   1 H        0.924     0.096     1.820     2.110

Wiberg/Mayer (AO) data.
largest (>0.10) Wiberg bond orders for each atom

     #   Z sym  total        # sym  WBO       # sym  WBO       # sym  WBO
 ---------------------------------------------------------------------------
     1   6 C    3.992 --     2 C    1.021    14 H    0.986    13 H    0.984
                            12 H    0.984
     2   6 C    3.992 --     1 C    1.021     3 C    1.005    15 H    0.975
                            16 H    0.975
     3   6 C    3.983 --     2 C    1.005     4 C    1.002    18 H    0.968
                            17 H    0.966
     4   6 C    3.925 --     3 C    1.002    19 H    0.969    20 H    0.961
                             5 N    0.920
     5   7 N    3.806 --     6 C    0.960     7 C    0.937    11 C    0.936
                             4 C    0.920
     6   6 C    3.927 --    21 H    0.974    22 H    0.970    23 H    0.968
                             5 N    0.960
     7   6 C    3.937 --     8 C    0.994    24 H    0.965    25 H    0.964
                             5 N    0.937
     8   6 C    3.952 --     9 O    0.998     7 C    0.994    27 H    0.960
                            26 H    0.959
     9   8 O    2.106 --    10 C    0.998     8 C    0.998
    10   6 C    3.952 --     9 O    0.998    11 C    0.994    28 H    0.959
                            29 H    0.958
    11   6 C    3.937 --    10 C    0.994    30 H    0.968    31 H    0.966
                             5 N    0.936
    12   1 H    0.999 --     1 C    0.984
    13   1 H    0.996 --     1 C    0.984
    14   1 H    0.997 --     1 C    0.986
    15   1 H    0.999 --     2 C    0.975
    16   1 H    0.996 --     2 C    0.975
    17   1 H    0.998 --     3 C    0.966
    18   1 H    0.994 --     3 C    0.968
    19   1 H    0.994 --     4 C    0.969
    20   1 H    0.991 --     4 C    0.961
    21   1 H    0.991 --     6 C    0.974
    22   1 H    0.989 --     6 C    0.970
    23   1 H    0.991 --     6 C    0.968
    24   1 H    0.991 --     7 C    0.965
    25   1 H    0.992 --     7 C    0.964
    26   1 H    0.990 --     8 C    0.959
    27   1 H    0.997 --     8 C    0.960
    28   1 H    0.997 --    10 C    0.959
    29   1 H    0.990 --    10 C    0.958
    30   1 H    0.992 --    11 C    0.968
    31   1 H    0.991 --    11 C    0.966
 ---------------------------------------------------------------------------

molecular dipole:
                 x           y           z       tot (Debye)
 q only:       -2.285      -2.927      -3.800
   full:       -2.244      -2.864      -3.703      13.196

           -------------------------------------------------
          | TOTAL ENERGY              -36.061358866244 Eh   |
          | GRADIENT NORM               0.000342709971 Eh/α |
          | HOMO-LUMO GAP               8.363455424784 eV   |
           -------------------------------------------------

 * finished run on 2024/12/20 at 07:04:21.082
