   * xtb version 6.7.1 (edcfbbe) compiled by 'conda@3ef47c1a292c' on 2024-11-25

   ID    Z sym.   atoms
    1    8 O      1, 7, 10
    2    6 C      2, 3, 5, 6, 8, 9
    3    7 N      4
    4    1 H      11-26

          program call               : xtb C0924.xyz --opt --namespace C0924 --charge +1
          :  Hamiltonian                  GFN2-xTB          :
 * total energy  :   -35.6967096 Eh     change       -0.9688250E-10 Eh
 * total energy  :   -35.7013365 Eh     change       -0.4626903E-02 Eh
 * total energy  :   -35.7025168 Eh     change       -0.1180261E-02 Eh
 * total energy  :   -35.7026249 Eh     change       -0.1081158E-03 Eh
 * total energy  :   -35.7026570 Eh     change       -0.3208011E-04 Eh
 * total energy  :   -35.7026725 Eh     change       -0.1554846E-04 Eh
 * total energy  :   -35.7026702 Eh     change        0.2333436E-05 Eh
 * total energy  :   -35.7026811 Eh     change       -0.1093333E-04 Eh
 * total energy  :   -35.7026870 Eh     change       -0.5912276E-05 Eh
 * total energy  :   -35.7026890 Eh     change       -0.1999160E-05 Eh
   *** GEOMETRY OPTIMIZATION CONVERGED AFTER 10 ITERATIONS ***

 final structure:
================
26
 xtb: 6.7.1 (edcfbbe)
O            1.37300859364559       -0.08659827726648       -0.12898564059975
C            0.55091317855906       -1.15769763645706       -0.53983175855750
C            0.89613219659341       -1.42852703830311       -2.00848480969489
N            2.36078743477417       -1.36195912870498       -2.20197466982556
C            3.11988424128916       -2.44338590990873       -1.52732008698194
C            2.74587446639330       -3.85666025911694       -1.97822024740592
O            2.88051598777276       -3.94500464244083       -3.37680599658781
C            2.73692223925064       -1.16293004348651       -3.62295668837714
C            2.67530728857004        0.33395663095562       -3.93916313890016
O            3.29117219187715        0.98314382727711       -2.84569146228910
H            1.05781265467684        0.27847534095804        0.70340867934334
H            0.73134658036452       -2.04505779891729        0.08203047724131
H           -0.51201894458880       -0.90410884394130       -0.46908483086776
H            0.51352052950227       -2.39279515416286       -2.33916719305346
H            0.45121632453220       -0.64278468322575       -2.62014173251458
H            2.64679245242875       -0.47055330213979       -1.74126245538248
H            4.17714219960188       -2.27460017281563       -1.73893512999206
H            2.96644118385966       -2.35904303708464       -0.45162450034126
H            3.42801069757370       -4.54563031839530       -1.46581454964838
H            1.72173609985848       -4.11147562877032       -1.67091486821800
H            2.89453266287943       -4.86828017007103       -3.64885808285800
H            3.76060849718295       -1.51177147715294       -3.75470665962748
H            2.09229001585279       -1.75020129838964       -4.27446432332551
H            3.20839065674373        0.52386717783443       -4.87600506868394
H            1.63919342238271        0.67884309889154       -4.05707929611781
H            3.38523714842365        1.92413874483439       -3.02255596673419

          :  Hamiltonian                  GFN2-xTB          :
         :: total energy             -35.702689022458 Eh    ::
         :: gradient norm              0.000263922533 Eh/a0 ::
         :: HOMO-LUMO gap              8.963828990215 eV    ::
         :: SCC energy               -36.051026069518 Eh    ::
         :: -> dispersion             -0.017523260410 Eh    ::
         :: repulsion energy           0.348337047060 Eh    ::

    * Orbital Energies and Occupations

         #    Occupation            Energy/Eh            Energy/eV
      -------------------------------------------------------------
         1        2.0000           -0.8536217             -23.2282
       ...           ...                  ...                  ...
        19        2.0000           -0.6698395             -18.2273
        20        2.0000           -0.6629445             -18.0396
        21        2.0000           -0.6520815             -17.7440
        22        2.0000           -0.6425107             -17.4836
        23        2.0000           -0.6300884             -17.1456
        24        2.0000           -0.6288370             -17.1115
        25        2.0000           -0.6269121             -17.0591
        26        2.0000           -0.6124778             -16.6664
        27        2.0000           -0.6098770             -16.5956
        28        2.0000           -0.5978638             -16.2687
        29        2.0000           -0.5630231             -15.3206
        30        2.0000           -0.5587270             -15.2037
        31        2.0000           -0.5548300             -15.0977 (HOMO)
        32                         -0.2254154              -6.1339 (LUMO)
        33                         -0.1420180              -3.8645
        34                         -0.1382613              -3.7623
        35                         -0.1239948              -3.3741
        36                         -0.0914143              -2.4875
        37                         -0.0863487              -2.3497
        38                         -0.0703906              -1.9154
        39                         -0.0638201              -1.7366
        40                         -0.0489249              -1.3313
        41                         -0.0385522              -1.0491
        42                         -0.0319577              -0.8696
       ...                                ...                  ...
        56                          0.1379555               3.7540
      -------------------------------------------------------------
                  HL-Gap            0.3294147 Eh            8.9638 eV

     #   Z          covCN         q      C6AA      α(0)
     1   8 O        1.656    -0.443    21.706     6.289
     2   6 C        3.674     0.065    19.707     6.362
     3   6 C        3.742    -0.038    21.336     6.590
     4   7 N        3.579     0.038    20.577     6.737
     5   6 C        3.739    -0.039    21.355     6.594
     6   6 C        3.672     0.071    19.618     6.348
     7   8 O        1.656    -0.439    21.626     6.278
     8   6 C        3.742    -0.043    21.419     6.603
     9   6 C        3.675     0.061    19.769     6.371
    10   8 O        1.656    -0.441    21.661     6.283
    11   1 H        0.805     0.317     0.672     1.288
    12   1 H        0.923     0.049     2.335     2.390
    13   1 H        0.924     0.066     2.135     2.285
    14   1 H        0.925     0.097     1.809     2.104
    15   1 H        0.924     0.102     1.769     2.080
    16   1 H        0.858     0.292     0.738     1.346
    17   1 H        0.924     0.105     1.741     2.064
    18   1 H        0.925     0.098     1.804     2.101
    19   1 H        0.924     0.063     2.168     2.303
    20   1 H        0.923     0.045     2.383     2.414
    21   1 H        0.805     0.313     0.683     1.298
    22   1 H        0.925     0.117     1.637     2.001
    23   1 H        0.925     0.109     1.704     2.041
    24   1 H        0.924     0.070     2.091     2.261
    25   1 H        0.923     0.048     2.343     2.394
    26   1 H        0.805     0.318     0.669     1.284

Wiberg/Mayer (AO) data.
largest (>0.10) Wiberg bond orders for each atom

     #   Z sym  total        # sym  WBO       # sym  WBO       # sym  WBO
 ---------------------------------------------------------------------------
     1   8 O    1.958 --     2 C    1.004    11 H    0.884
     2   6 C    3.957 --     1 O    1.004     3 C    1.000    13 H    0.967
                            12 H    0.966
     3   6 C    3.939 --     2 C    1.000    14 H    0.965    15 H    0.963
                             4 N    0.952
     4   7 N    3.759 --     3 C    0.952     5 C    0.947     8 C    0.945
                            16 H    0.844
     5   6 C    3.937 --     6 C    1.005    18 H    0.964    17 H    0.963
                             4 N    0.947
     6   6 C    3.960 --     7 O    1.007     5 C    1.005    19 H    0.964
                            20 H    0.963
     7   8 O    1.953 --     6 C    1.007    21 H    0.888
     8   6 C    3.928 --     9 C    1.003    23 H    0.965    22 H    0.961
                             4 N    0.945
     9   6 C    3.955 --     8 C    1.003    10 O    1.001    24 H    0.966
                            25 H    0.966
    10   8 O    1.971 --     9 C    1.001    26 H    0.881
    11   1 H    0.899 --     1 O    0.884
    12   1 H    0.998 --     2 C    0.966
    13   1 H    0.995 --     2 C    0.967
    14   1 H    0.991 --     3 C    0.965
    15   1 H    0.990 --     3 C    0.963
    16   1 H    0.915 --     4 N    0.844
    17   1 H    0.989 --     5 C    0.963
    18   1 H    0.990 --     5 C    0.964
    19   1 H    0.996 --     6 C    0.964
    20   1 H    0.998 --     6 C    0.963
    21   1 H    0.902 --     7 O    0.888
    22   1 H    0.986 --     8 C    0.961
    23   1 H    0.988 --     8 C    0.965
    24   1 H    0.995 --     9 C    0.966
    25   1 H    0.998 --     9 C    0.966
    26   1 H    0.899 --    10 O    0.881
 ---------------------------------------------------------------------------

molecular dipole:
                 x           y           z       tot (Debye)
 q only:        3.905      -2.834      -4.079
   full:        3.712      -2.813      -3.921      15.475

           -------------------------------------------------
          | TOTAL ENERGY              -35.702689022458 Eh   |
          | GRADIENT NORM               0.000263922533 Eh/α |
          | HOMO-LUMO GAP               8.963828990215 eV   |
           -------------------------------------------------

 * finished run on 2024/12/20 at 07:04:28.859
