   * xtb version 6.7.1 (edcfbbe) compiled by 'conda@3ef47c1a292c' on 2024-11-25

   ID    Z sym.   atoms
    1    6 C      1-22, 24-26
    2    7 N      23
    3    1 H      27-80

          program call               : xtb C0930.xyz --opt --namespace C0930 --charge +1
          :  Hamiltonian                  GFN2-xTB          :
 * total energy  :   -83.6260840 Eh     change       -0.8226664E-10 Eh
 * total energy  :   -83.6329600 Eh     change       -0.6876019E-02 Eh
 * total energy  :   -83.6344309 Eh     change       -0.1470892E-02 Eh
 * total energy  :   -83.6345175 Eh     change       -0.8658062E-04 Eh
 * total energy  :   -83.6346428 Eh     change       -0.1252547E-03 Eh
 * total energy  :   -83.6347023 Eh     change       -0.5957852E-04 Eh
 * total energy  :   -83.6348662 Eh     change       -0.1638564E-03 Eh
 * total energy  :   -83.6350455 Eh     change       -0.1793315E-03 Eh
 * total energy  :   -83.6351738 Eh     change       -0.1283175E-03 Eh
 * total energy  :   -83.6353643 Eh     change       -0.1904638E-03 Eh
 * total energy  :   -83.6364448 Eh     change       -0.2036851E-04 Eh
 * total energy  :   -83.6364590 Eh     change       -0.1415453E-04 Eh
 * total energy  :   -83.6364700 Eh     change       -0.1100672E-04 Eh
 * total energy  :   -83.6364827 Eh     change       -0.1270294E-04 Eh
 * total energy  :   -83.6364987 Eh     change       -0.1595453E-04 Eh
 * total energy  :   -83.6365157 Eh     change       -0.1703743E-04 Eh
 * total energy  :   -83.6365297 Eh     change       -0.1397579E-04 Eh
 * total energy  :   -83.6365381 Eh     change       -0.8461199E-05 Eh
 * total energy  :   -83.6365430 Eh     change       -0.4906606E-05 Eh
   *** GEOMETRY OPTIMIZATION CONVERGED AFTER 36 ITERATIONS ***

 final structure:
================
80
 xtb: 6.7.1 (edcfbbe)
C            1.41301929297809        0.31850686383659        1.01507143581900
C            1.47580451702991        1.66991572088347        0.31333895737485
C            1.60162403157975        1.55504834720345       -1.20653615957478
C            0.42097086929610        0.87546637201196       -1.90357339587513
C           -0.93505894378707        1.55056466123819       -1.68829535103778
C           -1.00648348070228        3.01375598292988       -2.12937665568869
C           -0.67802267336916        3.26114637176054       -3.60287589699739
C           -1.57956967431915        2.52878640995384       -4.59849718035353
C           -3.06786273079550        2.86852039437396       -4.49558304025540
C           -3.40705789361957        4.35027462096772       -4.66997772512009
C           -2.94484795376551        4.96840557033094       -5.99070667567800
C           -3.52714927340718        4.31976158839497       -7.24790020956158
C           -5.05336444540166        4.35930117858268       -7.34996043456986
C           -5.66978844591644        5.75868197200939       -7.29680375032580
C           -5.16884035950422        6.72749547134852       -8.36945889042490
C           -5.41557301477725        6.28101766448326       -9.81172127387855
C           -6.88585827242789        6.07799779101798      -10.18419817938838
C           -7.77941337510955        7.30433673564313       -9.98426402176661
C           -7.32017411722170        8.56759906319935      -10.71578524373259
C           -7.19057129059911        8.42962074792211      -12.23482159379435
C           -8.50574937903128        8.11816929904494      -12.95922339594679
C           -9.54162837151126        9.24781396054884      -12.90774828806104
N           -9.64241879931959       10.11815949812116      -14.12237976685775
C          -10.18060816254269        9.35679893804143      -15.26413743030245
C          -10.57114860104079       11.22439229288942      -13.81775216646587
C           -8.33292773851088       10.68793993879030      -14.48285567332636
H            0.50966066252682       -0.22213365309893        0.74459817477200
H            1.41489770791576        0.45363159305809        2.09442852351589
H            2.27312458410129       -0.29052691456226        0.74493167831031
H            0.59031227766155        2.25415641792816        0.56930302075735
H            2.34493727635247        2.21905593521649        0.68469995480319
H            1.73801257992042        2.55577846739838       -1.62183797264312
H            2.50467212836967        0.98375329146570       -1.43786190022429
H            0.63614950397583        0.83361986215005       -2.97362799046542
H            0.34639742914471       -0.15664595932577       -1.55502108836955
H           -1.69139998652876        0.97477716640279       -2.22649412397994
H           -1.19545286922004        1.50220360246063       -0.62891440250907
H           -2.01137584475198        3.38568958461697       -1.91682581678598
H           -0.31512059250735        3.60370780390537       -1.52401482790616
H           -0.73419137273984        4.33607289139473       -3.78909883480332
H            0.35387566619780        2.95995699074184       -3.79457548459743
H           -1.22768508677036        2.75470889827278       -5.60773925271343
H           -1.46720773884392        1.45189747570329       -4.45804597948268
H           -3.60386758134536        2.28468966246141       -5.24757826887386
H           -3.44128883719676        2.54851598465935       -3.52070123734187
H           -4.48919532923876        4.46646794547530       -4.57554150817872
H           -2.95502273032564        4.91810023655097       -3.85422681025798
H           -3.20162070041001        6.03021043222927       -5.97966806739098
H           -1.85666899959263        4.90677774757927       -6.05159385070619
H           -3.09382144371900        4.81524870452297       -8.12008092098474
H           -3.21295741868774        3.27518459334000       -7.28905798275988
H           -5.34641805177387        3.86894080283492       -8.28141911074722
H           -5.48096415349273        3.77201002190413       -6.53525568966299
H           -6.75500566401935        5.65843651833492       -7.37507113947077
H           -5.46247279874451        6.20138140250818       -6.32094281989453
H           -5.64206699635344        7.69809861694021       -8.20209233643537
H           -4.09492837695499        6.87344039773249       -8.24237792838850
H           -4.96800153936446        7.02020354213719      -10.48095988926475
H           -4.89246472599512        5.33971410345498       -9.98644357736369
H           -6.93535633471159        5.75233466516981      -11.22658063113569
H           -7.29558406249525        5.26623993773304       -9.58168873314657
H           -8.79645455809244        7.04624820737209      -10.29124074784965
H           -7.82412499088242        7.53780383339358       -8.91999048555559
H           -8.01356366565089        9.37619876569418      -10.46704562014254
H           -6.34503133245309        8.86164811593273      -10.32758498026533
H           -6.74415858452041        9.34496266410956      -12.62753492529858
H           -6.49513432188126        7.61863778459984      -12.44888610297740
H           -8.28600515767879        7.83323513824514      -13.98816836850505
H           -8.94526553868338        7.23985716312615      -12.48726096598626
H          -10.53632178334001        8.82963622486025      -12.74353281967770
H           -9.30872222384080        9.89545238639989      -12.06052169942665
H          -11.16467976406176        8.96025266139737      -15.02087492021560
H          -10.27001788843030       10.00364174288066      -16.13505691481850
H           -9.52566969719310        8.52677518350275      -15.51798414401304
H          -10.18149777108735       11.83351507122758      -13.00396977485027
H          -10.70056148294598       11.85813063984754      -14.69346016326169
H          -11.54410010614611       10.83358395639074      -13.52510182342399
H           -7.92188294211106       11.23955582966301      -13.63946108739215
H           -7.63757653116505        9.90069205503937      -14.76359690980940
H           -8.44271395440848       11.36952635140637      -15.32483871646902

          :  Hamiltonian                  GFN2-xTB          :
         :: total energy             -83.636543036656 Eh    ::
         :: gradient norm              0.000273704699 Eh/a0 ::
         :: HOMO-LUMO gap              5.667477431594 eV    ::
         :: SCC energy               -84.858012270207 Eh    ::
         :: -> dispersion             -0.066902096803 Eh    ::
         :: repulsion energy           1.221469233551 Eh    ::

    * Orbital Energies and Occupations

         #    Occupation            Energy/Eh            Energy/eV
      -------------------------------------------------------------
         1        2.0000           -0.8696851             -23.6653
       ...           ...                  ...                  ...
        67        2.0000           -0.4797907             -13.0558
        68        2.0000           -0.4777246             -12.9995
        69        2.0000           -0.4749157             -12.9231
        70        2.0000           -0.4697609             -12.7828
        71        2.0000           -0.4651468             -12.6573
        72        2.0000           -0.4638908             -12.6231
        73        2.0000           -0.4605771             -12.5329
        74        2.0000           -0.4539620             -12.3529
        75        2.0000           -0.4517294             -12.2922
        76        2.0000           -0.4503335             -12.2542
        77        2.0000           -0.4452282             -12.1153
        78        2.0000           -0.4383534             -11.9282
        79        2.0000           -0.4375800             -11.9072 (HOMO)
        80                         -0.2293040              -6.2397 (LUMO)
        81                         -0.1622695              -4.4156
        82                         -0.1507528              -4.1022
        83                         -0.1451654              -3.9502
        84                         -0.0703660              -1.9148
        85                         -0.0654174              -1.7801
        86                         -0.0360708              -0.9815
        87                         -0.0300409              -0.8175
        88                         -0.0114869              -0.3126
        89                         -0.0016976              -0.0462
        90                          0.0038697               0.1053
       ...                                ...                  ...
       158                          0.2835287               7.7152
      -------------------------------------------------------------
                  HL-Gap            0.2082760 Eh            5.6675 eV

     #   Z          covCN         q      C6AA      α(0)
     1   6 C        3.751    -0.101    22.492     6.763
     2   6 C        3.799    -0.052    21.502     6.602
     3   6 C        3.800    -0.057    21.592     6.616
     4   6 C        3.800    -0.056    21.587     6.615
     5   6 C        3.800    -0.056    21.577     6.614
     6   6 C        3.800    -0.056    21.579     6.614
     7   6 C        3.800    -0.056    21.579     6.614
     8   6 C        3.800    -0.056    21.580     6.614
     9   6 C        3.800    -0.056    21.579     6.614
    10   6 C        3.800    -0.056    21.581     6.614
    11   6 C        3.800    -0.056    21.587     6.615
    12   6 C        3.800    -0.056    21.589     6.616
    13   6 C        3.800    -0.057    21.593     6.616
    14   6 C        3.800    -0.057    21.601     6.617
    15   6 C        3.800    -0.058    21.612     6.619
    16   6 C        3.800    -0.059    21.628     6.621
    17   6 C        3.800    -0.060    21.646     6.624
    18   6 C        3.800    -0.061    21.679     6.629
    19   6 C        3.800    -0.063    21.712     6.634
    20   6 C        3.800    -0.070    21.846     6.655
    21   6 C        3.799    -0.073    21.904     6.664
    22   6 C        3.760    -0.043    21.398     6.594
    23   7 N        3.622     0.144    18.792     6.438
    24   6 C        3.722    -0.096    22.456     6.767
    25   6 C        3.730    -0.098    22.472     6.767
    26   6 C        3.721    -0.096    22.444     6.766
    27   1 H        0.925     0.034     2.526     2.485
    28   1 H        0.925     0.031     2.579     2.511
    29   1 H        0.925     0.033     2.546     2.495
    30   1 H        0.924     0.031     2.578     2.511
    31   1 H        0.924     0.026     2.650     2.546
    32   1 H        0.924     0.028     2.612     2.528
    33   1 H        0.924     0.027     2.625     2.533
    34   1 H        0.924     0.028     2.619     2.531
    35   1 H        0.924     0.030     2.583     2.513
    36   1 H        0.924     0.027     2.631     2.536
    37   1 H        0.924     0.030     2.586     2.515
    38   1 H        0.924     0.027     2.635     2.539
    39   1 H        0.924     0.030     2.589     2.516
    40   1 H        0.924     0.026     2.640     2.541
    41   1 H        0.924     0.030     2.585     2.514
    42   1 H        0.924     0.026     2.646     2.544
    43   1 H        0.924     0.031     2.575     2.509
    44   1 H        0.924     0.026     2.648     2.545
    45   1 H        0.924     0.031     2.575     2.509
    46   1 H        0.924     0.026     2.647     2.544
    47   1 H        0.924     0.031     2.572     2.508
    48   1 H        0.924     0.025     2.657     2.549
    49   1 H        0.924     0.032     2.555     2.500
    50   1 H        0.924     0.025     2.665     2.553
    51   1 H        0.924     0.033     2.542     2.493
    52   1 H        0.924     0.025     2.664     2.552
    53   1 H        0.924     0.034     2.535     2.490
    54   1 H        0.924     0.025     2.666     2.553
    55   1 H        0.924     0.035     2.520     2.482
    56   1 H        0.924     0.024     2.681     2.560
    57   1 H        0.924     0.037     2.492     2.469
    58   1 H        0.924     0.023     2.692     2.566
    59   1 H        0.924     0.039     2.458     2.452
    60   1 H        0.924     0.022     2.698     2.569
    61   1 H        0.924     0.042     2.421     2.433
    62   1 H        0.924     0.022     2.708     2.573
    63   1 H        0.924     0.046     2.365     2.405
    64   1 H        0.924     0.019     2.742     2.590
    65   1 H        0.925     0.053     2.279     2.361
    66   1 H        0.924     0.031     2.570     2.507
    67   1 H        0.925     0.062     2.175     2.306
    68   1 H        0.925     0.048     2.350     2.397
    69   1 H        0.925     0.078     1.996     2.209
    70   1 H        0.924     0.080     1.975     2.198
    71   1 H        0.924     0.093     1.849     2.126
    72   1 H        0.925     0.099     1.796     2.096
    73   1 H        0.925     0.098     1.800     2.098
    74   1 H        0.925     0.101     1.772     2.082
    75   1 H        0.925     0.099     1.790     2.092
    76   1 H        0.925     0.100     1.783     2.088
    77   1 H        0.925     0.099     1.795     2.095
    78   1 H        0.925     0.100     1.785     2.089
    79   1 H        0.925     0.106     1.733     2.059
    80   1 H        0.925     0.097     1.817     2.108

Wiberg/Mayer (AO) data.
largest (>0.10) Wiberg bond orders for each atom

     #   Z sym  total        # sym  WBO       # sym  WBO       # sym  WBO
 ---------------------------------------------------------------------------
     1   6 C    3.997 --     2 C    1.020    29 H    0.988    28 H    0.988
                            27 H    0.986
     2   6 C    3.998 --     1 C    1.020     3 C    1.008    31 H    0.979
                            30 H    0.976
     3   6 C    3.998 --     2 C    1.008     4 C    1.008    33 H    0.977
                            32 H    0.976
     4   6 C    3.998 --     5 C    1.008     3 C    1.008    35 H    0.976
                            34 H    0.975
     5   6 C    3.998 --     4 C    1.008     6 C    1.008    36 H    0.975
                            37 H    0.975
     6   6 C    3.998 --     7 C    1.008     5 C    1.008    38 H    0.975
                            39 H    0.975
     7   6 C    3.998 --     8 C    1.008     6 C    1.008    40 H    0.975
                            41 H    0.975
     8   6 C    3.998 --     7 C    1.008     9 C    1.008    42 H    0.975
                            43 H    0.975
     9   6 C    3.998 --     8 C    1.008    10 C    1.008    44 H    0.976
                            45 H    0.975
    10   6 C    3.998 --    11 C    1.008     9 C    1.008    46 H    0.975
                            47 H    0.975
    11   6 C    3.998 --    10 C    1.008    12 C    1.008    48 H    0.975
                            49 H    0.974
    12   6 C    3.997 --    11 C    1.008    13 C    1.008    50 H    0.975
                            51 H    0.975
    13   6 C    3.997 --    14 C    1.008    12 C    1.008    52 H    0.976
                            53 H    0.975
    14   6 C    3.997 --    15 C    1.008    13 C    1.008    54 H    0.975
                            55 H    0.975
    15   6 C    3.997 --    14 C    1.008    16 C    1.008    56 H    0.975
                            57 H    0.974
    16   6 C    3.997 --    15 C    1.008    17 C    1.007    58 H    0.975
                            59 H    0.974
    17   6 C    3.996 --    16 C    1.007    18 C    1.007    60 H    0.976
                            61 H    0.974
    18   6 C    3.996 --    17 C    1.007    19 C    1.007    62 H    0.975
                            63 H    0.973
    19   6 C    3.994 --    20 C    1.007    18 C    1.007    64 H    0.972
                            65 H    0.971
    20   6 C    3.991 --    19 C    1.007    21 C    1.005    66 H    0.975
                            67 H    0.970
    21   6 C    3.983 --    20 C    1.005    22 C    1.003    68 H    0.965
                            69 H    0.964
    22   6 C    3.922 --    21 C    1.003    70 H    0.970    71 H    0.960
                            23 N    0.919
    23   7 N    3.816 --    24 C    0.959    25 C    0.958    26 C    0.958
                            22 C    0.919
    24   6 C    3.928 --    72 H    0.975    73 H    0.975    74 H    0.970
                            23 N    0.959
    25   6 C    3.928 --    77 H    0.975    75 H    0.975    76 H    0.974
                            23 N    0.958
    26   6 C    3.926 --    80 H    0.975    78 H    0.974    79 H    0.971
                            23 N    0.958
    27   1 H    0.999 --     1 C    0.986
    28   1 H    0.999 --     1 C    0.988
    29   1 H    0.999 --     1 C    0.988
    30   1 H    0.999 --     2 C    0.976
    31   1 H    0.999 --     2 C    0.979
    32   1 H    0.999 --     3 C    0.976
    33   1 H    0.999 --     3 C    0.977
    34   1 H    0.999 --     4 C    0.975
    35   1 H    0.999 --     4 C    0.976
    36   1 H    0.999 --     5 C    0.975
    37   1 H    0.999 --     5 C    0.975
    38   1 H    0.999 --     6 C    0.975
    39   1 H    0.999 --     6 C    0.975
    40   1 H    0.999 --     7 C    0.975
    41   1 H    0.999 --     7 C    0.975
    42   1 H    0.999 --     8 C    0.975
    43   1 H    0.999 --     8 C    0.975
    44   1 H    0.999 --     9 C    0.976
    45   1 H    0.999 --     9 C    0.975
    46   1 H    0.999 --    10 C    0.975
    47   1 H    0.999 --    10 C    0.975
    48   1 H    0.999 --    11 C    0.975
    49   1 H    0.999 --    11 C    0.974
    50   1 H    0.999 --    12 C    0.975
    51   1 H    0.999 --    12 C    0.975
    52   1 H    0.999 --    13 C    0.976
    53   1 H    0.999 --    13 C    0.975
    54   1 H    0.999 --    14 C    0.975
    55   1 H    0.999 --    14 C    0.975
    56   1 H    0.999 --    15 C    0.975
    57   1 H    0.999 --    15 C    0.974
    58   1 H    0.999 --    16 C    0.975
    59   1 H    0.998 --    16 C    0.974
    60   1 H    0.999 --    17 C    0.976
    61   1 H    0.998 --    17 C    0.974
    62   1 H    1.000 --    18 C    0.975
    63   1 H    0.998 --    18 C    0.973
    64   1 H    1.000 --    19 C    0.972
    65   1 H    0.997 --    19 C    0.971
    66   1 H    0.999 --    20 C    0.975
    67   1 H    0.996 --    20 C    0.970
    68   1 H    0.998 --    21 C    0.965
    69   1 H    0.994 --    21 C    0.964
    70   1 H    0.994 --    22 C    0.970
    71   1 H    0.991 --    22 C    0.960
    72   1 H    0.990 --    24 C    0.975
    73   1 H    0.990 --    24 C    0.975
    74   1 H    0.990 --    24 C    0.970
    75   1 H    0.990 --    25 C    0.975
    76   1 H    0.990 --    25 C    0.974
    77   1 H    0.990 --    25 C    0.975
    78   1 H    0.990 --    26 C    0.974
    79   1 H    0.989 --    26 C    0.971
    80   1 H    0.991 --    26 C    0.975
 ---------------------------------------------------------------------------

molecular dipole:
                 x           y           z       tot (Debye)
 q only:      -17.667      18.594     -26.085
   full:      -17.772      18.671     -26.165      93.357

           -------------------------------------------------
          | TOTAL ENERGY              -83.636543036656 Eh   |
          | GRADIENT NORM               0.000273704699 Eh/α |
          | HOMO-LUMO GAP               5.667477431594 eV   |
           -------------------------------------------------

 * finished run on 2024/12/20 at 07:04:44.887
