   * xtb version 6.7.1 (edcfbbe) compiled by 'conda@3ef47c1a292c' on 2024-11-25

   ID    Z sym.   atoms
    1    6 C      1, 2, 4-14
    2    7 N      3
    3    1 H      15-42

          program call               : xtb C0932.xyz --opt --namespace C0932 --charge +1
          :  Hamiltonian                  GFN2-xTB          :
 * total energy  :   -44.6487689 Eh     change       -0.1125571E-09 Eh
 * total energy  :   -44.6559356 Eh     change       -0.7166758E-02 Eh
 * total energy  :   -44.6577648 Eh     change       -0.1829139E-02 Eh
 * total energy  :   -44.6579805 Eh     change       -0.2157338E-03 Eh
 * total energy  :   -44.6581654 Eh     change       -0.1849133E-03 Eh
 * total energy  :   -44.6582074 Eh     change       -0.4198548E-04 Eh
 * total energy  :   -44.6582604 Eh     change       -0.5302869E-04 Eh
 * total energy  :   -44.6583007 Eh     change       -0.4028388E-04 Eh
 * total energy  :   -44.6583457 Eh     change       -0.4494200E-04 Eh
 * total energy  :   -44.6583749 Eh     change       -0.2927637E-04 Eh
 * total energy  :   -44.6583947 Eh     change       -0.1977572E-04 Eh
 * total energy  :   -44.6584143 Eh     change       -0.1956173E-04 Eh
 * total energy  :   -44.6584343 Eh     change       -0.2002395E-04 Eh
 * total energy  :   -44.6584474 Eh     change       -0.1308516E-04 Eh
 * total energy  :   -44.6584545 Eh     change       -0.7079057E-05 Eh
 * total energy  :   -44.6584603 Eh     change       -0.5847645E-05 Eh
 * total energy  :   -44.6584642 Eh     change       -0.3845499E-05 Eh
   *** GEOMETRY OPTIMIZATION CONVERGED AFTER 17 ITERATIONS ***

 final structure:
================
42
 xtb: 6.7.1 (edcfbbe)
C            1.31184795286380       -0.37325078412096       -0.58564618082055
C            0.64930278487983        0.92505167123621       -1.02241233523973
N            0.88821985908833        1.20548523707680       -2.51038874027137
C            0.48390201094740        0.06824723514467       -3.35674465593576
C            0.14755758489468        2.40480545833944       -2.95358439095460
C            2.32291428167191        1.47719353803857       -2.73550075055033
C           -0.84194023787691        0.95507627343718       -0.65645640094699
C           -1.17086672479175        0.87492331615467        0.86044525301566
C           -1.27804052943221       -0.58640386246005        1.35627930323614
C           -0.63933871990035       -0.92384840405725        2.70322469278820
C           -1.24893954047841       -0.17963576666558        3.89087699854873
C           -0.61385979772696        1.18349586785922        4.14224806997329
C           -0.86748348610724        2.19923633088840        3.03440733028321
C           -0.27155848895484        1.80981579175801        1.67838010287060
H            0.81390533920142       -1.24598818565004       -0.99789906666215
H            1.24322263322381       -0.43665613892119        0.49552685053430
H            2.36814067574228       -0.41529767951716       -0.83397932856333
H            1.14021628399692        1.75603520763970       -0.50787730408812
H           -0.54787221187936       -0.20707733823172       -3.15158134845932
H            0.56662107073551        0.34445132544787       -4.40655195566780
H            1.12516702566369       -0.79049669691643       -3.17610564309588
H            0.30615805245854        3.22656352124663       -2.25763440575884
H            0.50378267479417        2.71164950469427       -3.93586026119547
H           -0.91633652347699        2.19770224844763       -3.03294905592038
H            2.63924564635794        2.33759191906945       -2.14860868957959
H            2.93264291784004        0.62098583795907       -2.46146288270127
H            2.49748545655442        1.69031133618911       -3.78869478910356
H           -1.27059925543151        1.89649605081569       -0.99636799078093
H           -1.37231434014134        0.14064967888413       -1.15202368534698
H           -2.17649470222396        1.30176972782584        0.93742877269617
H           -2.33784567817986       -0.83824755811874        1.42961400463147
H           -0.85766343347929       -1.26424381010680        0.61333879377058
H            0.43844538784680       -0.74954720767293        2.68281249291291
H           -0.78315461467419       -1.99620642056853        2.85324039076464
H           -1.11054484179447       -0.78447327370787        4.78876301977201
H           -2.32319805944844       -0.06390167108899        3.73738342784424
H            0.46339245408986        1.05766850790163        4.27738903296514
H           -1.01286885558251        1.58804041961507        5.07407370688420
H           -0.42531286289897        3.14920503842857        3.34234389012104
H           -1.94166857575835        2.36027616097757        2.92577720577923
H            0.71870951635304        1.38269533126779        1.83706815665484
H           -0.15046812896646        2.73194226146856        1.10148836559722

          :  Hamiltonian                  GFN2-xTB          :
         :: total energy             -44.658464166149 Eh    ::
         :: gradient norm              0.000271630236 Eh/a0 ::
         :: HOMO-LUMO gap              7.011095389797 eV    ::
         :: SCC energy               -45.297383760342 Eh    ::
         :: -> dispersion             -0.035324549453 Eh    ::
         :: repulsion energy           0.638919594194 Eh    ::

    * Orbital Energies and Occupations

         #    Occupation            Energy/Eh            Energy/eV
      -------------------------------------------------------------
         1        2.0000           -0.8615651             -23.4444
       ...           ...                  ...                  ...
        30        2.0000           -0.5909758             -16.0813
        31        2.0000           -0.5893801             -16.0378
        32        2.0000           -0.5817458             -15.8301
        33        2.0000           -0.5739068             -15.6168
        34        2.0000           -0.5714826             -15.5508
        35        2.0000           -0.5566259             -15.1466
        36        2.0000           -0.5467768             -14.8786
        37        2.0000           -0.5328031             -14.4983
        38        2.0000           -0.5266856             -14.3318
        39        2.0000           -0.5140471             -13.9879
        40        2.0000           -0.5085431             -13.8382
        41        2.0000           -0.5048652             -13.7381
        42        2.0000           -0.5018133             -13.6550 (HOMO)
        43                         -0.2441603              -6.6439 (LUMO)
        44                         -0.1675119              -4.5582
        45                         -0.1497011              -4.0736
        46                         -0.1407578              -3.8302
        47                         -0.0763878              -2.0786
        48                         -0.0709105              -1.9296
        49                         -0.0615163              -1.6739
        50                         -0.0434264              -1.1817
        51                         -0.0383511              -1.0436
        52                         -0.0182397              -0.4963
        53                         -0.0107307              -0.2920
       ...                                ...                  ...
        84                          0.2382530               6.4832
      -------------------------------------------------------------
                  HL-Gap            0.2576530 Eh            7.0111 eV

     #   Z          covCN         q      C6AA      α(0)
     1   6 C        3.754    -0.131    23.074     6.850
     2   6 C        3.790     0.012    20.384     6.430
     3   7 N        3.618     0.126    19.084     6.488
     4   6 C        3.720    -0.093    22.403     6.761
     5   6 C        3.726    -0.094    22.398     6.757
     6   6 C        3.727    -0.094    22.400     6.757
     7   6 C        3.801    -0.082    22.062     6.687
     8   6 C        3.845    -0.022    20.929     6.507
     9   6 C        3.799    -0.069    21.831     6.653
    10   6 C        3.800    -0.057    21.597     6.617
    11   6 C        3.801    -0.062    21.688     6.630
    12   6 C        3.802    -0.060    21.651     6.625
    13   6 C        3.801    -0.059    21.643     6.624
    14   6 C        3.801    -0.061    21.673     6.628
    15   1 H        0.925     0.062     2.171     2.304
    16   1 H        0.925     0.097     1.814     2.106
    17   1 H        0.925     0.054     2.272     2.357
    18   1 H        0.924     0.077     2.013     2.219
    19   1 H        0.925     0.098     1.805     2.101
    20   1 H        0.925     0.095     1.835     2.118
    21   1 H        0.925     0.102     1.768     2.080
    22   1 H        0.925     0.096     1.824     2.112
    23   1 H        0.925     0.096     1.819     2.109
    24   1 H        0.925     0.101     1.777     2.084
    25   1 H        0.925     0.096     1.822     2.111
    26   1 H        0.925     0.100     1.788     2.091
    27   1 H        0.925     0.096     1.825     2.113
    28   1 H        0.925     0.049     2.331     2.388
    29   1 H        0.924     0.050     2.319     2.381
    30   1 H        0.924     0.050     2.323     2.383
    31   1 H        0.924     0.042     2.421     2.433
    32   1 H        0.925     0.032     2.559     2.502
    33   1 H        0.924     0.029     2.595     2.519
    34   1 H        0.924     0.038     2.478     2.462
    35   1 H        0.924     0.040     2.456     2.451
    36   1 H        0.924     0.040     2.445     2.445
    37   1 H        0.924     0.033     2.543     2.494
    38   1 H        0.924     0.040     2.445     2.445
    39   1 H        0.924     0.037     2.488     2.467
    40   1 H        0.924     0.040     2.450     2.448
    41   1 H        0.925     0.036     2.506     2.476
    42   1 H        0.924     0.021     2.716     2.577

Wiberg/Mayer (AO) data.
largest (>0.10) Wiberg bond orders for each atom

     #   Z sym  total        # sym  WBO       # sym  WBO       # sym  WBO
 ---------------------------------------------------------------------------
     1   6 C    3.983 --     2 C    1.017    15 H    0.979    17 H    0.975
                            16 H    0.962
     2   6 C    3.922 --     1 C    1.017     7 C    0.998    18 H    0.956
                             3 N    0.879
     3   7 N    3.804 --     4 C    0.961     6 C    0.961     5 C    0.961
                             2 C    0.879
     4   6 C    3.929 --    20 H    0.975    21 H    0.973    19 H    0.972
                             3 N    0.961
     5   6 C    3.931 --    22 H    0.976    23 H    0.973    24 H    0.972
                             3 N    0.961
     6   6 C    3.930 --    25 H    0.976    27 H    0.974    26 H    0.969
                             3 N    0.961
     7   6 C    3.985 --     2 C    0.998     8 C    0.978    28 H    0.971
                            29 H    0.970
     8   6 C    3.985 --    14 C    0.999     9 C    0.989     7 C    0.978
                            30 H    0.967
     9   6 C    3.994 --    10 C    1.009     8 C    0.989    31 H    0.978
                            32 H    0.973
    10   6 C    3.996 --     9 C    1.009    11 C    1.007    34 H    0.976
                            33 H    0.972
    11   6 C    3.996 --    12 C    1.010    10 C    1.007    35 H    0.977
                            36 H    0.976
    12   6 C    3.997 --    13 C    1.010    11 C    1.010    37 H    0.976
                            38 H    0.975
    13   6 C    3.995 --    12 C    1.010    14 C    1.004    39 H    0.977
                            40 H    0.975
    14   6 C    3.997 --    13 C    1.004     8 C    0.999    42 H    0.975
                            41 H    0.972
    15   1 H    0.996 --     1 C    0.979
    16   1 H    0.990 --     1 C    0.962
    17   1 H    0.997 --     1 C    0.975
    18   1 H    0.994 --     2 C    0.956
    19   1 H    0.990 --     4 C    0.972
    20   1 H    0.991 --     4 C    0.975
    21   1 H    0.990 --     4 C    0.973
    22   1 H    0.991 --     5 C    0.976
    23   1 H    0.990 --     5 C    0.973
    24   1 H    0.990 --     5 C    0.972
    25   1 H    0.991 --     6 C    0.976
    26   1 H    0.990 --     6 C    0.969
    27   1 H    0.990 --     6 C    0.974
    28   1 H    0.997 --     7 C    0.971
    29   1 H    0.997 --     7 C    0.970
    30   1 H    0.997 --     8 C    0.967
    31   1 H    0.998 --     9 C    0.978
    32   1 H    0.999 --     9 C    0.973
    33   1 H    0.999 --    10 C    0.972
    34   1 H    0.998 --    10 C    0.976
    35   1 H    0.998 --    11 C    0.977
    36   1 H    0.998 --    11 C    0.976
    37   1 H    0.999 --    12 C    0.976
    38   1 H    0.998 --    12 C    0.975
    39   1 H    0.998 --    13 C    0.977
    40   1 H    0.998 --    13 C    0.975
    41   1 H    0.999 --    14 C    0.972
    42   1 H    1.000 --    14 C    0.975
 ---------------------------------------------------------------------------

molecular dipole:
                 x           y           z       tot (Debye)
 q only:        1.374       2.034      -3.835
   full:        1.414       2.102      -3.984      12.000

           -------------------------------------------------
          | TOTAL ENERGY              -44.658464166149 Eh   |
          | GRADIENT NORM               0.000271630236 Eh/α |
          | HOMO-LUMO GAP               7.011095389797 eV   |
           -------------------------------------------------

 * finished run on 2024/12/20 at 07:04:46.529
