   * xtb version 6.7.1 (edcfbbe) compiled by 'conda@3ef47c1a292c' on 2024-11-25

   ID    Z sym.   atoms
    1    6 C      1-3, 5-7
    2    7 N      4
    3    1 H      8-23

          program call               : xtb C0933.xyz --opt --namespace C0933 --charge +1
          :  Hamiltonian                  GFN2-xTB          :
 * total energy  :   -23.5179731 Eh     change       -0.2989964E-10 Eh
 * total energy  :   -23.5231993 Eh     change       -0.5226131E-02 Eh
 * total energy  :   -23.5243530 Eh     change       -0.1153752E-02 Eh
 * total energy  :   -23.5244020 Eh     change       -0.4896374E-04 Eh
 * total energy  :   -23.5244458 Eh     change       -0.4381885E-04 Eh
 * total energy  :   -23.5244681 Eh     change       -0.2230786E-04 Eh
 * total energy  :   -23.5245097 Eh     change       -0.4154940E-04 Eh
 * total energy  :   -23.5245279 Eh     change       -0.1818583E-04 Eh
 * total energy  :   -23.5245420 Eh     change       -0.1416675E-04 Eh
 * total energy  :   -23.5245581 Eh     change       -0.1612205E-04 Eh
 * total energy  :   -23.5247291 Eh     change       -0.8068975E-05 Eh
 * total energy  :   -23.5247370 Eh     change       -0.7920966E-05 Eh
 * total energy  :   -23.5247456 Eh     change       -0.8585956E-05 Eh
 * total energy  :   -23.5247551 Eh     change       -0.9555105E-05 Eh
 * total energy  :   -23.5247649 Eh     change       -0.9796192E-05 Eh
 * total energy  :   -23.5247737 Eh     change       -0.8802749E-05 Eh
 * total energy  :   -23.5247809 Eh     change       -0.7173544E-05 Eh
 * total energy  :   -23.5247865 Eh     change       -0.5588340E-05 Eh
 * total energy  :   -23.5247911 Eh     change       -0.4549923E-05 Eh
   *** GEOMETRY OPTIMIZATION CONVERGED AFTER 34 ITERATIONS ***

 final structure:
================
23
 xtb: 6.7.1 (edcfbbe)
C            0.93651192106969        0.46453549788815        0.01775974964870
C            0.62193730128021        0.01764437279971       -1.40693624776695
C            1.17906354013826       -1.34129444705971       -1.83932857651456
N            0.59643904796894       -2.58211335673642       -1.22949925056638
C           -0.87492584262957       -2.51923220061338       -1.19262928402817
C            1.00183112161918       -3.72960826322343       -2.06689275231354
C            1.11379174288464       -2.80459212995415        0.13314067559863
H            0.29056160766036       -0.00163565587932        0.75799738965611
H            0.77712755355370        1.53641644507234        0.09496843027993
H            1.97536665496902        0.26844881412581        0.27129622115123
H           -0.45118265760535        0.07559796952180       -1.58761511472064
H            1.08861297862853        0.73187857416520       -2.08888317868765
H            1.02738672318996       -1.42320174368180       -2.91801833004171
H            2.25383223617420       -1.36079880869281       -1.64646649521133
H           -1.26557769098548       -2.28386236900318       -2.18112449693135
H           -1.27880771666288       -3.48034519742673       -0.87867048047343
H           -1.20723834034949       -1.76035464318294       -0.48844669893465
H            2.08556898879016       -3.76020069559912       -2.16615618348672
H            0.66866465027666       -4.66147877661591       -1.61311302037214
H            0.56200576663122       -3.65198356639111       -3.05964450392653
H            2.19761407952087       -2.90139585003180        0.11243363621127
H            0.84993889647705       -1.97606425645204        0.78306691273263
H            0.69155743739956       -3.71950971302878        0.54560159869709

          :  Hamiltonian                  GFN2-xTB          :
         :: total energy             -23.524791058546 Eh    ::
         :: gradient norm              0.000166840120 Eh/a0 ::
         :: HOMO-LUMO gap              9.378196705736 eV    ::
         :: SCC energy               -23.861011325218 Eh    ::
         :: -> dispersion             -0.013882622193 Eh    ::
         :: repulsion energy           0.336220266672 Eh    ::

    * Orbital Energies and Occupations

         #    Occupation            Energy/Eh            Energy/eV
      -------------------------------------------------------------
         1        2.0000           -0.8721706             -23.7330
       ...           ...                  ...                  ...
        10        2.0000           -0.7053879             -19.1946
        11        2.0000           -0.6777781             -18.4433
        12        2.0000           -0.6685966             -18.1934
        13        2.0000           -0.6597293             -17.9521
        14        2.0000           -0.6570638             -17.8796
        15        2.0000           -0.6505553             -17.7025
        16        2.0000           -0.6481181             -17.6362
        17        2.0000           -0.6469493             -17.6044
        18        2.0000           -0.6422759             -17.4772
        19        2.0000           -0.6316798             -17.1889
        20        2.0000           -0.6007777             -16.3480
        21        2.0000           -0.5856385             -15.9360
        22        2.0000           -0.5787867             -15.7496 (HOMO)
        23                         -0.2341443              -6.3714 (LUMO)
        24                         -0.1653745              -4.5001
        25                         -0.1555607              -4.2330
        26                         -0.1473070              -4.0084
        27                         -0.0808283              -2.1994
        28                         -0.0590653              -1.6072
        29                         -0.0313113              -0.8520
        30                         -0.0112161              -0.3052
        31                         -0.0029933              -0.0815
        32                          0.0061057               0.1661
        33                          0.0223381               0.6079
       ...                                ...                  ...
        44                          0.1626362               4.4256
      -------------------------------------------------------------
                  HL-Gap            0.3446424 Eh            9.3782 eV

     #   Z          covCN         q      C6AA      α(0)
     1   6 C        3.750    -0.120    22.861     6.819
     2   6 C        3.799    -0.071    21.863     6.658
     3   6 C        3.758    -0.044    21.417     6.598
     4   7 N        3.621     0.146    18.774     6.435
     5   6 C        3.720    -0.097    22.472     6.771
     6   6 C        3.731    -0.099    22.493     6.770
     7   6 C        3.722    -0.101    22.537     6.780
     8   1 H        0.925     0.041     2.442     2.444
     9   1 H        0.925     0.070     2.084     2.258
    10   1 H        0.925     0.053     2.278     2.360
    11   1 H        0.925     0.062     2.177     2.308
    12   1 H        0.924     0.079     1.990     2.206
    13   1 H        0.924     0.085     1.929     2.172
    14   1 H        0.924     0.088     1.895     2.153
    15   1 H        0.925     0.099     1.793     2.094
    16   1 H        0.925     0.099     1.795     2.095
    17   1 H        0.925     0.106     1.735     2.060
    18   1 H        0.925     0.100     1.788     2.091
    19   1 H        0.925     0.101     1.774     2.083
    20   1 H        0.925     0.099     1.793     2.094
    21   1 H        0.925     0.097     1.808     2.103
    22   1 H        0.925     0.110     1.695     2.036
    23   1 H        0.925     0.097     1.811     2.105

Wiberg/Mayer (AO) data.
largest (>0.10) Wiberg bond orders for each atom

     #   Z sym  total        # sym  WBO       # sym  WBO       # sym  WBO
 ---------------------------------------------------------------------------
     1   6 C    3.990 --     2 C    1.019    10 H    0.985     9 H    0.981
                             8 H    0.980
     2   6 C    3.984 --     1 C    1.019     3 C    1.007    11 H    0.971
                            12 H    0.963
     3   6 C    3.927 --     2 C    1.007    13 H    0.968    14 H    0.967
                             4 N    0.919
     4   7 N    3.816 --     5 C    0.959     6 C    0.958     7 C    0.958
                             3 C    0.919
     5   6 C    3.927 --    15 H    0.975    16 H    0.974    17 H    0.972
                             4 N    0.959
     6   6 C    3.928 --    18 H    0.975    20 H    0.975    19 H    0.974
                             4 N    0.958
     7   6 C    3.924 --    21 H    0.975    23 H    0.975    22 H    0.965
                             4 N    0.958
     8   1 H    0.998 --     1 C    0.980
     9   1 H    0.995 --     1 C    0.981
    10   1 H    0.997 --     1 C    0.985
    11   1 H    0.996 --     2 C    0.971
    12   1 H    0.994 --     2 C    0.963
    13   1 H    0.993 --     3 C    0.968
    14   1 H    0.992 --     3 C    0.967
    15   1 H    0.990 --     5 C    0.975
    16   1 H    0.990 --     5 C    0.974
    17   1 H    0.989 --     5 C    0.972
    18   1 H    0.990 --     6 C    0.975
    19   1 H    0.989 --     6 C    0.974
    20   1 H    0.990 --     6 C    0.975
    21   1 H    0.991 --     7 C    0.975
    22   1 H    0.988 --     7 C    0.965
    23   1 H    0.991 --     7 C    0.975
 ---------------------------------------------------------------------------

molecular dipole:
                 x           y           z       tot (Debye)
 q only:        1.124      -4.460      -2.237
   full:        1.140      -4.533      -2.286      13.225

           -------------------------------------------------
          | TOTAL ENERGY              -23.524791058546 Eh   |
          | GRADIENT NORM               0.000166840120 Eh/α |
          | HOMO-LUMO GAP               9.378196705736 eV   |
           -------------------------------------------------

 * finished run on 2024/12/20 at 07:04:46.902
