   * xtb version 6.7.1 (edcfbbe) compiled by 'conda@3ef47c1a292c' on 2024-11-25

   ID    Z sym.   atoms
    1    6 C      1-7, 9-14
    2    7 N      8
    3    1 H      15-44

          program call               : xtb C0937.xyz --opt --namespace C0937 --charge +1
          :  Hamiltonian                  GFN2-xTB          :
 * total energy  :   -45.6587127 Eh     change       -0.8539303E-10 Eh
 * total energy  :   -45.6658809 Eh     change       -0.7168236E-02 Eh
 * total energy  :   -45.6677164 Eh     change       -0.1835530E-02 Eh
 * total energy  :   -45.6678614 Eh     change       -0.1449812E-03 Eh
 * total energy  :   -45.6680608 Eh     change       -0.1993658E-03 Eh
 * total energy  :   -45.6682274 Eh     change       -0.1666626E-03 Eh
 * total energy  :   -45.6685279 Eh     change       -0.3004300E-03 Eh
 * total energy  :   -45.6689370 Eh     change       -0.4090811E-03 Eh
 * total energy  :   -45.6695821 Eh     change       -0.6451129E-03 Eh
 * total energy  :   -45.6702232 Eh     change       -0.6411211E-03 Eh
 * total energy  :   -45.6734951 Eh     change       -0.9304901E-05 Eh
 * total energy  :   -45.6735072 Eh     change       -0.1203825E-04 Eh
 * total energy  :   -45.6735145 Eh     change       -0.7355249E-05 Eh
 * total energy  :   -45.6735219 Eh     change       -0.7408326E-05 Eh
 * total energy  :   -45.6735321 Eh     change       -0.1022439E-04 Eh
 * total energy  :   -45.6735429 Eh     change       -0.1077099E-04 Eh
 * total energy  :   -45.6735508 Eh     change       -0.7859797E-05 Eh
 * total energy  :   -45.6735572 Eh     change       -0.6421403E-05 Eh
 * total energy  :   -45.6735618 Eh     change       -0.4624688E-05 Eh
   *** GEOMETRY OPTIMIZATION CONVERGED AFTER 35 ITERATIONS ***

 final structure:
================
44
 xtb: 6.7.1 (edcfbbe)
C            0.89837606163279        1.15211432247095       -0.31985394404223
C            0.25051298129355        0.74432236025767       -1.63771375206507
C            0.96630887146781       -0.41859231599934       -2.32724229048980
C            0.99767601260144       -1.72460052779302       -1.52953397025293
C           -0.37308644228632       -2.28446311356338       -1.14011885717695
C           -1.30614043701182       -2.58280419438609       -2.32053195766226
C           -0.79579064736902       -3.67480620915668       -3.27226242733567
N           -1.45505024458724       -5.01080213651351       -3.17263120122148
C           -2.93842385567854       -4.91075599187737       -3.39499464085934
C           -3.37943245140851       -4.04039407150918       -4.56196178161337
C           -0.91450339322322       -5.94112557431365       -4.22557959953717
C            0.54023241614716       -5.77735157160990       -4.64616364082182
C           -1.28186125212752       -5.59878886355794       -1.80660026019276
C            0.12585900692798       -6.01665578944117       -1.41391716349818
H            0.81180128917197        0.36683228959597        0.42712763476787
H            0.41543709832710        2.04298198774083        0.07293685807472
H            1.95256059982943        1.37400614849178       -0.46749199627905
H           -0.79939403170489        0.49602145121717       -1.46744681813064
H            0.27244621912259        1.59862815613247       -2.31758573066502
H            0.50352689264745       -0.59219225056376       -3.30217856935760
H            2.00048150579891       -0.12287123064778       -2.51476215980741
H            1.55811651598276       -2.46227291693870       -2.11117152301373
H            1.56021447853435       -1.56127252454170       -0.61006745586411
H           -0.21944351050721       -3.18296984425908       -0.53880413109892
H           -0.87465417289554       -1.55780563377580       -0.50090422841450
H           -2.29270343061203       -2.82594651441383       -1.92736990644521
H           -1.42199557028379       -1.66233603547557       -2.89274463114893
H           -0.91038410586896       -3.34923301393085       -4.30555501841196
H            0.26619485993441       -3.82279455439350       -3.08748786587524
H           -3.30487869152557       -5.92937843569555       -3.54124948952970
H           -3.39670514035444       -4.52623396175520       -2.48306500049861
H           -2.91614565766631       -4.32389413951189       -5.50318919170939
H           -4.45303055124503       -4.16560252687436       -4.67974702622228
H           -3.19180443162178       -2.98694568949027       -4.37877308227084
H           -1.07531934176659       -6.95702400119029       -3.86015463542672
H           -1.52407232781526       -5.81036224140404       -5.12023514814935
H            1.24032930848926       -5.84502961984459       -3.82117329745797
H            0.76676916829152       -6.58959605162838       -5.33347279158529
H            0.71070502392144       -4.84738643450343       -5.18045003091318
H           -1.64423532144889       -4.85965908442275       -1.09126609561598
H           -1.93375679347956       -6.47358147815504       -1.74559775946495
H            0.83730941052908       -5.19870868585192       -1.47766349052441
H            0.09321292280111       -6.33688337746169       -0.37496341191772
H            0.48502115903209       -6.85748610943674       -1.99890852031421

          :  Hamiltonian                  GFN2-xTB          :
         :: total energy             -45.673561823034 Eh    ::
         :: gradient norm              0.000306013113 Eh/a0 ::
         :: HOMO-LUMO gap              7.359054379633 eV    ::
         :: SCC energy               -46.336972709291 Eh    ::
         :: -> dispersion             -0.035175595140 Eh    ::
         :: repulsion energy           0.663410886257 Eh    ::

    * Orbital Energies and Occupations

         #    Occupation            Energy/Eh            Energy/eV
      -------------------------------------------------------------
         1        2.0000           -0.8500314             -23.1305
       ...           ...                  ...                  ...
        31        2.0000           -0.5987108             -16.2917
        32        2.0000           -0.5956475             -16.2084
        33        2.0000           -0.5917368             -16.1020
        34        2.0000           -0.5873486             -15.9826
        35        2.0000           -0.5831579             -15.8685
        36        2.0000           -0.5704905             -15.5238
        37        2.0000           -0.5684595             -15.4686
        38        2.0000           -0.5501397             -14.9701
        39        2.0000           -0.5435562             -14.7909
        40        2.0000           -0.5371128             -14.6156
        41        2.0000           -0.5163790             -14.0514
        42        2.0000           -0.5111486             -13.9091
        43        2.0000           -0.5063029             -13.7772 (HOMO)
        44                         -0.2358626              -6.4181 (LUMO)
        45                         -0.1725456              -4.6952
        46                         -0.1569015              -4.2695
        47                         -0.1532784              -4.1709
        48                         -0.0644895              -1.7548
        49                         -0.0613776              -1.6702
        50                         -0.0513933              -1.3985
        51                         -0.0431528              -1.1742
        52                         -0.0352306              -0.9587
        53                         -0.0322035              -0.8763
        54                         -0.0199294              -0.5423
       ...                                ...                  ...
        86                          0.2192414               5.9659
      -------------------------------------------------------------
                  HL-Gap            0.2704403 Eh            7.3591 eV

     #   Z          covCN         q      C6AA      α(0)
     1   6 C        3.751    -0.107    22.602     6.780
     2   6 C        3.799    -0.055    21.569     6.613
     3   6 C        3.800    -0.062    21.694     6.631
     4   6 C        3.800    -0.063    21.703     6.633
     5   6 C        3.800    -0.068    21.807     6.649
     6   6 C        3.799    -0.072    21.876     6.660
     7   6 C        3.748    -0.038    21.325     6.587
     8   7 N        3.616     0.100    19.516     6.561
     9   6 C        3.764    -0.030    21.145     6.555
    10   6 C        3.751    -0.127    23.005     6.840
    11   6 C        3.753    -0.031    21.186     6.564
    12   6 C        3.750    -0.129    23.043     6.846
    13   6 C        3.758    -0.028    21.128     6.553
    14   6 C        3.751    -0.125    22.954     6.833
    15   1 H        0.925     0.034     2.529     2.487
    16   1 H        0.925     0.042     2.424     2.435
    17   1 H        0.925     0.041     2.433     2.439
    18   1 H        0.924     0.027     2.624     2.533
    19   1 H        0.924     0.038     2.478     2.462
    20   1 H        0.924     0.023     2.690     2.565
    21   1 H        0.924     0.043     2.403     2.424
    22   1 H        0.924     0.019     2.743     2.590
    23   1 H        0.925     0.052     2.293     2.368
    24   1 H        0.924     0.033     2.549     2.497
    25   1 H        0.925     0.058     2.217     2.329
    26   1 H        0.925     0.047     2.364     2.404
    27   1 H        0.925     0.069     2.092     2.262
    28   1 H        0.925     0.081     1.971     2.196
    29   1 H        0.925     0.096     1.818     2.108
    30   1 H        0.924     0.077     2.006     2.215
    31   1 H        0.924     0.082     1.962     2.191
    32   1 H        0.925     0.062     2.171     2.304
    33   1 H        0.925     0.084     1.942     2.179
    34   1 H        0.925     0.072     2.068     2.249
    35   1 H        0.924     0.080     1.974     2.197
    36   1 H        0.924     0.085     1.931     2.173
    37   1 H        0.925     0.069     2.096     2.264
    38   1 H        0.925     0.081     1.966     2.193
    39   1 H        0.925     0.065     2.142     2.289
    40   1 H        0.924     0.086     1.915     2.164
    41   1 H        0.924     0.074     2.040     2.234
    42   1 H        0.925     0.066     2.127     2.281
    43   1 H        0.925     0.080     1.980     2.201
    44   1 H        0.925     0.067     2.120     2.277

Wiberg/Mayer (AO) data.
largest (>0.10) Wiberg bond orders for each atom

     #   Z sym  total        # sym  WBO       # sym  WBO       # sym  WBO
 ---------------------------------------------------------------------------
     1   6 C    3.996 --     2 C    1.020    17 H    0.987    16 H    0.986
                            15 H    0.986
     2   6 C    3.997 --     1 C    1.020     3 C    1.008    19 H    0.977
                            18 H    0.976
     3   6 C    3.996 --     2 C    1.008     4 C    1.007    21 H    0.975
                            20 H    0.975
     4   6 C    3.995 --     5 C    1.008     3 C    1.007    23 H    0.973
                            22 H    0.972
     5   6 C    3.993 --     4 C    1.008     6 C    1.005    24 H    0.973
                            25 H    0.971
     6   6 C    3.986 --     5 C    1.005     7 C    1.001    27 H    0.967
                            26 H    0.966
     7   6 C    3.927 --     6 C    1.001    28 H    0.968    29 H    0.954
                             8 N    0.930
     8   7 N    3.796 --    13 C    0.933     7 C    0.930     9 C    0.929
                            11 C    0.926
     9   6 C    3.939 --    10 C    1.023    30 H    0.969    31 H    0.964
                             8 N    0.929
    10   6 C    3.982 --     9 C    1.023    34 H    0.981    32 H    0.976
                            33 H    0.972
    11   6 C    3.936 --    12 C    1.022    35 H    0.968    36 H    0.964
                             8 N    0.926
    12   6 C    3.982 --    11 C    1.022    39 H    0.982    37 H    0.977
                            38 H    0.972
    13   6 C    3.938 --    14 C    1.022    41 H    0.969    40 H    0.962
                             8 N    0.933
    14   6 C    3.983 --    13 C    1.022    44 H    0.980    42 H    0.977
                            43 H    0.973
    15   1 H    0.999 --     1 C    0.986
    16   1 H    0.998 --     1 C    0.986
    17   1 H    0.998 --     1 C    0.987
    18   1 H    0.999 --     2 C    0.976
    19   1 H    0.999 --     2 C    0.977
    20   1 H    0.999 --     3 C    0.975
    21   1 H    0.998 --     3 C    0.975
    22   1 H    1.000 --     4 C    0.972
    23   1 H    0.997 --     4 C    0.973
    24   1 H    0.999 --     5 C    0.973
    25   1 H    0.996 --     5 C    0.971
    26   1 H    0.998 --     6 C    0.966
    27   1 H    0.995 --     6 C    0.967
    28   1 H    0.993 --     7 C    0.968
    29   1 H    0.991 --     7 C    0.954
    30   1 H    0.994 --     9 C    0.969
    31   1 H    0.993 --     9 C    0.964
    32   1 H    0.996 --    10 C    0.976
    33   1 H    0.993 --    10 C    0.972
    34   1 H    0.995 --    10 C    0.981
    35   1 H    0.993 --    11 C    0.968
    36   1 H    0.993 --    11 C    0.964
    37   1 H    0.995 --    12 C    0.977
    38   1 H    0.993 --    12 C    0.972
    39   1 H    0.996 --    12 C    0.982
    40   1 H    0.993 --    13 C    0.962
    41   1 H    0.994 --    13 C    0.969
    42   1 H    0.996 --    14 C    0.977
    43   1 H    0.993 --    14 C    0.973
    44   1 H    0.995 --    14 C    0.980
 ---------------------------------------------------------------------------

molecular dipole:
                 x           y           z       tot (Debye)
 q only:       -2.356      -8.932      -5.860
   full:       -2.476      -9.048      -5.874      28.132

           -------------------------------------------------
          | TOTAL ENERGY              -45.673561823034 Eh   |
          | GRADIENT NORM               0.000306013113 Eh/α |
          | HOMO-LUMO GAP               7.359054379633 eV   |
           -------------------------------------------------

 * finished run on 2024/12/20 at 07:04:51.299
