   * xtb version 6.7.1 (edcfbbe) compiled by 'conda@3ef47c1a292c' on 2024-11-25

   ID    Z sym.   atoms
    1    8 O      1
    2    6 C      2, 3, 5-10
    3    7 N      4
    4    1 H      11-22

          program call               : xtb C0931.xyz --opt --namespace C0931 --charge +1
          :  Hamiltonian                  GFN2-xTB          :
 * total energy  :   -29.8274448 Eh     change       -0.2666596E-09 Eh
 * total energy  :   -29.8307634 Eh     change       -0.3318640E-02 Eh
 * total energy  :   -29.8315118 Eh     change       -0.7484158E-03 Eh
 * total energy  :   -29.8316318 Eh     change       -0.1200031E-03 Eh
 * total energy  :   -29.8317056 Eh     change       -0.7376507E-04 Eh
 * total energy  :   -29.8317507 Eh     change       -0.4508593E-04 Eh
 * total energy  :   -29.8318001 Eh     change       -0.4939473E-04 Eh
 * total energy  :   -29.8318390 Eh     change       -0.3889612E-04 Eh
 * total energy  :   -29.8318769 Eh     change       -0.3795430E-04 Eh
 * total energy  :   -29.8319015 Eh     change       -0.2463691E-04 Eh
 * total energy  :   -29.8320780 Eh     change       -0.2656212E-04 Eh
 * total energy  :   -29.8320986 Eh     change       -0.2050440E-04 Eh
 * total energy  :   -29.8321200 Eh     change       -0.2142330E-04 Eh
 * total energy  :   -29.8321402 Eh     change       -0.2023597E-04 Eh
 * total energy  :   -29.8321573 Eh     change       -0.1713284E-04 Eh
 * total energy  :   -29.8321725 Eh     change       -0.1513009E-04 Eh
 * total energy  :   -29.8321839 Eh     change       -0.1147264E-04 Eh
 * total energy  :   -29.8321894 Eh     change       -0.5413133E-05 Eh
 * total energy  :   -29.8321916 Eh     change       -0.2236504E-05 Eh
   *** GEOMETRY OPTIMIZATION CONVERGED AFTER 22 ITERATIONS ***

 final structure:
================
22
 xtb: 6.7.1 (edcfbbe)
O            1.27631563520879       -0.32376919303411        1.00169476504447
C            0.62207458582837       -1.55220230431901        0.80591466233617
C            1.06030429400469       -2.08712780065919       -0.56689657591670
N            2.50318139509855       -2.23898947574840       -0.58626501124659
C            3.26448514554999       -1.16593287434275       -0.81170561079567
C            4.64184183400030       -1.25881440818633       -0.74605092848335
C            5.23020103466103       -2.47571477533376       -0.45001059881637
C            4.42645185482046       -3.59663596136171       -0.21693456478244
C            3.05377848702572       -3.42236751027358       -0.29127147748193
C            5.02135685732474       -4.92325943540111        0.09492206665210
H            0.90783445406765        0.13070890157305        1.76620754541892
H            0.89699011339112       -2.27055383241921        1.59186518141764
H           -0.46750474035297       -1.43754898819747        0.79789116670736
H            0.57778631579259       -3.04396851090681       -0.76545461615599
H            0.76962974820991       -1.36408195943737       -1.33102293601471
H            2.76203832634947       -0.23527233227596       -1.02337313927511
H            5.24196668099894       -0.38186527262126       -0.92711940739298
H            6.30432741812793       -2.56679258076731       -0.39621058647532
H            2.38047154378224       -4.24889032998554       -0.11493013717986
H            5.59280740213425       -5.28360287144123       -0.75962127003773
H            5.71302788999969       -4.84047863594806        0.93105101193589
H            4.25994372397663       -5.65815984891335        0.33726046054245

          :  Hamiltonian                  GFN2-xTB          :
         :: total energy             -29.832191596362 Eh    ::
         :: gradient norm              0.000274387245 Eh/a0 ::
         :: HOMO-LUMO gap              3.008410937768 eV    ::
         :: SCC energy               -30.276699436695 Eh    ::
         :: -> dispersion             -0.015761987299 Eh    ::
         :: repulsion energy           0.444507840333 Eh    ::

    * Orbital Energies and Occupations

         #    Occupation            Energy/Eh            Energy/eV
      -------------------------------------------------------------
         1        2.0000           -0.8708595             -23.6973
       ...           ...                  ...                  ...
        15        2.0000           -0.6789896             -18.4762
        16        2.0000           -0.6699188             -18.2294
        17        2.0000           -0.6592669             -17.9396
        18        2.0000           -0.6552949             -17.8315
        19        2.0000           -0.6426195             -17.4866
        20        2.0000           -0.6359710             -17.3057
        21        2.0000           -0.6234191             -16.9641
        22        2.0000           -0.6189371             -16.8421
        23        2.0000           -0.6121900             -16.6585
        24        2.0000           -0.6029300             -16.4066
        25        2.0000           -0.6001091             -16.3298
        26        2.0000           -0.5828000             -15.8588
        27        2.0000           -0.5590327             -15.2121 (HOMO)
        28                         -0.4484756             -12.2036 (LUMO)
        29                         -0.4139990             -11.2655
        30                         -0.2978547              -8.1050
        31                         -0.1703162              -4.6345
        32                         -0.0973351              -2.6486
        33                         -0.0648948              -1.7659
        34                         -0.0606783              -1.6511
        35                         -0.0410671              -1.1175
        36                         -0.0304243              -0.8279
        37                         -0.0124241              -0.3381
        38                         -0.0085768              -0.2334
       ...                                ...                  ...
        52                          0.4481937              12.1960
      -------------------------------------------------------------
                  HL-Gap            0.1105571 Eh            3.0084 eV

     #   Z          covCN         q      C6AA      α(0)
     1   8 O        1.656    -0.437    21.589     6.272
     2   6 C        3.675     0.077    19.524     6.331
     3   6 C        3.761    -0.038    21.296     6.578
     4   7 N        2.750     0.118    19.230     6.513
     5   6 C        2.893     0.034    27.248     8.558
     6   6 C        2.913    -0.013    28.334     8.729
     7   6 C        2.930    -0.002    28.076     8.690
     8   6 C        2.961     0.049    26.888     8.505
     9   6 C        2.897     0.014    27.693     8.628
    10   6 C        3.759    -0.134    23.121     6.855
    11   1 H        0.805     0.316     0.674     1.289
    12   1 H        0.923     0.047     2.361     2.403
    13   1 H        0.924     0.066     2.128     2.281
    14   1 H        0.925     0.093     1.847     2.125
    15   1 H        0.924     0.109     1.708     2.044
    16   1 H        0.926     0.123     1.585     1.969
    17   1 H        0.926     0.106     1.733     2.059
    18   1 H        0.926     0.102     1.769     2.080
    19   1 H        0.926     0.100     1.787     2.090
    20   1 H        0.925     0.098     1.807     2.102
    21   1 H        0.925     0.095     1.828     2.114
    22   1 H        0.925     0.077     2.007     2.216

Wiberg/Mayer (AO) data.
largest (>0.10) Wiberg bond orders for each atom

     #   Z sym  total        # sym  WBO       # sym  WBO       # sym  WBO
 ---------------------------------------------------------------------------
     1   8 O    1.957 --     2 C    1.011    11 H    0.884
     2   6 C    3.958 --     1 O    1.011     3 C    0.978    12 H    0.967
                            13 H    0.963
     3   6 C    3.944 --     2 C    0.978     4 N    0.973    14 H    0.965
                            15 H    0.959
     4   7 N    3.769 --     5 C    1.333     9 C    1.318     3 C    0.973
     5   6 C    3.952 --     6 C    1.437     4 N    1.333    16 H    0.951
     6   6 C    3.982 --     7 C    1.452     5 C    1.437    17 H    0.959
     7   6 C    3.975 --     6 C    1.452     8 C    1.366    18 H    0.961
     8   6 C    3.981 --     9 C    1.423     7 C    1.366    10 C    1.045
     9   6 C    3.958 --     8 C    1.423     4 N    1.318    19 H    0.954
    10   6 C    3.982 --     8 C    1.045    22 H    0.980    21 H    0.956
                            20 H    0.949
    11   1 H    0.900 --     1 O    0.884
    12   1 H    0.998 --     2 C    0.967
    13   1 H    0.994 --     2 C    0.963
    14   1 H    0.991 --     3 C    0.965
    15   1 H    0.988 --     3 C    0.959
    16   1 H    0.984 --     5 C    0.951
    17   1 H    0.988 --     6 C    0.959
    18   1 H    0.990 --     7 C    0.961
    19   1 H    0.990 --     9 C    0.954
    20   1 H    0.990 --    10 C    0.949
    21   1 H    0.991 --    10 C    0.956
    22   1 H    0.994 --    10 C    0.980
 ---------------------------------------------------------------------------

molecular dipole:
                 x           y           z       tot (Debye)
 q only:        5.678      -4.742      -0.442
   full:        5.461      -4.728      -0.298      18.375

           -------------------------------------------------
          | TOTAL ENERGY              -29.832191596362 Eh   |
          | GRADIENT NORM               0.000274387245 Eh/α |
          | HOMO-LUMO GAP               3.008410937768 eV   |
           -------------------------------------------------

 * finished run on 2024/12/20 at 07:04:45.386
