   * xtb version 6.7.1 (edcfbbe) compiled by 'conda@3ef47c1a292c' on 2024-11-25

   ID    Z sym.   atoms
    1    6 C      1-6, 8, 10, 12
    2   16 S      7
    3    7 N      9, 11
    4    1 H      13-33

          program call               : xtb C0936.xyz --opt --namespace C0936 --charge +1
          :  Hamiltonian                  GFN2-xTB          :
 * total energy  :   -38.6700855 Eh     change       -0.5530794E-09 Eh
 * total energy  :   -38.6738031 Eh     change       -0.3717605E-02 Eh
 * total energy  :   -38.6748203 Eh     change       -0.1017154E-02 Eh
 * total energy  :   -38.6752099 Eh     change       -0.3896138E-03 Eh
 * total energy  :   -38.6757628 Eh     change       -0.5528843E-03 Eh
 * total energy  :   -38.6762993 Eh     change       -0.5364993E-03 Eh
 * total energy  :   -38.6770103 Eh     change       -0.7110281E-03 Eh
 * total energy  :   -38.6778339 Eh     change       -0.8235973E-03 Eh
 * total energy  :   -38.6785633 Eh     change       -0.7293463E-03 Eh
 * total energy  :   -38.6791203 Eh     change       -0.5570399E-03 Eh
 * total energy  :   -38.6828753 Eh     change       -0.1441888E-04 Eh
 * total energy  :   -38.6828914 Eh     change       -0.1606393E-04 Eh
 * total energy  :   -38.6829013 Eh     change       -0.9922815E-05 Eh
 * total energy  :   -38.6829028 Eh     change       -0.1481777E-05 Eh
 * total energy  :   -38.6829218 Eh     change       -0.1899879E-04 Eh
 * total energy  :   -38.6829350 Eh     change       -0.1322887E-04 Eh
 * total energy  :   -38.6829458 Eh     change       -0.1077443E-04 Eh
 * total energy  :   -38.6829524 Eh     change       -0.6619398E-05 Eh
 * total energy  :   -38.6829572 Eh     change       -0.4743338E-05 Eh
   *** GEOMETRY OPTIMIZATION CONVERGED AFTER 58 ITERATIONS ***

 final structure:
================
33
 xtb: 6.7.1 (edcfbbe)
C            1.11784977939695       -0.07310875360884       -0.48395497616817
C            0.20000932292214        1.14285478506580       -0.46987619191774
C            0.37260413975934        2.14462956835062       -1.61487987384359
C           -0.38126058947431        1.78953809251408       -2.90124989501971
C           -1.89616297285783        1.99396606860090       -2.80517448126292
C           -2.30347002864044        3.45901509549635       -2.71003495170577
S            0.66463670537597       -1.40350679775491       -1.66560780241928
C            1.65412487872782       -1.17362862583974       -3.07540253127817
N            2.41249002488553       -0.09906061277156       -3.24127329408312
C            3.28117452252774        0.12457211943950       -4.37880848291332
N            1.62824265601532       -2.14475397981300       -3.97431157014345
C            0.84513261650483       -3.35092435542896       -3.83111510279256
H            1.03050853199617       -0.59275808583577        0.47197257287469
H            2.16656843549228        0.18314270296247       -0.62984718927591
H           -0.83660127572435        0.80725848940165       -0.43054547551270
H            0.40648014056871        1.65742371361082        0.47155072978492
H            0.00657640818508        3.11178164149695       -1.27121675608113
H            1.43950440513734        2.28528416405388       -1.82283359133485
H           -0.00286480993420        2.41920045422736       -3.70979759181260
H           -0.19563671507360        0.74931642847194       -3.17821739261166
H           -2.35089952635129        1.56290299072236       -3.69944386617128
H           -2.29376783495034        1.45023170475754       -1.94634874573618
H           -1.88982784405396        4.02559011786934       -3.54103904304290
H           -3.38591888703640        3.54479262366330       -2.74523570856654
H           -1.96488155107098        3.91034943348251       -1.78106402207859
H            2.28138752517552        0.67555274151049       -2.60432079735838
H            2.70886502984024        0.23511628409630       -5.30274266660438
H            3.84040915165964        1.04042922202724       -4.21095379896638
H            3.99302244822332       -0.69521534654214       -4.48591998577855
H            2.16162637795708       -2.03331736124258       -4.82463303058136
H            1.04445719702029       -4.00452300278557       -4.67496452398054
H            1.10711826772509       -3.86920831034620       -2.90744750435552
H           -0.22110652991016       -3.11848320985295       -3.80387245926865

          :  Hamiltonian                  GFN2-xTB          :
         :: total energy             -38.682957157802 Eh    ::
         :: gradient norm              0.000716210875 Eh/a0 ::
         :: HOMO-LUMO gap              3.191220908376 eV    ::
         :: SCC energy               -39.207490448237 Eh    ::
         :: -> dispersion             -0.026038571451 Eh    ::
         :: repulsion energy           0.524533290436 Eh    ::

    * Orbital Energies and Occupations

         #    Occupation            Energy/Eh            Energy/eV
      -------------------------------------------------------------
         1        2.0000           -0.8911354             -24.2490
       ...           ...                  ...                  ...
        24        2.0000           -0.6187554             -16.8372
        25        2.0000           -0.6143540             -16.7174
        26        2.0000           -0.6074376             -16.5292
        27        2.0000           -0.5888321             -16.0229
        28        2.0000           -0.5855704             -15.9342
        29        2.0000           -0.5688450             -15.4791
        30        2.0000           -0.5662144             -15.4075
        31        2.0000           -0.5631266             -15.3235
        32        2.0000           -0.5551762             -15.1071
        33        2.0000           -0.5434760             -14.7887
        34        2.0000           -0.5306354             -14.4393
        35        2.0000           -0.5276088             -14.3570
        36        2.0000           -0.5209407             -14.1755 (HOMO)
        37                         -0.4036655             -10.9843 (LUMO)
        38                         -0.3532254              -9.6118
        39                         -0.3153647              -8.5815
        40                         -0.1858094              -5.0561
        41                         -0.1760855              -4.7915
        42                         -0.1610974              -4.3837
        43                         -0.1187882              -3.2324
        44                         -0.1166785              -3.1750
        45                         -0.0603928              -1.6434
        46                         -0.0539196              -1.4672
        47                         -0.0414200              -1.1271
       ...                                ...                  ...
        74                          0.3579845               9.7413
      -------------------------------------------------------------
                  HL-Gap            0.1172752 Eh            3.1912 eV

     #   Z          covCN         q      C6AA      α(0)
     1   6 C        3.792    -0.030    21.121     6.545
     2   6 C        3.813    -0.070    21.830     6.650
     3   6 C        3.799    -0.065    21.746     6.640
     4   6 C        3.800    -0.062    21.696     6.632
     5   6 C        3.800    -0.056    21.580     6.614
     6   6 C        3.752    -0.109    22.639     6.785
     7  16 S        2.072    -0.010   141.449    20.017
     8   6 C        2.811     0.163    24.475     8.106
     9   7 N        2.723    -0.126    23.729     7.235
    10   6 C        3.689    -0.069    22.029     6.718
    11   7 N        2.763    -0.101    23.220     7.157
    12   6 C        3.697    -0.076    22.122     6.728
    13   1 H        0.925     0.088     1.898     2.154
    14   1 H        0.925     0.064     2.148     2.292
    15   1 H        0.924     0.070     2.084     2.258
    16   1 H        0.924     0.067     2.122     2.278
    17   1 H        0.925     0.065     2.136     2.286
    18   1 H        0.924     0.020     2.735     2.586
    19   1 H        0.924     0.039     2.464     2.455
    20   1 H        0.924     0.013     2.840     2.635
    21   1 H        0.924     0.037     2.483     2.464
    22   1 H        0.924     0.035     2.519     2.482
    23   1 H        0.925     0.041     2.438     2.442
    24   1 H        0.925     0.047     2.352     2.398
    25   1 H        0.925     0.038     2.473     2.459
    26   1 H        0.860     0.221     1.006     1.571
    27   1 H        0.924     0.081     1.969     2.194
    28   1 H        0.925     0.098     1.804     2.101
    29   1 H        0.924     0.083     1.950     2.184
    30   1 H        0.860     0.214     1.039     1.597
    31   1 H        0.925     0.099     1.795     2.095
    32   1 H        0.924     0.096     1.824     2.112
    33   1 H        0.924     0.094     1.839     2.121

Wiberg/Mayer (AO) data.
largest (>0.10) Wiberg bond orders for each atom

     #   Z sym  total        # sym  WBO       # sym  WBO       # sym  WBO
 ---------------------------------------------------------------------------
     1   6 C    3.952 --     2 C    1.012     7 S    0.964    14 H    0.961
                            13 H    0.960
     2   6 C    3.986 --     1 C    1.012     3 C    1.007    15 H    0.967
                            16 H    0.961
     3   6 C    3.993 --     2 C    1.007     4 C    1.006    17 H    0.968
                            18 H    0.964
     4   6 C    3.997 --     5 C    1.007     3 C    1.006    19 H    0.976
                            20 H    0.974
     5   6 C    3.996 --     6 C    1.021     4 C    1.007    21 H    0.977
                            22 H    0.974
     6   6 C    3.994 --     5 C    1.021    23 H    0.987    24 H    0.985
                            25 H    0.984
     7  16 S    2.440 --     8 C    1.164     1 C    0.964
     8   6 C    3.973 --    11 N    1.367     9 N    1.347     7 S    1.164
     9   7 N    3.499 --     8 C    1.347    10 C    0.990    26 H    0.899
                            11 N    0.125
    10   6 C    3.946 --     9 N    0.990    28 H    0.977    29 H    0.970
                            27 H    0.968
    11   7 N    3.528 --     8 C    1.367    12 C    0.995    30 H    0.916
                             9 N    0.125
    12   6 C    3.938 --    11 N    0.995    31 H    0.977    33 H    0.964
                            32 H    0.964
    13   1 H    0.992 --     1 C    0.960
    14   1 H    0.996 --     1 C    0.961
    15   1 H    0.995 --     2 C    0.967
    16   1 H    0.995 --     2 C    0.961
    17   1 H    0.996 --     3 C    0.968
    18   1 H    1.000 --     3 C    0.964
    19   1 H    0.998 --     4 C    0.976
    20   1 H    1.000 --     4 C    0.974
    21   1 H    0.999 --     5 C    0.977
    22   1 H    0.999 --     5 C    0.974
    23   1 H    0.998 --     6 C    0.987
    24   1 H    0.998 --     6 C    0.985
    25   1 H    0.999 --     6 C    0.984
    26   1 H    0.951 --     9 N    0.899
    27   1 H    0.993 --    10 C    0.968
    28   1 H    0.990 --    10 C    0.977
    29   1 H    0.993 --    10 C    0.970
    30   1 H    0.954 --    11 N    0.916
    31   1 H    0.990 --    12 C    0.977
    32   1 H    0.991 --    12 C    0.964
    33   1 H    0.991 --    12 C    0.964
 ---------------------------------------------------------------------------

molecular dipole:
                 x           y           z       tot (Debye)
 q only:        3.092      -1.381      -5.798
   full:        3.325      -1.120      -5.746      17.112

           -------------------------------------------------
          | TOTAL ENERGY              -38.682957157802 Eh   |
          | GRADIENT NORM               0.000716210875 Eh/α |
          | HOMO-LUMO GAP               3.191220908376 eV   |
           -------------------------------------------------

 * finished run on 2024/12/20 at 07:04:49.794
