   * xtb version 6.7.1 (edcfbbe) compiled by 'conda@3ef47c1a292c' on 2024-11-25

   ID    Z sym.   atoms
    1    6 C      1-4, 6-12
    2    7 N      5
    3    1 H      13-36

          program call               : xtb C0938.xyz --opt --namespace C0938 --charge +1
          :  Hamiltonian                  GFN2-xTB          :
 * total energy  :   -38.3354488 Eh     change       -0.1131539E-09 Eh
 * total energy  :   -38.3414248 Eh     change       -0.5975952E-02 Eh
 * total energy  :   -38.3428665 Eh     change       -0.1441749E-02 Eh
 * total energy  :   -38.3429622 Eh     change       -0.9563665E-04 Eh
 * total energy  :   -38.3430427 Eh     change       -0.8057104E-04 Eh
 * total energy  :   -38.3430885 Eh     change       -0.4577141E-04 Eh
 * total energy  :   -38.3431499 Eh     change       -0.6134575E-04 Eh
 * total energy  :   -38.3432140 Eh     change       -0.6418253E-04 Eh
 * total energy  :   -38.3432803 Eh     change       -0.6623109E-04 Eh
 * total energy  :   -38.3433116 Eh     change       -0.3134853E-04 Eh
 * total energy  :   -38.3440364 Eh     change       -0.3375567E-04 Eh
 * total energy  :   -38.3440700 Eh     change       -0.3360640E-04 Eh
 * total energy  :   -38.3441022 Eh     change       -0.3223980E-04 Eh
 * total energy  :   -38.3441325 Eh     change       -0.3024345E-04 Eh
 * total energy  :   -38.3441406 Eh     change       -0.8131431E-05 Eh
 * total energy  :   -38.3441616 Eh     change       -0.2097354E-04 Eh
 * total energy  :   -38.3441707 Eh     change       -0.9086914E-05 Eh
 * total energy  :   -38.3441767 Eh     change       -0.6029273E-05 Eh
 * total energy  :   -38.3441815 Eh     change       -0.4828211E-05 Eh
   *** GEOMETRY OPTIMIZATION CONVERGED AFTER 36 ITERATIONS ***

 final structure:
================
36
 xtb: 6.7.1 (edcfbbe)
C            2.29162290610591        0.03821305784196        0.27783259679652
C            1.11940066719367       -0.81738596288040        0.74341811126915
C            0.78186145864373       -0.60160333379163        2.22376777199947
C            0.16005685414364        0.76662963241606        2.53568035186674
N           -1.32232426766902        0.79772316923202        2.76563615313005
C           -2.00496262769384        0.22189689644082        1.59621926221871
C           -1.65407179448184        0.04448444717096        4.00698257365194
C           -3.09877786295369        0.22178063302850        4.45592139914149
C           -3.39672651467429        1.69278607283071        4.71957364631529
C           -3.11002155124433        2.53645083719771        3.47523329177292
C           -1.69802861901521        2.23365003681387        2.94709884512504
C           -4.23501807961899        2.44644311770465        2.44229249349783
H            2.07542027946239        1.10173757814620        0.35115246231858
H            2.52197883509604       -0.18365758400596       -0.75992764697277
H            3.17651669320041       -0.17159586468324        0.87298524245701
H            0.25172239341353       -0.62012385283148        0.11210229998387
H            1.38548839592164       -1.86682390366649        0.61090675563540
H            0.14315174019379       -1.41317636658703        2.57105104106608
H            1.71270850038038       -0.68242265642331        2.78720691405482
H            0.62735582725813        1.18168803548823        3.43033703233509
H            0.37053046226764        1.44506142523914        1.70665060370560
H           -1.73879721926250        0.78447666009697        0.70369771392806
H           -1.70932489761861       -0.81553513013357        1.46227916585925
H           -3.08055245421589        0.26406642703035        1.72167238444443
H           -0.99299622328333        0.40831315375218        4.79703443235986
H           -1.44371122896808       -1.01243007113735        3.84297702715522
H           -3.23190761162021       -0.35070931468057        5.37420329148172
H           -3.79230314310134       -0.18995713141120        3.72355057412240
H           -4.43758057407386        1.81689211435859        5.01353371638631
H           -2.77656879771393        2.04017251087319        5.54802857808973
H           -3.05967663914474        3.58708050489966        3.78069022813644
H           -1.55180833292331        2.74223402731281        1.99206898716698
H           -0.98850483320251        2.65176945348624        3.66516588618788
H           -5.07504582424818        3.04473048904996        2.78497640955189
H           -3.92003882260969        2.84464162576898        1.48121337441351
H           -4.60801709393781        1.43616926605923        2.30150702934893

          :  Hamiltonian                  GFN2-xTB          :
         :: total energy             -38.344181522654 Eh    ::
         :: gradient norm              0.000297278032 Eh/a0 ::
         :: HOMO-LUMO gap              8.628405587008 eV    ::
         :: SCC energy               -38.892600477305 Eh    ::
         :: -> dispersion             -0.028453065230 Eh    ::
         :: repulsion energy           0.548418954650 Eh    ::

    * Orbital Energies and Occupations

         #    Occupation            Energy/Eh            Energy/eV
      -------------------------------------------------------------
         1        2.0000           -0.8549825             -23.2653
       ...           ...                  ...                  ...
        24        2.0000           -0.6317719             -17.1914
        25        2.0000           -0.6197960             -16.8655
        26        2.0000           -0.6027827             -16.4026
        27        2.0000           -0.6013911             -16.3647
        28        2.0000           -0.5993824             -16.3100
        29        2.0000           -0.5915881             -16.0979
        30        2.0000           -0.5909736             -16.0812
        31        2.0000           -0.5757504             -15.6670
        32        2.0000           -0.5696438             -15.5008
        33        2.0000           -0.5655319             -15.3889
        34        2.0000           -0.5639898             -15.3469
        35        2.0000           -0.5550859             -15.1047
        36        2.0000           -0.5479690             -14.9110 (HOMO)
        37                         -0.2308809              -6.2826 (LUMO)
        38                         -0.1646207              -4.4796
        39                         -0.1573469              -4.2816
        40                         -0.1351771              -3.6784
        41                         -0.0916950              -2.4951
        42                         -0.0701347              -1.9085
        43                         -0.0594762              -1.6184
        44                         -0.0574604              -1.5636
        45                         -0.0450165              -1.2250
        46                         -0.0383899              -1.0446
        47                         -0.0281405              -0.7657
       ...                                ...                  ...
        72                          0.1912350               5.2038
      -------------------------------------------------------------
                  HL-Gap            0.3170881 Eh            8.6284 eV

     #   Z          covCN         q      C6AA      α(0)
     1   6 C        3.752    -0.114    22.751     6.802
     2   6 C        3.799    -0.064    21.737     6.638
     3   6 C        3.800    -0.073    21.900     6.663
     4   6 C        3.765    -0.039    21.320     6.581
     5   7 N        3.620     0.120    19.179     6.504
     6   6 C        3.712    -0.090    22.366     6.758
     7   6 C        3.761    -0.031    21.177     6.560
     8   6 C        3.803    -0.070    21.845     6.654
     9   6 C        3.808    -0.076    21.937     6.667
    10   6 C        3.850    -0.021    20.918     6.505
    11   6 C        3.766    -0.037    21.280     6.575
    12   6 C        3.752    -0.123    22.912     6.826
    13   1 H        0.925     0.034     2.535     2.490
    14   1 H        0.925     0.057     2.234     2.338
    15   1 H        0.925     0.050     2.321     2.382
    16   1 H        0.924     0.038     2.475     2.460
    17   1 H        0.924     0.056     2.241     2.341
    18   1 H        0.925     0.049     2.330     2.387
    19   1 H        0.924     0.073     2.058     2.243
    20   1 H        0.924     0.074     2.040     2.234
    21   1 H        0.924     0.088     1.899     2.155
    22   1 H        0.925     0.090     1.877     2.142
    23   1 H        0.925     0.096     1.826     2.113
    24   1 H        0.925     0.104     1.745     2.066
    25   1 H        0.924     0.082     1.962     2.190
    26   1 H        0.925     0.080     1.981     2.201
    27   1 H        0.924     0.075     2.027     2.227
    28   1 H        0.925     0.060     2.200     2.320
    29   1 H        0.925     0.072     2.060     2.245
    30   1 H        0.924     0.053     2.283     2.363
    31   1 H        0.924     0.069     2.099     2.266
    32   1 H        0.924     0.079     1.986     2.204
    33   1 H        0.924     0.077     2.010     2.217
    34   1 H        0.925     0.066     2.129     2.282
    35   1 H        0.925     0.051     2.306     2.375
    36   1 H        0.925     0.047     2.363     2.404

Wiberg/Mayer (AO) data.
largest (>0.10) Wiberg bond orders for each atom

     #   Z sym  total        # sym  WBO       # sym  WBO       # sym  WBO
 ---------------------------------------------------------------------------
     1   6 C    3.993 --     2 C    1.021    15 H    0.986    14 H    0.984
                            13 H    0.984
     2   6 C    3.993 --     1 C    1.021     3 C    1.005    16 H    0.975
                            17 H    0.975
     3   6 C    3.984 --     2 C    1.005     4 C    1.003    19 H    0.969
                            18 H    0.965
     4   6 C    3.931 --     3 C    1.003    20 H    0.970    21 H    0.963
                             5 N    0.926
     5   7 N    3.806 --     6 C    0.962     7 C    0.933    11 C    0.929
                             4 C    0.926
     6   6 C    3.929 --    22 H    0.975    23 H    0.971     5 N    0.962
                            24 H    0.961
     7   6 C    3.937 --     8 C    1.008    25 H    0.967    26 H    0.964
                             5 N    0.933
     8   6 C    3.987 --     9 C    1.009     7 C    1.008    28 H    0.968
                            27 H    0.966
     9   6 C    3.992 --     8 C    1.009    10 C    0.996    30 H    0.975
                            29 H    0.971
    10   6 C    3.986 --    12 C    1.009     9 C    0.996    11 C    0.991
                            31 H    0.958
    11   6 C    3.933 --    10 C    0.991    33 H    0.968    32 H    0.967
                             5 N    0.929
    12   6 C    3.990 --    10 C    1.009    35 H    0.984    34 H    0.982
                            36 H    0.976
    13   1 H    0.999 --     1 C    0.984
    14   1 H    0.997 --     1 C    0.984
    15   1 H    0.997 --     1 C    0.986
    16   1 H    0.999 --     2 C    0.975
    17   1 H    0.997 --     2 C    0.975
    18   1 H    0.998 --     3 C    0.965
    19   1 H    0.994 --     3 C    0.969
    20   1 H    0.994 --     4 C    0.970
    21   1 H    0.992 --     4 C    0.963
    22   1 H    0.992 --     6 C    0.975
    23   1 H    0.991 --     6 C    0.971
    24   1 H    0.989 --     6 C    0.961
    25   1 H    0.993 --     7 C    0.967
    26   1 H    0.994 --     7 C    0.964
    27   1 H    0.994 --     8 C    0.966
    28   1 H    0.996 --     8 C    0.968
    29   1 H    0.994 --     9 C    0.971
    30   1 H    0.997 --     9 C    0.975
    31   1 H    0.995 --    10 C    0.958
    32   1 H    0.994 --    11 C    0.967
    33   1 H    0.994 --    11 C    0.968
    34   1 H    0.995 --    12 C    0.982
    35   1 H    0.997 --    12 C    0.984
    36   1 H    0.998 --    12 C    0.976
 ---------------------------------------------------------------------------

molecular dipole:
                 x           y           z       tot (Debye)
 q only:       -2.772       1.506       5.262
   full:       -2.666       1.524       5.276      15.516

           -------------------------------------------------
          | TOTAL ENERGY              -38.344181522654 Eh   |
          | GRADIENT NORM               0.000297278032 Eh/α |
          | HOMO-LUMO GAP               8.628405587008 eV   |
           -------------------------------------------------

 * finished run on 2024/12/20 at 07:04:52.519
