   * xtb version 6.7.1 (edcfbbe) compiled by 'conda@3ef47c1a292c' on 2024-11-25

   ID    Z sym.   atoms
    1    8 O      1
    2    6 C      2-8, 10-12
    3    7 N      9
    4    1 H      13-28

          program call               : xtb C0934.xyz --opt --namespace C0934 --charge +1
          :  Hamiltonian                  GFN2-xTB          :
 * total energy  :   -36.1492801 Eh     change       -0.1803713E-09 Eh
 * total energy  :   -36.1554744 Eh     change       -0.6194316E-02 Eh
 * total energy  :   -36.1570652 Eh     change       -0.1590743E-02 Eh
 * total energy  :   -36.1572218 Eh     change       -0.1566896E-03 Eh
 * total energy  :   -36.1573502 Eh     change       -0.1283034E-03 Eh
 * total energy  :   -36.1573952 Eh     change       -0.4502792E-04 Eh
 * total energy  :   -36.1574460 Eh     change       -0.5078869E-04 Eh
 * total energy  :   -36.1574705 Eh     change       -0.2450609E-04 Eh
 * total energy  :   -36.1574797 Eh     change       -0.9179582E-05 Eh
 * total energy  :   -36.1574866 Eh     change       -0.6902658E-05 Eh
 * total energy  :   -36.1574914 Eh     change       -0.4810591E-05 Eh
   *** GEOMETRY OPTIMIZATION CONVERGED AFTER 11 ITERATIONS ***

 final structure:
================
28
 xtb: 6.7.1 (edcfbbe)
O            2.31175587552513       -0.09017459951754       -0.09203953976886
C            0.97266908620245       -0.04723588661247       -0.07598175931950
C            0.35003249065762        1.13963851148461       -0.47018478491775
C           -1.02343574080844        1.23709869860586       -0.46792198648310
C           -1.81733196117158        0.16375483370456       -0.06421537326423
C           -1.19266871773517       -1.02269935406864        0.30976195224656
C            0.18355487122604       -1.13094866818397        0.30692034380934
C           -3.31672444141036        0.26729425443471       -0.08113479125601
N           -3.91676985531168        0.78581437245713        1.20180626071246
C           -3.43638753284511        2.15104696037851        1.47287890335568
C           -5.38316834316579        0.80478915624421        1.06229009625376
C           -3.54577018620621       -0.08989455410196        2.32568959599967
H            2.64523186029996       -0.96026487320358        0.16364346317343
H            0.96768113884292        1.96379479808113       -0.78639671912047
H           -1.48241111326004        2.15442819062848       -0.80602615287310
H           -1.78343830506428       -1.88288487258374        0.58920841561205
H            0.65042410459127       -2.06307385067509        0.59100484783772
H           -3.63154495650185        0.94174326885693       -0.87993239888124
H           -3.75131327967301       -0.71731288999457       -0.26495831843816
H           -3.72271820637618        2.81795681805936        0.66185917878292
H           -3.86985955466069        2.52279812326027        2.39948555963050
H           -2.35178744851376        2.15188077633146        1.56422912298765
H           -5.75909624716089       -0.19974716740040        0.87499395933808
H           -5.84238326814243        1.18354688755040        1.97403128574780
H           -5.67643568505734        1.44587655969417        0.23259056897886
H           -3.91137471738256       -1.10000555948972        2.15156386551663
H           -2.46272243735189       -0.12028550987491        2.42985719061593
H           -3.98033742954570        0.28423557593536        3.25078721372373

          :  Hamiltonian                  GFN2-xTB          :
         :: total energy             -36.157491367917 Eh    ::
         :: gradient norm              0.000435818038 Eh/a0 ::
         :: HOMO-LUMO gap              4.197992757079 eV    ::
         :: SCC energy               -36.701045690938 Eh    ::
         :: -> dispersion             -0.023036466973 Eh    ::
         :: repulsion energy           0.543554323022 Eh    ::

    * Orbital Energies and Occupations

         #    Occupation            Energy/Eh            Energy/eV
      -------------------------------------------------------------
         1        2.0000           -0.8652979             -23.5460
       ...           ...                  ...                  ...
        21        2.0000           -0.6425948             -17.4859
        22        2.0000           -0.6421597             -17.4741
        23        2.0000           -0.6402642             -17.4225
        24        2.0000           -0.6391705             -17.3927
        25        2.0000           -0.6326406             -17.2150
        26        2.0000           -0.6100861             -16.6013
        27        2.0000           -0.6044165             -16.4470
        28        2.0000           -0.5909815             -16.0814
        29        2.0000           -0.5862133             -15.9517
        30        2.0000           -0.5735569             -15.6073
        31        2.0000           -0.5438917             -14.8000
        32        2.0000           -0.5316119             -14.4659
        33        2.0000           -0.5048547             -13.7378 (HOMO)
        34                         -0.3505813              -9.5398 (LUMO)
        35                         -0.3486517              -9.4873
        36                         -0.2346316              -6.3847
        37                         -0.2017157              -5.4890
        38                         -0.1487875              -4.0487
        39                         -0.1409867              -3.8364
        40                         -0.1391580              -3.7867
        41                         -0.0625096              -1.7010
        42                         -0.0381962              -1.0394
        43                         -0.0262929              -0.7155
        44                          0.0042607               0.1159
       ...                                ...                  ...
        64                          0.5365492              14.6002
      -------------------------------------------------------------
                  HL-Gap            0.1542734 Eh            4.1980 eV

     #   Z          covCN         q      C6AA      α(0)
     1   8 O        1.661    -0.356    20.015     6.039
     2   6 C        2.845     0.162    24.494     8.111
     3   6 C        2.918    -0.049    29.226     8.865
     4   6 C        2.922    -0.041    29.009     8.832
     5   6 C        2.966    -0.023    28.566     8.767
     6   6 C        2.922    -0.040    28.988     8.829
     7   6 C        2.916    -0.068    29.682     8.934
     8   6 C        3.764    -0.043    21.390     6.592
     9   7 N        3.622     0.142    18.834     6.446
    10   6 C        3.722    -0.097    22.462     6.768
    11   6 C        3.725    -0.097    22.461     6.767
    12   6 C        3.722    -0.096    22.448     6.766
    13   1 H        0.805     0.319     0.668     1.283
    14   1 H        0.926     0.076     2.016     2.220
    15   1 H        0.926     0.047     2.354     2.399
    16   1 H        0.926     0.044     2.396     2.421
    17   1 H        0.926     0.052     2.293     2.368
    18   1 H        0.924     0.086     1.919     2.166
    19   1 H        0.924     0.085     1.925     2.170
    20   1 H        0.925     0.098     1.805     2.101
    21   1 H        0.925     0.097     1.813     2.105
    22   1 H        0.925     0.105     1.739     2.062
    23   1 H        0.925     0.098     1.801     2.099
    24   1 H        0.925     0.100     1.787     2.091
    25   1 H        0.925     0.099     1.797     2.096
    26   1 H        0.925     0.097     1.808     2.103
    27   1 H        0.925     0.104     1.751     2.069
    28   1 H        0.925     0.097     1.812     2.105

Wiberg/Mayer (AO) data.
largest (>0.10) Wiberg bond orders for each atom

     #   Z sym  total        # sym  WBO       # sym  WBO       # sym  WBO
 ---------------------------------------------------------------------------
     1   8 O    2.181 --     2 C    1.126    13 H    0.876
     2   6 C    3.943 --     7 C    1.353     3 C    1.336     1 O    1.126
     3   6 C    3.987 --     4 C    1.481     2 C    1.336    14 H    0.965
     4   6 C    3.991 --     3 C    1.481     5 C    1.383    15 H    0.967
     5   6 C    3.972 --     6 C    1.398     4 C    1.383     8 C    1.010
     6   6 C    3.991 --     7 C    1.463     5 C    1.398    16 H    0.968
     7   6 C    3.988 --     6 C    1.463     2 C    1.353    17 H    0.965
     8   6 C    3.925 --     5 C    1.010    19 H    0.966    18 H    0.965
                             9 N    0.902
     9   7 N    3.813 --    11 C    0.960    12 C    0.960    10 C    0.959
                             8 C    0.902
    10   6 C    3.927 --    20 H    0.975    21 H    0.975    22 H    0.970
                             9 N    0.959
    11   6 C    3.929 --    25 H    0.975    23 H    0.975    24 H    0.974
                             9 N    0.960
    12   6 C    3.928 --    26 H    0.975    28 H    0.975    27 H    0.971
                             9 N    0.960
    13   1 H    0.898 --     1 O    0.876
    14   1 H    0.994 --     3 C    0.965
    15   1 H    0.998 --     4 C    0.967
    16   1 H    0.998 --     6 C    0.968
    17   1 H    0.997 --     7 C    0.965
    18   1 H    0.992 --     8 C    0.965
    19   1 H    0.992 --     8 C    0.966
    20   1 H    0.990 --    10 C    0.975
    21   1 H    0.991 --    10 C    0.975
    22   1 H    0.989 --    10 C    0.970
    23   1 H    0.990 --    11 C    0.975
    24   1 H    0.989 --    11 C    0.974
    25   1 H    0.990 --    11 C    0.975
    26   1 H    0.990 --    12 C    0.975
    27   1 H    0.989 --    12 C    0.971
    28   1 H    0.990 --    12 C    0.975
 ---------------------------------------------------------------------------

molecular dipole:
                 x           y           z       tot (Debye)
 q only:       -6.296       0.992       2.257
   full:       -6.373       0.763       2.290      17.322

           -------------------------------------------------
          | TOTAL ENERGY              -36.157491367917 Eh   |
          | GRADIENT NORM               0.000435818038 Eh/α |
          | HOMO-LUMO GAP               4.197992757079 eV   |
           -------------------------------------------------

 * finished run on 2024/12/20 at 07:04:47.514
