   * xtb version 6.7.1 (edcfbbe) compiled by 'conda@3ef47c1a292c' on 2024-11-25

   ID    Z sym.   atoms
    1    6 C      1-8, 10-15
    2   15 P      9
    3    1 H      16-47

          program call               : xtb C0939.xyz --opt --namespace C0939 --charge +1
          :  Hamiltonian                  GFN2-xTB          :
 * total energy  :   -48.4329138 Eh     change       -0.2439151E-09 Eh
 * total energy  :   -48.4381860 Eh     change       -0.5272153E-02 Eh
 * total energy  :   -48.4396223 Eh     change       -0.1436368E-02 Eh
 * total energy  :   -48.4398101 Eh     change       -0.1877993E-03 Eh
 * total energy  :   -48.4399251 Eh     change       -0.1149163E-03 Eh
 * total energy  :   -48.4400583 Eh     change       -0.1332915E-03 Eh
 * total energy  :   -48.4402847 Eh     change       -0.2263657E-03 Eh
 * total energy  :   -48.4406135 Eh     change       -0.3288341E-03 Eh
 * total energy  :   -48.4409785 Eh     change       -0.3649272E-03 Eh
 * total energy  :   -48.4413742 Eh     change       -0.3957644E-03 Eh
 * total energy  :   -48.4427463 Eh     change       -0.1076527E-04 Eh
 * total energy  :   -48.4427589 Eh     change       -0.1259862E-04 Eh
 * total energy  :   -48.4427664 Eh     change       -0.7557213E-05 Eh
 * total energy  :   -48.4427771 Eh     change       -0.1070484E-04 Eh
 * total energy  :   -48.4427834 Eh     change       -0.6217593E-05 Eh
 * total energy  :   -48.4427903 Eh     change       -0.6900023E-05 Eh
 * total energy  :   -48.4427995 Eh     change       -0.9279244E-05 Eh
 * total energy  :   -48.4428063 Eh     change       -0.6790610E-05 Eh
 * total energy  :   -48.4428102 Eh     change       -0.3853657E-05 Eh
   *** GEOMETRY OPTIMIZATION CONVERGED AFTER 30 ITERATIONS ***

 final structure:
================
47
 xtb: 6.7.1 (edcfbbe)
C            0.69757337903625        1.47126666734466        0.16757306161670
C            0.02689329856621        0.27535455895786        0.84984867486994
C            0.53545405371214        0.09427673967363        2.28404007228418
C            0.32882742425459        1.30708577280777        3.19391478121993
C           -1.13708515481465        1.70495565007041        3.35804782627615
C           -1.32737318837024        2.89347168607154        4.30270579495641
C           -0.79432980096820        4.22622069724698        3.77167853225719
C           -1.54153282748482        4.73059007611339        2.54159858820044
P            0.26840406943788        1.68018230660715       -1.59217874055245
C            1.26034980530248        0.58770177583925       -2.67343541752355
C            1.01032417940201       -0.90683011703325       -2.50513002120920
C           -1.50120637420165        1.33478580771086       -1.88445017038295
C           -2.42923496106575        2.35249679773556       -1.22867264001196
C            0.67856802325089        3.38052263499494       -2.14601940807964
C            0.54312474113526        4.46493130382986       -1.08079272857852
H            1.78738520542327        1.38279989690109        0.22532647239945
H            0.40707021788058        2.39156473609754        0.67923799054412
H           -1.05392795869297        0.41709416774618        0.86975744458851
H            0.22959948354898       -0.64265483981227        0.29650772646617
H            0.01879043452580       -0.76413144012784        2.71643120895762
H            1.60100869768785       -0.14438777392910        2.25557413252338
H            0.72976498015940        1.05769139178067        4.17767212259555
H            0.90916861211670        2.15249341190520        2.82187715647806
H           -1.57986971566905        1.94914771690492        2.39106402865187
H           -1.68607462955336        0.85097391870113        3.76008716713880
H           -2.39392901704871        3.00590983282245        4.50804820587499
H           -0.83250841585471        2.67130086274501        5.24981498842092
H           -0.89634747532606        4.96921068049210        4.56409930087922
H            0.27092515554015        4.14273673815808        3.54669183515319
H           -2.60509306388817        4.81366090156952        2.75217340032582
H           -1.17306246160497        5.71191532401429        2.25239122296591
H           -1.41386690144896        4.05897295205855        1.69373554597415
H            1.03823564195829        0.89403106915308       -3.70122502612797
H            2.31214233685465        0.81889683487700       -2.47727804566708
H           -0.03814235282567       -1.15606240957106       -2.64885632908945
H            1.58731846868886       -1.45179903079486       -3.24839279003082
H            1.32577363469930       -1.25358829048890       -1.52482882282834
H           -1.65056413320909        1.32384743908764       -2.96842406785866
H           -1.70700588367381        0.33027621518692       -1.50543642126440
H           -2.29884502866496        3.34164062065044       -1.66053928173487
H           -3.46341757922082        2.05588912541087       -1.38562519070621
H           -2.25951035636049        2.41300268021867       -0.15597898514704
H            1.70715444994902        3.35624276561998       -2.51765752508154
H            0.02520874437105        3.59642414095000       -2.99701488457905
H            1.27845650060300        4.33552330476302       -0.29069655754808
H            0.71975996053475        5.43569507015184       -1.53766259027761
H           -0.44964421868996        4.48207962878121       -0.63884163733793

          :  Hamiltonian                  GFN2-xTB          :
         :: total energy             -48.442810178517 Eh    ::
         :: gradient norm              0.000311333690 Eh/a0 ::
         :: HOMO-LUMO gap              5.790259321783 eV    ::
         :: SCC energy               -49.161209689460 Eh    ::
         :: -> dispersion             -0.039258216959 Eh    ::
         :: repulsion energy           0.718399510943 Eh    ::

    * Orbital Energies and Occupations

         #    Occupation            Energy/Eh            Energy/eV
      -------------------------------------------------------------
         1        2.0000           -0.8513729             -23.1670
       ...           ...                  ...                  ...
        34        2.0000           -0.5821097             -15.8400
        35        2.0000           -0.5785853             -15.7441
        36        2.0000           -0.5771837             -15.7060
        37        2.0000           -0.5732718             -15.5995
        38        2.0000           -0.5651517             -15.3786
        39        2.0000           -0.5636536             -15.3378
        40        2.0000           -0.5542888             -15.0830
        41        2.0000           -0.5415436             -14.7362
        42        2.0000           -0.5344852             -14.5441
        43        2.0000           -0.5314742             -14.4621
        44        2.0000           -0.5122141             -13.9381
        45        2.0000           -0.5100562             -13.8793
        46        2.0000           -0.5054330             -13.7535 (HOMO)
        47                         -0.2926449              -7.9633 (LUMO)
        48                         -0.2841930              -7.7333
        49                         -0.2732284              -7.4349
        50                         -0.1960083              -5.3337
        51                         -0.1146474              -3.1197
        52                         -0.0767900              -2.0896
        53                         -0.0468939              -1.2760
        54                         -0.0434011              -1.1810
        55                         -0.0343778              -0.9355
        56                         -0.0279608              -0.7609
        57                         -0.0247214              -0.6727
       ...                                ...                  ...
        97                          0.7523562              20.4727
      -------------------------------------------------------------
                  HL-Gap            0.2127881 Eh            5.7903 eV

     #   Z          covCN         q      C6AA      α(0)
     1   6 C        3.751    -0.071    21.928     6.678
     2   6 C        3.855    -0.061    21.635     6.615
     3   6 C        3.802    -0.065    21.754     6.640
     4   6 C        3.801    -0.066    21.757     6.641
     5   6 C        3.801    -0.059    21.643     6.624
     6   6 C        3.801    -0.063    21.718     6.635
     7   6 C        3.799    -0.056    21.581     6.614
     8   6 C        3.751    -0.100    22.471     6.760
     9  15 P        3.948     0.182   152.411    22.177
    10   6 C        3.749    -0.073    21.964     6.684
    11   6 C        3.799    -0.116    22.716     6.786
    12   6 C        3.749    -0.068    21.869     6.670
    13   6 C        3.818    -0.113    22.651     6.773
    14   6 C        3.749    -0.073    21.968     6.685
    15   6 C        3.798    -0.117    22.741     6.790
    16   1 H        0.927     0.091     1.868     2.137
    17   1 H        0.927     0.104     1.747     2.067
    18   1 H        0.924     0.056     2.243     2.342
    19   1 H        0.924     0.048     2.341     2.393
    20   1 H        0.924     0.054     2.269     2.355
    21   1 H        0.924     0.041     2.430     2.438
    22   1 H        0.924     0.049     2.336     2.390
    23   1 H        0.924     0.032     2.562     2.503
    24   1 H        0.924     0.023     2.689     2.565
    25   1 H        0.924     0.037     2.489     2.467
    26   1 H        0.924     0.040     2.443     2.444
    27   1 H        0.924     0.039     2.462     2.454
    28   1 H        0.924     0.041     2.432     2.439
    29   1 H        0.924     0.027     2.624     2.533
    30   1 H        0.925     0.042     2.426     2.436
    31   1 H        0.925     0.035     2.513     2.479
    32   1 H        0.925     0.012     2.852     2.641
    33   1 H        0.927     0.089     1.885     2.147
    34   1 H        0.927     0.090     1.878     2.143
    35   1 H        0.925     0.061     2.193     2.316
    36   1 H        0.925     0.077     2.006     2.215
    37   1 H        0.925     0.064     2.156     2.296
    38   1 H        0.927     0.090     1.881     2.145
    39   1 H        0.927     0.094     1.843     2.123
    40   1 H        0.925     0.063     2.158     2.297
    41   1 H        0.925     0.076     2.025     2.226
    42   1 H        0.925     0.061     2.190     2.314
    43   1 H        0.926     0.088     1.897     2.154
    44   1 H        0.927     0.091     1.871     2.139
    45   1 H        0.925     0.063     2.164     2.301
    46   1 H        0.925     0.076     2.017     2.221
    47   1 H        0.925     0.065     2.139     2.287

Wiberg/Mayer (AO) data.
largest (>0.10) Wiberg bond orders for each atom

     #   Z sym  total        # sym  WBO       # sym  WBO       # sym  WBO
 ---------------------------------------------------------------------------
     1   6 C    3.984 --     9 P    1.012     2 C    0.983    16 H    0.931
                            17 H    0.924
     2   6 C    3.988 --     3 C    1.000     1 C    0.983    19 H    0.967
                            18 H    0.967
     3   6 C    3.990 --     4 C    1.007     2 C    1.000    21 H    0.976
                            20 H    0.973
     4   6 C    3.995 --     5 C    1.009     3 C    1.007    22 H    0.974
                            23 H    0.971
     5   6 C    3.998 --     4 C    1.009     6 C    1.006    25 H    0.977
                            24 H    0.970
     6   6 C    3.996 --     7 C    1.008     5 C    1.006    27 H    0.977
                            26 H    0.976
     7   6 C    3.997 --     8 C    1.020     6 C    1.008    28 H    0.977
                            29 H    0.975
     8   6 C    3.997 --     7 C    1.020    31 H    0.987    30 H    0.987
                            32 H    0.982
     9  15 P    4.557 --     1 C    1.012    10 C    1.010    12 C    1.008
                            14 C    1.005
    10   6 C    3.989 --     9 P    1.010    11 C    1.003    34 H    0.936
                            33 H    0.934
    11   6 C    3.983 --    10 C    1.003    35 H    0.980    37 H    0.978
                            36 H    0.977
    12   6 C    3.989 --     9 P    1.008    13 C    1.001    38 H    0.935
                            39 H    0.933
    13   6 C    3.986 --    12 C    1.001    40 H    0.979    41 H    0.978
                            42 H    0.976
    14   6 C    3.987 --     9 P    1.005    15 C    1.003    43 H    0.938
                            44 H    0.935
    15   6 C    3.983 --    14 C    1.003    45 H    0.980    46 H    0.977
                            47 H    0.976
    16   1 H    0.992 --     1 C    0.931
    17   1 H    0.989 --     1 C    0.924
    18   1 H    0.997 --     2 C    0.967
    19   1 H    0.997 --     2 C    0.967
    20   1 H    0.996 --     3 C    0.973
    21   1 H    0.998 --     3 C    0.976
    22   1 H    0.997 --     4 C    0.974
    23   1 H    0.999 --     4 C    0.971
    24   1 H    0.999 --     5 C    0.970
    25   1 H    0.999 --     5 C    0.977
    26   1 H    0.998 --     6 C    0.976
    27   1 H    0.998 --     6 C    0.977
    28   1 H    0.998 --     7 C    0.977
    29   1 H    0.999 --     7 C    0.975
    30   1 H    0.998 --     8 C    0.987
    31   1 H    0.999 --     8 C    0.987
    32   1 H    1.000 --     8 C    0.982
    33   1 H    0.992 --    10 C    0.934
    34   1 H    0.991 --    10 C    0.936
    35   1 H    0.996 --    11 C    0.980
    36   1 H    0.993 --    11 C    0.977
    37   1 H    0.996 --    11 C    0.978
    38   1 H    0.992 --    12 C    0.935
    39   1 H    0.991 --    12 C    0.933
    40   1 H    0.996 --    13 C    0.979
    41   1 H    0.994 --    13 C    0.978
    42   1 H    0.996 --    13 C    0.976
    43   1 H    0.992 --    14 C    0.938
    44   1 H    0.991 --    14 C    0.935
    45   1 H    0.996 --    15 C    0.980
    46   1 H    0.994 --    15 C    0.977
    47   1 H    0.996 --    15 C    0.976
 ---------------------------------------------------------------------------

molecular dipole:
                 x           y           z       tot (Debye)
 q only:        0.230       3.217      -2.275
   full:        0.310       3.214      -2.445      10.295

           -------------------------------------------------
          | TOTAL ENERGY              -48.442810178517 Eh   |
          | GRADIENT NORM               0.000311333690 Eh/α |
          | HOMO-LUMO GAP               5.790259321783 eV   |
           -------------------------------------------------

 * finished run on 2024/12/20 at 07:04:54.098
