   * xtb version 6.7.1 (edcfbbe) compiled by 'conda@3ef47c1a292c' on 2024-11-25

   ID    Z sym.   atoms
    1    8 O      1, 11, 14
    2    7 N      2, 5, 8
    3    6 C      3, 4, 6, 7, 9, 10, 12, 13
    4    1 H      15-26

          program call               : xtb C0935.xyz --opt --namespace C0935 --charge +1
          :  Hamiltonian                  GFN2-xTB          :
 * total energy  :   -43.7578818 Eh     change       -0.5107808E-09 Eh
 * total energy  :   -43.7681416 Eh     change       -0.1025975E-01 Eh
 * total energy  :   -43.7706955 Eh     change       -0.2553911E-02 Eh
 * total energy  :   -43.7711940 Eh     change       -0.4985224E-03 Eh
 * total energy  :   -43.7716492 Eh     change       -0.4551612E-03 Eh
 * total energy  :   -43.7721215 Eh     change       -0.4723236E-03 Eh
 * total energy  :   -43.7726015 Eh     change       -0.4800101E-03 Eh
 * total energy  :   -43.7730414 Eh     change       -0.4399259E-03 Eh
 * total energy  :   -43.7733745 Eh     change       -0.3330699E-03 Eh
 * total energy  :   -43.7736289 Eh     change       -0.2543467E-03 Eh
 * total energy  :   -43.7777616 Eh     change       -0.1192295E-04 Eh
 * total energy  :   -43.7777851 Eh     change       -0.2349540E-04 Eh
 * total energy  :   -43.7778083 Eh     change       -0.2328280E-04 Eh
 * total energy  :   -43.7778242 Eh     change       -0.1584711E-04 Eh
 * total energy  :   -43.7778545 Eh     change       -0.3034331E-04 Eh
 * total energy  :   -43.7778684 Eh     change       -0.1389324E-04 Eh
 * total energy  :   -43.7778711 Eh     change       -0.2627645E-05 Eh
 * total energy  :   -43.7778825 Eh     change       -0.1142889E-04 Eh
 * total energy  :   -43.7778872 Eh     change       -0.4686347E-05 Eh
   *** GEOMETRY OPTIMIZATION CONVERGED AFTER 54 ITERATIONS ***

 final structure:
================
26
 xtb: 6.7.1 (edcfbbe)
O           -0.10226116875957       -0.30734174164649       -1.51062581965152
N           -0.02922984067940       -0.37296294740535       -0.12795574190678
C           -1.04392055165339       -0.14215530291964        0.56883887652387
C           -2.46142443260439        0.22981768291025        0.18436082521632
N           -2.69307058572599        0.23455253052762       -1.23906338008871
C           -3.13602530089931       -0.82566264247291       -1.97630953977565
C           -3.15922159879069       -0.43745566276340       -3.27980010468954
N           -2.73027549139411        0.85385075073033       -3.30973833103302
C           -2.44712555166738        1.24559890743224       -2.06817770905927
C           -1.92053912409009        2.61369915647385       -1.70680868308639
O           -2.04103818737450        3.42797821103606       -2.83217197072135
C           -2.45319805767206        4.71087742284088       -2.37098057560067
C           -3.28512335320225        4.36318667301546       -1.13683868405699
O           -2.65052514668675        3.18211494807245       -0.64914215670257
H            0.78695026198779       -0.56474569259104       -1.80107178458516
H           -0.87363058883998       -0.21624841143516        1.63331245527195
H           -3.14544397577526       -0.48414785370934        0.65114092378255
H           -2.67010859078521        1.22874382396965        0.58124259482132
H           -3.39393989748074       -1.76453753207796       -1.52988441006337
H           -3.44432750373181       -0.97776400024892       -4.15908000713130
H           -2.62116216098488        1.45132604197673       -4.11967188216167
H           -0.86421487599853        2.51055709147550       -1.38508317750037
H           -3.01616557251978        5.18912038899736       -3.16927565936538
H           -1.57759422862195        5.31351123132037       -2.10789559692148
H           -4.32604842824788        4.14131602329783       -1.39748920442340
H           -3.24614604780179        5.11634090319421       -0.35222125708998

          :  Hamiltonian                  GFN2-xTB          :
         :: total energy             -43.777887165423 Eh    ::
         :: gradient norm              0.000566616350 Eh/a0 ::
         :: HOMO-LUMO gap              3.191130213348 eV    ::
         :: SCC energy               -44.255648940346 Eh    ::
         :: -> dispersion             -0.022479092738 Eh    ::
         :: repulsion energy           0.477761774923 Eh    ::

    * Orbital Energies and Occupations

         #    Occupation            Energy/Eh            Energy/eV
      -------------------------------------------------------------
         1        2.0000           -0.8978635             -24.4321
       ...           ...                  ...                  ...
        26        2.0000           -0.6633944             -18.0519
        27        2.0000           -0.6580788             -17.9072
        28        2.0000           -0.6484537             -17.6453
        29        2.0000           -0.6448046             -17.5460
        30        2.0000           -0.6380369             -17.3619
        31        2.0000           -0.6323271             -17.2065
        32        2.0000           -0.6258420             -17.0300
        33        2.0000           -0.6070080             -16.5175
        34        2.0000           -0.5852216             -15.9247
        35        2.0000           -0.5606980             -15.2574
        36        2.0000           -0.5595877             -15.2272
        37        2.0000           -0.5554110             -15.1135
        38        2.0000           -0.5268292             -14.3358 (HOMO)
        39                         -0.4095573             -11.1446 (LUMO)
        40                         -0.3747142             -10.1965
        41                         -0.3707907             -10.0897
        42                         -0.1869225              -5.0864
        43                         -0.1757850              -4.7834
        44                         -0.1697508              -4.6192
        45                         -0.1409589              -3.8357
        46                         -0.1128221              -3.0700
        47                         -0.0800888              -2.1793
        48                         -0.0411721              -1.1203
        49                         -0.0371180              -1.0100
       ...                                ...                  ...
        68                          0.4720145              12.8442
      -------------------------------------------------------------
                  HL-Gap            0.1172719 Eh            3.1911 eV

     #   Z          covCN         q      C6AA      α(0)
     1   8 O        1.723    -0.363    20.127     6.057
     2   7 N        1.826    -0.070    23.329     7.157
     3   6 C        2.818     0.041    27.061     8.523
     4   6 C        3.743    -0.035    21.275     6.580
     5   7 N        2.873     0.080    19.842     6.616
     6   6 C        3.072     0.001    27.941     8.667
     7   6 C        3.045     0.010    27.762     8.642
     8   7 N        2.837    -0.020    21.630     6.908
     9   6 C        3.116     0.099    25.654     8.297
    10   6 C        3.741     0.252    16.797     5.847
    11   8 O        1.705    -0.318    19.311     5.933
    12   6 C        3.755     0.067    19.509     6.298
    13   6 C        3.735     0.067    19.537     6.308
    14   8 O        1.702    -0.323    19.408     5.948
    15   1 H        0.804     0.337     0.620     1.237
    16   1 H        0.926     0.102     1.768     2.079
    17   1 H        0.924     0.107     1.719     2.050
    18   1 H        0.924     0.118     1.630     1.997
    19   1 H        0.926     0.116     1.644     2.005
    20   1 H        0.926     0.119     1.618     1.989
    21   1 H        0.860     0.240     0.922     1.504
    22   1 H        0.922     0.071     2.079     2.255
    23   1 H        0.925     0.086     1.918     2.166
    24   1 H        0.924     0.069     2.102     2.267
    25   1 H        0.924     0.060     2.197     2.318
    26   1 H        0.925     0.087     1.906     2.159

Wiberg/Mayer (AO) data.
largest (>0.10) Wiberg bond orders for each atom

     #   Z sym  total        # sym  WBO       # sym  WBO       # sym  WBO
 ---------------------------------------------------------------------------
     1   8 O    2.069 --     2 N    1.040    15 H    0.877     3 C    0.110
     2   7 N    3.046 --     3 C    1.898     1 O    1.040
     3   6 C    3.975 --     2 N    1.898     4 C    0.978    16 H    0.941
                             1 O    0.110
     4   6 C    3.940 --     3 C    0.978     5 N    0.976    17 H    0.947
                            18 H    0.936
     5   7 N    3.720 --     9 C    1.358     6 C    1.215     4 C    0.976
     6   6 C    3.946 --     7 C    1.604     5 N    1.215    19 H    0.959
     7   6 C    3.942 --     6 C    1.604     8 N    1.228    20 H    0.959
     8   7 N    3.659 --     9 C    1.348     7 C    1.228    21 H    0.913
     9   6 C    3.955 --     5 N    1.358     8 N    1.348    10 C    0.969
    10   6 C    3.944 --    11 O    0.997    14 O    0.979     9 C    0.969
                            22 H    0.924
    11   8 O    2.075 --    10 C    0.997    12 C    0.954
    12   6 C    3.927 --    13 C    0.998    24 H    0.969    23 H    0.968
                            11 O    0.954
    13   6 C    3.930 --    12 C    0.998    25 H    0.971    26 H    0.967
                            14 O    0.953
    14   8 O    2.068 --    10 C    0.979    13 C    0.953
    15   1 H    0.887 --     1 O    0.877
    16   1 H    0.989 --     3 C    0.941
    17   1 H    0.988 --     4 C    0.947
    18   1 H    0.986 --     4 C    0.936
    19   1 H    0.986 --     6 C    0.959
    20   1 H    0.985 --     7 C    0.959
    21   1 H    0.942 --     8 N    0.913
    22   1 H    0.995 --    10 C    0.924
    23   1 H    0.992 --    12 C    0.968
    24   1 H    0.995 --    12 C    0.969
    25   1 H    0.996 --    13 C    0.971
    26   1 H    0.992 --    13 C    0.967
 ---------------------------------------------------------------------------

molecular dipole:
                 x           y           z       tot (Debye)
 q only:       -4.915       1.857      -3.490
   full:       -5.020       2.043      -3.656      16.617

           -------------------------------------------------
          | TOTAL ENERGY              -43.777887165423 Eh   |
          | GRADIENT NORM               0.000566616350 Eh/α |
          | HOMO-LUMO GAP               3.191130213348 eV   |
           -------------------------------------------------

 * finished run on 2024/12/20 at 07:04:48.504
