   * xtb version 6.7.1 (edcfbbe) compiled by 'conda@3ef47c1a292c' on 2024-11-25

   ID    Z sym.   atoms
    1    6 C      1, 3-10
    2    7 N      2
    3    1 H      11-24

          program call               : xtb C0945.xyz --opt --namespace C0945 --charge +1
          :  Hamiltonian                  GFN2-xTB          :
 * total energy  :   -28.9042178 Eh     change       -0.3516639E-08 Eh
 * total energy  :   -28.9098164 Eh     change       -0.5598517E-02 Eh
 * total energy  :   -28.9108771 Eh     change       -0.1060783E-02 Eh
 * total energy  :   -28.9109238 Eh     change       -0.4668207E-04 Eh
 * total energy  :   -28.9109674 Eh     change       -0.4356441E-04 Eh
 * total energy  :   -28.9109885 Eh     change       -0.2111385E-04 Eh
 * total energy  :   -28.9110238 Eh     change       -0.3527018E-04 Eh
 * total energy  :   -28.9110728 Eh     change       -0.4904043E-04 Eh
 * total energy  :   -28.9111040 Eh     change       -0.3115305E-04 Eh
 * total energy  :   -28.9111261 Eh     change       -0.2215368E-04 Eh
 * total energy  :   -28.9111641 Eh     change       -0.1886391E-04 Eh
 * total energy  :   -28.9111821 Eh     change       -0.1800014E-04 Eh
 * total energy  :   -28.9111965 Eh     change       -0.1441802E-04 Eh
 * total energy  :   -28.9112071 Eh     change       -0.1059464E-04 Eh
 * total energy  :   -28.9112153 Eh     change       -0.8226331E-05 Eh
 * total energy  :   -28.9112227 Eh     change       -0.7361745E-05 Eh
 * total energy  :   -28.9112297 Eh     change       -0.7047607E-05 Eh
 * total energy  :   -28.9112360 Eh     change       -0.6322084E-05 Eh
 * total energy  :   -28.9112410 Eh     change       -0.4932535E-05 Eh
   *** GEOMETRY OPTIMIZATION CONVERGED AFTER 20 ITERATIONS ***

 final structure:
================
24
 xtb: 6.7.1 (edcfbbe)
C            1.18497921145731        0.14026822225978       -0.31281860071333
N            0.70392821959612       -0.10968036490080       -1.68829216222805
C            0.28137540872648        1.18081629670303       -2.30187396290782
C           -1.00247915205454        1.37847381206738       -2.78571782604544
C           -1.34538610199181        2.59702192461035       -3.35402024984854
C           -0.41976601363692        3.61977840737334       -3.44297899342121
C            0.86265963209536        3.41988420558031       -2.96059552336038
C            1.21473022540016        2.20758257622639       -2.39449707577365
C           -0.39117454618987       -1.09500398508252       -1.60914351637641
C            1.78557715645998       -0.69451399034095       -2.50872664339177
H            1.47063256920881       -0.79919306988080        0.15764767735306
H            0.39337565393809        0.60558394381538        0.27256641957205
H            2.04720382723994        0.80172102302452       -0.31505593999084
H           -1.75974269883332        0.61534594313546       -2.74033524096561
H           -2.34709825201129        2.73582382136431       -3.72775690054045
H           -0.69304033035490        4.56423717773416       -3.88466515209899
H            1.59714537819246        4.20671053272221       -3.02240236657106
H            2.22408320379597        2.08854587423043       -2.03354372659050
H           -0.75420036315897       -1.34480795025838       -2.60409230420336
H           -0.02081576481087       -2.00620660686707       -1.14160189871263
H           -1.20949935777888       -0.70700394632573       -1.00546355890027
H            2.64454386012805       -0.02945750571204       -2.54803206149689
H            2.10053918248381       -1.64746387712460       -2.08648791987778
H            1.42745905209881       -0.85595246435433       -3.52446247291007

          :  Hamiltonian                  GFN2-xTB          :
         :: total energy             -28.911240961786 Eh    ::
         :: gradient norm              0.000215799400 Eh/a0 ::
         :: HOMO-LUMO gap              4.755573961972 eV    ::
         :: SCC energy               -29.400963440196 Eh    ::
         :: -> dispersion             -0.018932698390 Eh    ::
         :: repulsion energy           0.489722478410 Eh    ::

    * Orbital Energies and Occupations

         #    Occupation            Energy/Eh            Energy/eV
      -------------------------------------------------------------
         1        2.0000           -0.8666640             -23.5831
       ...           ...                  ...                  ...
        15        2.0000           -0.6599717             -17.9587
        16        2.0000           -0.6501223             -17.6907
        17        2.0000           -0.6494166             -17.6715
        18        2.0000           -0.6467643             -17.5994
        19        2.0000           -0.6434460             -17.5091
        20        2.0000           -0.6416017             -17.4589
        21        2.0000           -0.6294338             -17.1278
        22        2.0000           -0.6257114             -17.0265
        23        2.0000           -0.6213717             -16.9084
        24        2.0000           -0.5757952             -15.6682
        25        2.0000           -0.5679556             -15.4549
        26        2.0000           -0.5577749             -15.1778
        27        2.0000           -0.5554957             -15.1158 (HOMO)
        28                         -0.3807316             -10.3602 (LUMO)
        29                         -0.3737309             -10.1697
        30                         -0.2465854              -6.7099
        31                         -0.2290607              -6.2331
        32                         -0.1597606              -4.3473
        33                         -0.1426716              -3.8823
        34                         -0.1283127              -3.4916
        35                         -0.0670610              -1.8248
        36                         -0.0140427              -0.3821
        37                         -0.0049987              -0.1360
        38                          0.0168196               0.4577
       ...                                ...                  ...
        54                          0.5141432              13.9905
      -------------------------------------------------------------
                  HL-Gap            0.1747641 Eh            4.7556 eV

     #   Z          covCN         q      C6AA      α(0)
     1   6 C        3.725    -0.091    22.343     6.749
     2   7 N        3.624     0.136    18.931     6.462
     3   6 C        2.930     0.029    27.351     8.577
     4   6 C        2.919    -0.040    28.990     8.829
     5   6 C        2.922    -0.016    28.418     8.742
     6   6 C        2.918    -0.014    28.367     8.734
     7   6 C        2.921    -0.016    28.409     8.741
     8   6 C        2.921    -0.038    28.943     8.822
     9   6 C        3.725    -0.092    22.370     6.753
    10   6 C        3.725    -0.090    22.335     6.748
    11   1 H        0.925     0.097     1.810     2.104
    12   1 H        0.925     0.098     1.804     2.100
    13   1 H        0.925     0.100     1.783     2.088
    14   1 H        0.926     0.064     2.152     2.294
    15   1 H        0.926     0.075     2.036     2.232
    16   1 H        0.926     0.077     2.008     2.216
    17   1 H        0.926     0.074     2.041     2.234
    18   1 H        0.926     0.054     2.268     2.355
    19   1 H        0.925     0.100     1.783     2.088
    20   1 H        0.925     0.098     1.808     2.103
    21   1 H        0.925     0.100     1.781     2.087
    22   1 H        0.925     0.100     1.785     2.089
    23   1 H        0.925     0.097     1.808     2.103
    24   1 H        0.925     0.098     1.807     2.102

Wiberg/Mayer (AO) data.
largest (>0.10) Wiberg bond orders for each atom

     #   Z sym  total        # sym  WBO       # sym  WBO       # sym  WBO
 ---------------------------------------------------------------------------
     1   6 C    3.927 --    12 H    0.976    11 H    0.974    13 H    0.972
                             2 N    0.953
     2   7 N    3.810 --     9 C    0.960     1 C    0.953    10 C    0.952
                             3 C    0.901
     3   6 C    3.919 --     4 C    1.427     8 C    1.407     2 N    0.901
                             6 C    0.108
     4   6 C    3.989 --     3 C    1.427     5 C    1.426    14 H    0.962
                             7 C    0.109
     5   6 C    3.987 --     6 C    1.448     4 C    1.426    15 H    0.966
                             8 C    0.112
     6   6 C    3.985 --     5 C    1.448     7 C    1.432    16 H    0.966
                             3 C    0.108
     7   6 C    3.987 --     8 C    1.446     6 C    1.432    17 H    0.966
                             4 C    0.109
     8   6 C    3.990 --     7 C    1.446     3 C    1.407    18 H    0.960
                             5 C    0.112
     9   6 C    3.928 --    21 H    0.974    19 H    0.974    20 H    0.973
                             2 N    0.960
    10   6 C    3.927 --    24 H    0.976    23 H    0.974    22 H    0.973
                             2 N    0.952
    11   1 H    0.990 --     1 C    0.974
    12   1 H    0.990 --     1 C    0.976
    13   1 H    0.990 --     1 C    0.972
    14   1 H    0.996 --     4 C    0.962
    15   1 H    0.994 --     5 C    0.966
    16   1 H    0.993 --     6 C    0.966
    17   1 H    0.994 --     7 C    0.966
    18   1 H    0.997 --     8 C    0.960
    19   1 H    0.990 --     9 C    0.974
    20   1 H    0.990 --     9 C    0.973
    21   1 H    0.990 --     9 C    0.974
    22   1 H    0.990 --    10 C    0.973
    23   1 H    0.990 --    10 C    0.974
    24   1 H    0.990 --    10 C    0.976
 ---------------------------------------------------------------------------

molecular dipole:
                 x           y           z       tot (Debye)
 q only:        1.083       0.600      -3.576
   full:        1.113       0.525      -3.540       9.525

           -------------------------------------------------
          | TOTAL ENERGY              -28.911240961786 Eh   |
          | GRADIENT NORM               0.000215799400 Eh/α |
          | HOMO-LUMO GAP               4.755573961972 eV   |
           -------------------------------------------------

 * finished run on 2024/12/20 at 07:05:06.093
