   * xtb version 6.7.1 (edcfbbe) compiled by 'conda@3ef47c1a292c' on 2024-11-25

   ID    Z sym.   atoms
    1    6 C      1, 3, 4, 6-19
    2    7 N      2, 5
    3    1 H      20-36

          program call               : xtb C0948.xyz --opt --namespace C0948 --charge +1
          :  Hamiltonian                  GFN2-xTB          :
 * total energy  :   -50.5232792 Eh     change       -0.9855867E-09 Eh
 * total energy  :   -50.5290100 Eh     change       -0.5730819E-02 Eh
 * total energy  :   -50.5302018 Eh     change       -0.1191791E-02 Eh
 * total energy  :   -50.5304204 Eh     change       -0.2185683E-03 Eh
 * total energy  :   -50.5305493 Eh     change       -0.1289445E-03 Eh
 * total energy  :   -50.5306119 Eh     change       -0.6252072E-04 Eh
 * total energy  :   -50.5306801 Eh     change       -0.6826954E-04 Eh
 * total energy  :   -50.5307402 Eh     change       -0.6005783E-04 Eh
 * total energy  :   -50.5307746 Eh     change       -0.3442216E-04 Eh
 * total energy  :   -50.5307973 Eh     change       -0.2268252E-04 Eh
 * total energy  :   -50.5309034 Eh     change       -0.3895410E-04 Eh
 * total energy  :   -50.5309317 Eh     change       -0.2827398E-04 Eh
 * total energy  :   -50.5309550 Eh     change       -0.2332443E-04 Eh
 * total energy  :   -50.5309705 Eh     change       -0.1548211E-04 Eh
 * total energy  :   -50.5309750 Eh     change       -0.4527864E-05 Eh
 * total energy  :   -50.5309839 Eh     change       -0.8832037E-05 Eh
 * total energy  :   -50.5309947 Eh     change       -0.1083431E-04 Eh
 * total energy  :   -50.5310057 Eh     change       -0.1096590E-04 Eh
 * total energy  :   -50.5310104 Eh     change       -0.4759097E-05 Eh
   *** GEOMETRY OPTIMIZATION CONVERGED AFTER 22 ITERATIONS ***

 final structure:
================
36
 xtb: 6.7.1 (edcfbbe)
C            0.26072956297508       -0.12211716134322       -0.11814116698480
N            0.30367066199049       -0.76505248587932        1.16739897289022
C            1.21481345526485       -1.70118968741782        1.55383031708177
C            0.90077508373659       -2.06883660774822        2.82640170322104
N           -0.19926475690331       -1.35786188408372        3.19457246536785
C           -0.53885191216696       -0.57062781740127        2.17940363865084
C           -0.81659278584101       -1.38870846163123        4.51686086743431
C            0.00730880241716       -0.54906423520678        5.47251233765368
C            0.28583754561301       -1.03400725500892        6.74315057273205
C            1.01491468679454       -0.26791048955378        7.63618044620137
C            1.47759795453763        0.98251142904748        7.26345241834973
C            1.20379172185818        1.46964721122259        5.99627832946624
C            0.46943260912653        0.70876217687496        5.10400552397194
C           -2.27306649000053       -0.96747809117494        4.41905517748954
C           -2.78129218918994        0.10814443635296        5.13219347241149
C           -4.12172343516998        0.44203184502044        5.02355569908216
C           -4.96002892330505       -0.28997108935999        4.20153492749915
C           -4.45770037603317       -1.36743653927004        3.48932619497663
C           -3.12235961995309       -1.70766622310251        3.60064304997017
H           -0.49135421875189        0.66352909593774       -0.11371934339583
H            0.01175899717685       -0.84776586845482       -0.89401725353703
H            1.23283988609217        0.31263931131424       -0.35099721971904
H            2.00486439713680       -2.03497779295904        0.91254832222379
H            1.37725979883562       -2.77098100062336        3.47956057543692
H           -1.37576297412844        0.10060888766979        2.17501111178353
H           -0.78045006204192       -2.43311981621110        4.85204386241791
H           -0.07710094333397       -2.00715601732533        7.03887345732538
H            1.22194243822226       -0.65101267155433        8.62295005185876
H            2.04755408500476        1.57830299174770        7.95864136002017
H            1.55709709503223        2.44572911687436        5.70208210461297
H            0.24940031616804        1.10460433216659        4.12145146124341
H           -2.13803324614695        0.68013932391362        5.78254728456299
H           -4.50873032696121        1.27519426839239        5.58886069937917
H           -6.00355755721942       -0.02943905495282        4.12168587659048
H           -5.10771641677843       -1.94926653646461        2.85454178454726
H           -2.73894286405861       -2.55934763980629        3.05509091718579

          :  Hamiltonian                  GFN2-xTB          :
         :: total energy             -50.531010424279 Eh    ::
         :: gradient norm              0.000342906104 Eh/a0 ::
         :: HOMO-LUMO gap              3.125703332085 eV    ::
         :: SCC energy               -51.442421647347 Eh    ::
         :: -> dispersion             -0.038298014414 Eh    ::
         :: repulsion energy           0.911411223068 Eh    ::

    * Orbital Energies and Occupations

         #    Occupation            Energy/Eh            Energy/eV
      -------------------------------------------------------------
         1        2.0000           -0.8886281             -24.1808
       ...           ...                  ...                  ...
        35        2.0000           -0.5894461             -16.0396
        36        2.0000           -0.5878546             -15.9963
        37        2.0000           -0.5825660             -15.8524
        38        2.0000           -0.5806687             -15.8008
        39        2.0000           -0.5780880             -15.7306
        40        2.0000           -0.5407208             -14.7138
        41        2.0000           -0.5359724             -14.5846
        42        2.0000           -0.5328210             -14.4988
        43        2.0000           -0.5299289             -14.4201
        44        2.0000           -0.5183601             -14.1053
        45        2.0000           -0.5170488             -14.0696
        46        2.0000           -0.5162467             -14.0478
        47        2.0000           -0.5134387             -13.9714 (HOMO)
        48                         -0.3985713             -10.8457 (LUMO)
        49                         -0.3642305              -9.9112
        50                         -0.3444579              -9.3732
        51                         -0.3375129              -9.1842
        52                         -0.3358683              -9.1394
        53                         -0.3342128              -9.0944
        54                         -0.2154323              -5.8622
        55                         -0.2069605              -5.6317
        56                         -0.1695215              -4.6129
        57                         -0.1197411              -3.2583
        58                         -0.0552311              -1.5029
       ...                                ...                  ...
        93                          0.5527002              15.0397
      -------------------------------------------------------------
                  HL-Gap            0.1148675 Eh            3.1257 eV

     #   Z          covCN         q      C6AA      α(0)
     1   6 C        3.692    -0.084    22.297     6.757
     2   7 N        2.868     0.072    19.989     6.640
     3   6 C        3.072    -0.009    28.168     8.702
     4   6 C        3.074    -0.004    28.048     8.683
     5   7 N        2.875     0.062    20.157     6.668
     6   6 C        3.098     0.052    26.721     8.472
     7   6 C        3.802     0.015    20.318     6.417
     8   6 C        2.974    -0.002    28.068     8.690
     9   6 C        2.923    -0.033    28.818     8.803
    10   6 C        2.920    -0.021    28.519     8.757
    11   6 C        2.920    -0.021    28.527     8.759
    12   6 C        2.919    -0.024    28.600     8.770
    13   6 C        2.922    -0.037    28.931     8.821
    14   6 C        2.972    -0.008    28.204     8.711
    15   6 C        2.921    -0.033    28.830     8.805
    16   6 C        2.920    -0.023    28.567     8.765
    17   6 C        2.920    -0.022    28.544     8.761
    18   6 C        2.919    -0.024    28.615     8.772
    19   6 C        2.924    -0.043    29.058     8.840
    20   1 H        0.925     0.097     1.809     2.103
    21   1 H        0.924     0.105     1.742     2.064
    22   1 H        0.925     0.105     1.736     2.061
    23   1 H        0.926     0.107     1.724     2.053
    24   1 H        0.926     0.105     1.740     2.063
    25   1 H        0.926     0.110     1.693     2.034
    26   1 H        0.924     0.081     1.974     2.197
    27   1 H        0.926     0.044     2.390     2.417
    28   1 H        0.926     0.059     2.214     2.327
    29   1 H        0.926     0.058     2.217     2.328
    30   1 H        0.926     0.051     2.306     2.375
    31   1 H        0.925     0.020     2.731     2.585
    32   1 H        0.926     0.047     2.355     2.400
    33   1 H        0.926     0.056     2.241     2.341
    34   1 H        0.926     0.058     2.223     2.331
    35   1 H        0.926     0.053     2.284     2.363
    36   1 H        0.925     0.028     2.618     2.530

Wiberg/Mayer (AO) data.
largest (>0.10) Wiberg bond orders for each atom

     #   Z sym  total        # sym  WBO       # sym  WBO       # sym  WBO
 ---------------------------------------------------------------------------
     1   6 C    3.935 --     2 N    0.991    20 H    0.976    22 H    0.965
                            21 H    0.962
     2   7 N    3.714 --     6 C    1.354     3 C    1.224     1 C    0.991
     3   6 C    3.947 --     4 C    1.593     2 N    1.224    23 H    0.962
     4   6 C    3.951 --     3 C    1.593     5 N    1.231    24 H    0.962
     5   7 N    3.714 --     6 C    1.366     4 C    1.231     7 C    0.934
     6   6 C    3.946 --     5 N    1.366     2 N    1.354    25 H    0.953
     7   6 C    3.930 --    14 C    0.970     8 C    0.969    26 H    0.944
                             5 N    0.934
     8   6 C    3.979 --     9 C    1.413    13 C    1.410     7 C    0.969
                            11 C    0.109
     9   6 C    3.989 --    10 C    1.441     8 C    1.413    27 H    0.968
                            12 C    0.110
    10   6 C    3.989 --    11 C    1.441     9 C    1.441    28 H    0.968
                            13 C    0.111
    11   6 C    3.988 --    10 C    1.441    12 C    1.437    29 H    0.969
                             8 C    0.109
    12   6 C    3.991 --    13 C    1.445    11 C    1.437    30 H    0.970
                             9 C    0.110
    13   6 C    3.992 --    12 C    1.445     8 C    1.410    31 H    0.967
                            10 C    0.111
    14   6 C    3.979 --    15 C    1.425    19 C    1.402     7 C    0.970
                            17 C    0.110
    15   6 C    3.991 --    16 C    1.434    14 C    1.425    32 H    0.965
                            18 C    0.109
    16   6 C    3.990 --    17 C    1.447    15 C    1.434    33 H    0.969
                            19 C    0.113
    17   6 C    3.989 --    16 C    1.447    18 C    1.431    34 H    0.969
                            14 C    0.110
    18   6 C    3.990 --    19 C    1.452    17 C    1.431    35 H    0.969
                            15 C    0.109
    19   6 C    3.991 --    18 C    1.452    14 C    1.402    36 H    0.970
                            16 C    0.113
    20   1 H    0.990 --     1 C    0.976
    21   1 H    0.988 --     1 C    0.962
    22   1 H    0.988 --     1 C    0.965
    23   1 H    0.988 --     3 C    0.962
    24   1 H    0.989 --     4 C    0.962
    25   1 H    0.988 --     6 C    0.953
    26   1 H    0.993 --     7 C    0.944
    27   1 H    0.998 --     9 C    0.968
    28   1 H    0.996 --    10 C    0.968
    29   1 H    0.996 --    11 C    0.969
    30   1 H    0.997 --    12 C    0.970
    31   1 H    1.000 --    13 C    0.967
    32   1 H    0.998 --    15 C    0.965
    33   1 H    0.996 --    16 C    0.969
    34   1 H    0.996 --    17 C    0.969
    35   1 H    0.997 --    18 C    0.969
    36   1 H    0.999 --    19 C    0.970
 ---------------------------------------------------------------------------

molecular dipole:
                 x           y           z       tot (Debye)
 q only:       -0.327      -1.390       4.917
   full:       -0.341      -1.447       4.860      12.917

           -------------------------------------------------
          | TOTAL ENERGY              -50.531010424279 Eh   |
          | GRADIENT NORM               0.000342906104 Eh/α |
          | HOMO-LUMO GAP               3.125703332085 eV   |
           -------------------------------------------------

 * finished run on 2024/12/20 at 07:05:10.436
