   * xtb version 6.7.1 (edcfbbe) compiled by 'conda@3ef47c1a292c' on 2024-11-25

   ID    Z sym.   atoms
    1    6 C      1-3, 6-12, 15, 16, 18-24
    2    7 N      4, 17, 25
    3    8 O      5, 26, 27
    4   17 Cl     13, 14
    5    1 H      28-45

          program call               : xtb C0944.xyz --opt --namespace C0944 --charge +1
          :  Hamiltonian                  GFN2-xTB          :
 * total energy  :   -79.4059267 Eh     change       -0.4636831E-08 Eh
 * total energy  :   -79.4165556 Eh     change       -0.1062893E-01 Eh
 * total energy  :   -79.4191602 Eh     change       -0.2604519E-02 Eh
 * total energy  :   -79.4197207 Eh     change       -0.5605346E-03 Eh
 * total energy  :   -79.4202525 Eh     change       -0.5318268E-03 Eh
 * total energy  :   -79.4204793 Eh     change       -0.2267286E-03 Eh
 * total energy  :   -79.4207059 Eh     change       -0.2266879E-03 Eh
 * total energy  :   -79.4208747 Eh     change       -0.1687278E-03 Eh
 * total energy  :   -79.4211609 Eh     change       -0.2861921E-03 Eh
 * total energy  :   -79.4215290 Eh     change       -0.3681322E-03 Eh
 * total energy  :   -79.4307639 Eh     change       -0.1542658E-04 Eh
 * total energy  :   -79.4307768 Eh     change       -0.1289421E-04 Eh
 * total energy  :   -79.4307864 Eh     change       -0.9566648E-05 Eh
 * total energy  :   -79.4307946 Eh     change       -0.8237292E-05 Eh
 * total energy  :   -79.4308015 Eh     change       -0.6898119E-05 Eh
 * total energy  :   -79.4308074 Eh     change       -0.5903039E-05 Eh
 * total energy  :   -79.4308131 Eh     change       -0.5617458E-05 Eh
 * total energy  :   -79.4308186 Eh     change       -0.5507824E-05 Eh
 * total energy  :   -79.4308229 Eh     change       -0.4337548E-05 Eh
   *** GEOMETRY OPTIMIZATION CONVERGED AFTER 82 ITERATIONS ***

 final structure:
================
45
 xtb: 6.7.1 (edcfbbe)
C            1.37655636182133        0.34706974933111        0.38638630194561
C            0.30357784685317        0.72462727330212       -0.64432099784490
C            0.92297630776955        1.17694708331527       -1.91091119008304
N            1.32515428199580        0.36160691697698       -2.89139706517608
O            1.15313708559543       -0.98546499230222       -2.78823980077852
C            1.50947109651940       -1.75816331781589       -3.93637815309400
C            0.60623392485025       -1.51473951636933       -5.11794359075043
C           -0.76967160292046       -1.66287587343923       -4.96529533748334
C           -1.63860249774149       -1.46054172742181       -6.01839071312433
C           -1.13067010180840       -1.11180990021109       -7.26446719084502
C            0.23769718092130       -0.95869178789700       -7.44405011497222
C            1.09334211179437       -1.15409946593569       -6.37289415325946
Cl           2.79813099107338       -0.94120041724056       -6.64056970598813
Cl          -2.19102573843918       -0.86862545139273       -8.59205278394781
C            1.89817798991796        1.08395396431967       -3.89184865304818
C            1.84099312001222        2.38549525132584       -3.49575335482819
N            1.24711921905144        2.42757320666020       -2.27126312727286
C            0.98533008998614        3.62292340069710       -1.49891932775893
C           -0.49378740874443        3.89113209029889       -1.33203677905329
C           -1.36836911593604        3.69793037420064       -2.39733277815719
C           -2.71645565724475        3.96024441197432       -2.24719067392700
C           -3.18320593254840        4.42538440892078       -1.02607827231535
C           -2.32304144409797        4.63460928517731        0.04189145659135
C           -0.97729882047896        4.36024411343569       -0.11503825782752
N           -4.60349144523164        4.69687754299270       -0.86423049008845
O           -5.31872760686072        4.44728958954799       -1.80503426713995
O           -4.95960998646069        5.14315587787473        0.19887127329353
H            1.99024156749160       -0.46947673839644        0.01650682567464
H            0.89565580932703        0.02456313220739        1.30423385889193
H            2.01988530891607        1.19284036487555        0.61464577668341
H           -0.30775740165602       -0.15437586056172       -0.85523227691246
H           -0.33810489303982        1.51146105130623       -0.24686007066645
H            2.56070517329111       -1.60208292623578       -4.19550729095906
H            1.38473338038828       -2.77903449995362       -3.56541350984815
H           -1.15663576741978       -1.94895592205863       -3.99869575140290
H           -2.70078608660934       -1.58383006676152       -5.88480337924451
H            0.63007048573646       -0.69078233029448       -8.41178766820914
H            2.29857142027003        0.65632974387909       -4.78954029513882
H            2.18679306360377        3.26419106648232       -4.00059870538235
H            1.45907927142574        3.53034606580343       -0.51776047113173
H            1.45152078997538        4.46249373728706       -2.02281385424880
H           -0.99872434045528        3.34881852116802       -3.35018986535309
H           -3.41255527775025        3.81837572151683       -3.05952614344145
H           -2.71788983175304        5.00388203155559        0.97595482223053
H           -0.30058292138380        4.51962481788695        0.71045574539231

          :  Hamiltonian                  GFN2-xTB          :
         :: total energy             -79.430822907049 Eh    ::
         :: gradient norm              0.000249699817 Eh/a0 ::
         :: HOMO-LUMO gap              2.509841277151 eV    ::
         :: SCC energy               -80.437624826777 Eh    ::
         :: -> dispersion             -0.051667406622 Eh    ::
         :: repulsion energy           1.006801919727 Eh    ::

    * Orbital Energies and Occupations

         #    Occupation            Energy/Eh            Energy/eV
      -------------------------------------------------------------
         1        2.0000           -1.1746279             -31.9633
       ...           ...                  ...                  ...
        58        2.0000           -0.5657953             -15.3961
        59        2.0000           -0.5626867             -15.3115
        60        2.0000           -0.5615502             -15.2806
        61        2.0000           -0.5569008             -15.1540
        62        2.0000           -0.5555505             -15.1173
        63        2.0000           -0.5505762             -14.9819
        64        2.0000           -0.5495882             -14.9551
        65        2.0000           -0.5382199             -14.6457
        66        2.0000           -0.5373669             -14.6225
        67        2.0000           -0.5259323             -14.3113
        68        2.0000           -0.5234903             -14.2449
        69        2.0000           -0.5167720             -14.0621
        70        2.0000           -0.5059124             -13.7666 (HOMO)
        71                         -0.4136774             -11.2567 (LUMO)
        72                         -0.3972623             -10.8101
        73                         -0.3682155             -10.0197
        74                         -0.3671667              -9.9911
        75                         -0.3638985              -9.9022
        76                         -0.3601561              -9.8003
        77                         -0.3452924              -9.3959
        78                         -0.2644320              -7.1956
        79                         -0.2538408              -6.9074
        80                         -0.2384306              -6.4880
        81                         -0.2320252              -6.3137
       ...                                ...                  ...
       136                          0.5107120              13.8972
      -------------------------------------------------------------
                  HL-Gap            0.0922350 Eh            2.5098 eV

     #   Z          covCN         q      C6AA      α(0)
     1   6 C        3.754    -0.115    22.755     6.802
     2   6 C        3.803    -0.069    21.820     6.650
     3   6 C        3.089     0.085    26.001     8.358
     4   7 N        2.914     0.186    18.153     6.328
     5   8 O        1.768    -0.200    17.318     5.619
     6   6 C        3.688     0.050    19.923     6.389
     7   6 C        2.990    -0.021    28.522     8.761
     8   6 C        2.928    -0.031    28.777     8.797
     9   6 C        2.952    -0.040    29.002     8.833
    10   6 C        2.888     0.108    25.612     8.297
    11   6 C        2.998    -0.048    29.175     8.860
    12   6 C        2.889     0.088    26.046     8.367
    13  17 Cl       0.961    -0.151   103.894    15.594
    14  17 Cl       0.970    -0.110   102.573    15.494
    15   6 C        3.021    -0.037    28.902     8.819
    16   6 C        3.067    -0.013    28.267     8.718
    17   7 N        2.871     0.041    20.522     6.728
    18   6 C        3.747    -0.027    21.120     6.555
    19   6 C        2.970     0.011    27.771     8.644
    20   6 C        2.923    -0.034    28.858     8.809
    21   6 C        2.918    -0.018    28.466     8.749
    22   6 C        2.917     0.009    27.815     8.648
    23   6 C        2.917    -0.016    28.413     8.741
    24   6 C        2.924    -0.032    28.802     8.801
    25   7 N        2.758     0.553    13.444     5.446
    26   8 O        0.930    -0.365    20.956     6.139
    27   8 O        0.930    -0.359    20.851     6.124
    28   1 H        0.925     0.065     2.145     2.290
    29   1 H        0.925     0.079     1.989     2.206
    30   1 H        0.925     0.054     2.272     2.357
    31   1 H        0.924     0.093     1.854     2.129
    32   1 H        0.924     0.079     1.985     2.203
    33   1 H        0.924     0.082     1.959     2.189
    34   1 H        0.924     0.113     1.669     2.021
    35   1 H        0.926     0.073     2.055     2.242
    36   1 H        0.926     0.087     1.904     2.158
    37   1 H        0.926     0.094     1.836     2.119
    38   1 H        0.926     0.126     1.567     1.958
    39   1 H        0.926     0.107     1.719     2.050
    40   1 H        0.924     0.093     1.848     2.126
    41   1 H        0.924     0.100     1.785     2.089
    42   1 H        0.926     0.048     2.345     2.395
    43   1 H        0.926     0.096     1.823     2.112
    44   1 H        0.926     0.101     1.773     2.082
    45   1 H        0.926     0.065     2.137     2.286

Wiberg/Mayer (AO) data.
largest (>0.10) Wiberg bond orders for each atom

     #   Z sym  total        # sym  WBO       # sym  WBO       # sym  WBO
 ---------------------------------------------------------------------------
     1   6 C    3.983 --    30 H    0.986    28 H    0.986     2 C    0.980
                            29 H    0.979
     2   6 C    3.977 --     3 C    1.027     1 C    0.980    32 H    0.960
                            31 H    0.957
     3   6 C    3.936 --     4 N    1.309    17 N    1.303     2 C    1.027
     4   7 N    3.713 --     3 C    1.309    15 C    1.203     5 O    1.006
     5   8 O    2.145 --     4 N    1.006     6 C    0.934
     6   6 C    3.903 --     7 C    1.001    33 H    0.958    34 H    0.941
                             5 O    0.934
     7   6 C    3.982 --     8 C    1.399    12 C    1.371     6 C    1.001
     8   6 C    3.988 --     9 C    1.457     7 C    1.399    35 H    0.964
                            11 C    0.103
     9   6 C    3.985 --     8 C    1.457    10 C    1.381    36 H    0.963
    10   6 C    3.933 --    11 C    1.392     9 C    1.381    14 Cl   1.024
    11   6 C    3.983 --    12 C    1.414    10 C    1.392    37 H    0.960
                             8 C    0.103
    12   6 C    3.921 --    11 C    1.414     7 C    1.371    13 Cl   0.977
    13  17 Cl   1.141 --    12 C    0.977
    14  17 Cl   1.181 --    10 C    1.024
    15   6 C    3.932 --    16 C    1.579     4 N    1.203    38 H    0.945
    16   6 C    3.946 --    15 C    1.579    17 N    1.222    39 H    0.960
    17   7 N    3.687 --     3 C    1.303    16 C    1.222    18 C    0.970
    18   6 C    3.942 --    19 C    0.990    17 N    0.970    40 H    0.955
                            41 H    0.951
    19   6 C    3.984 --    24 C    1.409    20 C    1.407    18 C    0.990
    20   6 C    3.991 --    21 C    1.451    19 C    1.407    42 H    0.968
                            23 C    0.108
    21   6 C    3.983 --    20 C    1.451    22 C    1.394    43 H    0.958
                            24 C    0.108
    22   6 C    3.970 --    23 C    1.396    21 C    1.394    25 N    0.941
    23   6 C    3.981 --    24 C    1.447    22 C    1.396    44 H    0.956
                            20 C    0.108
    24   6 C    3.988 --    23 C    1.447    19 C    1.409    45 H    0.965
                            21 C    0.108
    25   7 N    3.915 --    27 O    1.470    26 O    1.465    22 C    0.941
    26   8 O    1.957 --    25 N    1.465    27 O    0.380
    27   8 O    1.963 --    25 N    1.470    26 O    0.380
    28   1 H    0.996 --     1 C    0.986
    29   1 H    0.993 --     1 C    0.979
    30   1 H    0.997 --     1 C    0.986
    31   1 H    0.991 --     2 C    0.957
    32   1 H    0.993 --     2 C    0.960
    33   1 H    0.993 --     6 C    0.958
    34   1 H    0.985 --     6 C    0.941
    35   1 H    0.995 --     8 C    0.964
    36   1 H    0.991 --     9 C    0.963
    37   1 H    0.991 --    11 C    0.960
    38   1 H    0.984 --    15 C    0.945
    39   1 H    0.988 --    16 C    0.960
    40   1 H    0.991 --    18 C    0.955
    41   1 H    0.988 --    18 C    0.951
    42   1 H    0.997 --    20 C    0.968
    43   1 H    0.990 --    21 C    0.958
    44   1 H    0.989 --    23 C    0.956
    45   1 H    0.995 --    24 C    0.965
 ---------------------------------------------------------------------------

molecular dipole:
                 x           y           z       tot (Debye)
 q only:        2.980       1.903      -4.583
   full:        3.281       1.809      -5.399      16.704

           -------------------------------------------------
          | TOTAL ENERGY              -79.430822907049 Eh   |
          | GRADIENT NORM               0.000249699817 Eh/α |
          | HOMO-LUMO GAP               2.509841277151 eV   |
           -------------------------------------------------

 * finished run on 2024/12/20 at 07:05:05.539
