   * xtb version 6.7.1 (edcfbbe) compiled by 'conda@3ef47c1a292c' on 2024-11-25

   ID    Z sym.   atoms
    1    6 C      1-5, 7-15
    2    7 N      6
    3    1 H      16-47

          program call               : xtb C0949.xyz --opt --namespace C0949 --charge +1
          :  Hamiltonian                  GFN2-xTB          :
 * total energy  :   -48.8206364 Eh     change       -0.1058993E-09 Eh
 * total energy  :   -48.8279891 Eh     change       -0.7352741E-02 Eh
 * total energy  :   -48.8298983 Eh     change       -0.1909207E-02 Eh
 * total energy  :   -48.8300761 Eh     change       -0.1778185E-03 Eh
 * total energy  :   -48.8302813 Eh     change       -0.2052008E-03 Eh
 * total energy  :   -48.8304504 Eh     change       -0.1691005E-03 Eh
 * total energy  :   -48.8307503 Eh     change       -0.2998971E-03 Eh
 * total energy  :   -48.8310986 Eh     change       -0.3482695E-03 Eh
 * total energy  :   -48.8315807 Eh     change       -0.4821276E-03 Eh
 * total energy  :   -48.8320349 Eh     change       -0.4542061E-03 Eh
 * total energy  :   -48.8358435 Eh     change       -0.1057886E-04 Eh
 * total energy  :   -48.8358571 Eh     change       -0.1358815E-04 Eh
 * total energy  :   -48.8358679 Eh     change       -0.1082258E-04 Eh
 * total energy  :   -48.8358770 Eh     change       -0.9096895E-05 Eh
 * total energy  :   -48.8358860 Eh     change       -0.8979983E-05 Eh
 * total energy  :   -48.8358938 Eh     change       -0.7771826E-05 Eh
 * total energy  :   -48.8359001 Eh     change       -0.6326169E-05 Eh
 * total energy  :   -48.8359055 Eh     change       -0.5384311E-05 Eh
 * total energy  :   -48.8359103 Eh     change       -0.4841903E-05 Eh
   *** GEOMETRY OPTIMIZATION CONVERGED AFTER 57 ITERATIONS ***

 final structure:
================
47
 xtb: 6.7.1 (edcfbbe)
C            1.58368980654025       -1.29021902947917       -0.55994599027777
C            0.98335528645707        0.09394785858276       -0.34616555737890
C            1.16615963881230        1.02681803023544       -1.54609662430441
C            0.42652837989561        0.58505063903914       -2.81547543114502
C           -1.10466360375942        0.61940122680435       -2.69622491967786
N           -1.80215399470401        1.73758108485233       -3.39548507938414
C           -1.49017363312539        1.75971549509644       -4.87002582897049
C           -1.37582602577564        0.43116687545772       -5.62537729784437
C           -2.65538145973185       -0.35545863517757       -5.93015451304966
C           -3.70337402969027        0.40011947428782       -6.75295243072256
C           -3.19761317216410        0.81913853364729       -8.12857077885451
C           -3.29405541256753        1.60051396774153       -3.24378655325997
C           -3.83004174078478        0.96175565224717       -1.96887745647740
C           -1.34928583638358        3.06486610672243       -2.86695179295280
C           -1.75543331216617        3.41380068541078       -1.44404919460974
H            1.05428755297068       -1.84378859852604       -1.33171866838699
H            1.52490347116979       -1.86502912214402        0.35992321909769
H            2.62982757928996       -1.21213485490227       -0.84447772374221
H           -0.07454522078601       -0.00869471940523       -0.09161288348836
H            1.47464846991670        0.55770274302317        0.51067982138018
H            0.86054869137069        2.03466268854249       -1.25911316543908
H            2.23079226088671        1.06881964947921       -1.78210320350598
H            0.77331722031709        1.19440464315942       -3.64916902040449
H            0.72976872751525       -0.43852568464697       -3.03576038400547
H           -1.53152622906285       -0.30437188900293       -3.08578683419828
H           -1.36494229175718        0.68539863251258       -1.64159056584279
H           -2.24899503808826        2.38243297053127       -5.34687531824382
H           -0.53298255926915        2.27051839783791       -4.98734476326421
H           -0.92382151736608        0.69478888011607       -6.58360360905342
H           -0.66720925855760       -0.22921556586607       -5.12733367218188
H           -2.35009108771419       -1.23087432337698       -6.50685581434742
H           -3.11084499591497       -0.73806031246305       -5.01334797850865
H           -4.55990598279067       -0.26325621306674       -6.88389124470296
H           -4.06435658035714        1.28393858017447       -6.22038090165724
H           -2.79514494501924       -0.03697699297222       -8.66348701014374
H           -4.01577032518168        1.22934704026776       -8.71402744946099
H           -2.42370568609964        1.58002656947347       -8.05906278576166
H           -3.71383965952234        2.60238364952755       -3.35215639128250
H           -3.64947911815857        0.99856534286589       -4.07681865160791
H           -3.49714169967003        1.45193513844453       -1.06101807215113
H           -4.91438278455087        1.04326476982567       -2.00414582502081
H           -3.58958217020260       -0.09580593993649       -1.90887314515756
H           -0.26130770146515        3.08615979558672       -2.93750317854781
H           -1.74567223927119        3.83109835672750       -3.53760187517187
H           -1.41435026211519        2.67991738173722       -0.71987176787116
H           -1.28139382670453        4.36028337246232       -1.19357372585165
H           -2.82695368469837        3.55384764850283       -1.34194796254964

          :  Hamiltonian                  GFN2-xTB          :
         :: total energy             -48.835910340679 Eh    ::
         :: gradient norm              0.000194980914 Eh/a0 ::
         :: HOMO-LUMO gap              8.076551399088 eV    ::
         :: SCC energy               -49.545329465241 Eh    ::
         :: -> dispersion             -0.038558959271 Eh    ::
         :: repulsion energy           0.709419124562 Eh    ::

    * Orbital Energies and Occupations

         #    Occupation            Energy/Eh            Energy/eV
      -------------------------------------------------------------
         1        2.0000           -0.8452500             -23.0004
       ...           ...                  ...                  ...
        34        2.0000           -0.5906821             -16.0733
        35        2.0000           -0.5851197             -15.9219
        36        2.0000           -0.5808313             -15.8052
        37        2.0000           -0.5804025             -15.7936
        38        2.0000           -0.5769230             -15.6989
        39        2.0000           -0.5705261             -15.5248
        40        2.0000           -0.5660314             -15.4025
        41        2.0000           -0.5482170             -14.9177
        42        2.0000           -0.5428606             -14.7720
        43        2.0000           -0.5409095             -14.7189
        44        2.0000           -0.5361132             -14.5884
        45        2.0000           -0.5357073             -14.5773
        46        2.0000           -0.5308620             -14.4455 (HOMO)
        47                         -0.2340542              -6.3689 (LUMO)
        48                         -0.1725523              -4.6954
        49                         -0.1552828              -4.2255
        50                         -0.1497379              -4.0746
        51                         -0.0752472              -2.0476
        52                         -0.0627155              -1.7066
        53                         -0.0528256              -1.4375
        54                         -0.0453335              -1.2336
        55                         -0.0362563              -0.9866
        56                         -0.0339420              -0.9236
        57                         -0.0288763              -0.7858
       ...                                ...                  ...
        92                          0.2083605               5.6698
      -------------------------------------------------------------
                  HL-Gap            0.2968078 Eh            8.0766 eV

     #   Z          covCN         q      C6AA      α(0)
     1   6 C        3.752    -0.111    22.678     6.791
     2   6 C        3.799    -0.058    21.622     6.621
     3   6 C        3.800    -0.069    21.826     6.652
     4   6 C        3.799    -0.072    21.882     6.660
     5   6 C        3.748    -0.036    21.285     6.580
     6   7 N        3.615     0.100    19.519     6.562
     7   6 C        3.760    -0.035    21.252     6.572
     8   6 C        3.799    -0.076    21.953     6.671
     9   6 C        3.799    -0.068    21.799     6.648
    10   6 C        3.799    -0.059    21.633     6.622
    11   6 C        3.752    -0.112    22.699     6.794
    12   6 C        3.752    -0.034    21.247     6.573
    13   6 C        3.750    -0.128    23.022     6.843
    14   6 C        3.759    -0.028    21.124     6.552
    15   6 C        3.751    -0.124    22.944     6.831
    16   1 H        0.925     0.033     2.542     2.493
    17   1 H        0.925     0.049     2.330     2.387
    18   1 H        0.925     0.046     2.370     2.407
    19   1 H        0.924     0.025     2.665     2.553
    20   1 H        0.924     0.047     2.352     2.398
    21   1 H        0.924     0.035     2.521     2.483
    22   1 H        0.924     0.055     2.257     2.349
    23   1 H        0.925     0.048     2.346     2.395
    24   1 H        0.925     0.068     2.104     2.268
    25   1 H        0.925     0.080     1.981     2.201
    26   1 H        0.925     0.094     1.836     2.119
    27   1 H        0.924     0.081     1.970     2.195
    28   1 H        0.924     0.074     2.044     2.236
    29   1 H        0.924     0.077     2.013     2.219
    30   1 H        0.925     0.058     2.221     2.330
    31   1 H        0.924     0.059     2.208     2.324
    32   1 H        0.924     0.029     2.597     2.520
    33   1 H        0.924     0.048     2.342     2.393
    34   1 H        0.924     0.022     2.701     2.570
    35   1 H        0.925     0.048     2.346     2.395
    36   1 H        0.925     0.050     2.317     2.380
    37   1 H        0.925     0.033     2.538     2.491
    38   1 H        0.924     0.077     2.010     2.217
    39   1 H        0.925     0.095     1.828     2.114
    40   1 H        0.925     0.067     2.118     2.276
    41   1 H        0.925     0.079     1.985     2.203
    42   1 H        0.925     0.062     2.171     2.304
    43   1 H        0.924     0.085     1.932     2.173
    44   1 H        0.924     0.074     2.044     2.236
    45   1 H        0.925     0.065     2.142     2.289
    46   1 H        0.925     0.079     1.993     2.208
    47   1 H        0.925     0.067     2.122     2.278

Wiberg/Mayer (AO) data.
largest (>0.10) Wiberg bond orders for each atom

     #   Z sym  total        # sym  WBO       # sym  WBO       # sym  WBO
 ---------------------------------------------------------------------------
     1   6 C    3.994 --     2 C    1.021    18 H    0.986    17 H    0.985
                            16 H    0.985
     2   6 C    3.996 --     1 C    1.021     3 C    1.008    20 H    0.976
                            19 H    0.973
     3   6 C    3.993 --     2 C    1.008     4 C    1.005    22 H    0.974
                            21 H    0.973
     4   6 C    3.987 --     3 C    1.005     5 C    1.002    24 H    0.967
                            23 H    0.967
     5   6 C    3.931 --     4 C    1.002    25 H    0.967    26 H    0.954
                             6 N    0.934
     6   7 N    3.796 --     5 C    0.934    14 C    0.933     7 C    0.926
                            12 C    0.925
     7   6 C    3.934 --     8 C    1.005    28 H    0.966    27 H    0.965
                             6 N    0.926
     8   6 C    3.983 --     9 C    1.006     7 C    1.005    30 H    0.969
                            29 H    0.961
     9   6 C    3.993 --    10 C    1.007     8 C    1.006    31 H    0.972
                            32 H    0.970
    10   6 C    3.996 --    11 C    1.020     9 C    1.007    33 H    0.976
                            34 H    0.972
    11   6 C    3.994 --    10 C    1.020    35 H    0.986    37 H    0.986
                            36 H    0.985
    12   6 C    3.934 --    13 C    1.023    38 H    0.969    39 H    0.957
                             6 N    0.925
    13   6 C    3.983 --    12 C    1.023    42 H    0.983    40 H    0.978
                            41 H    0.973
    14   6 C    3.940 --    15 C    1.022    44 H    0.969    43 H    0.962
                             6 N    0.933
    15   6 C    3.983 --    14 C    1.022    47 H    0.980    45 H    0.977
                            46 H    0.973
    16   1 H    0.999 --     1 C    0.985
    17   1 H    0.998 --     1 C    0.985
    18   1 H    0.998 --     1 C    0.986
    19   1 H    0.999 --     2 C    0.973
    20   1 H    0.998 --     2 C    0.976
    21   1 H    0.999 --     3 C    0.973
    22   1 H    0.997 --     3 C    0.974
    23   1 H    0.998 --     4 C    0.967
    24   1 H    0.995 --     4 C    0.967
    25   1 H    0.994 --     5 C    0.967
    26   1 H    0.991 --     5 C    0.954
    27   1 H    0.993 --     7 C    0.965
    28   1 H    0.994 --     7 C    0.966
    29   1 H    0.994 --     8 C    0.961
    30   1 H    0.997 --     8 C    0.969
    31   1 H    0.996 --     9 C    0.972
    32   1 H    0.999 --     9 C    0.970
    33   1 H    0.998 --    10 C    0.976
    34   1 H    1.000 --    10 C    0.972
    35   1 H    0.998 --    11 C    0.986
    36   1 H    0.997 --    11 C    0.985
    37   1 H    0.999 --    11 C    0.986
    38   1 H    0.994 --    12 C    0.969
    39   1 H    0.991 --    12 C    0.957
    40   1 H    0.995 --    13 C    0.978
    41   1 H    0.993 --    13 C    0.973
    42   1 H    0.996 --    13 C    0.983
    43   1 H    0.993 --    14 C    0.962
    44   1 H    0.995 --    14 C    0.969
    45   1 H    0.996 --    15 C    0.977
    46   1 H    0.993 --    15 C    0.973
    47   1 H    0.996 --    15 C    0.980
 ---------------------------------------------------------------------------

molecular dipole:
                 x           y           z       tot (Debye)
 q only:       -3.265       2.868      -6.337
   full:       -3.277       2.969      -6.410      19.793

           -------------------------------------------------
          | TOTAL ENERGY              -48.835910340679 Eh   |
          | GRADIENT NORM               0.000194980914 Eh/α |
          | HOMO-LUMO GAP               8.076551399088 eV   |
           -------------------------------------------------

 * finished run on 2024/12/20 at 07:05:12.575
