   * xtb version 6.7.1 (edcfbbe) compiled by 'conda@3ef47c1a292c' on 2024-11-25

   ID    Z sym.   atoms
    1    6 C      1-6, 8-12, 14-19
    2    7 N      7, 13
    3    1 H      20-48

          program call               : xtb C0940.xyz --opt --namespace C0940 --charge +1
          :  Hamiltonian                  GFN2-xTB          :
 * total energy  :   -56.6958037 Eh     change       -0.4310863E-09 Eh
 * total energy  :   -56.7023882 Eh     change       -0.6584446E-02 Eh
 * total energy  :   -56.7052843 Eh     change       -0.2896091E-02 Eh
 * total energy  :   -56.7065304 Eh     change       -0.1246151E-02 Eh
 * total energy  :   -56.7077585 Eh     change       -0.1228116E-02 Eh
 * total energy  :   -56.7085475 Eh     change       -0.7889319E-03 Eh
 * total energy  :   -56.7091026 Eh     change       -0.5551450E-03 Eh
 * total energy  :   -56.7095752 Eh     change       -0.4725559E-03 Eh
 * total energy  :   -56.7100102 Eh     change       -0.4350759E-03 Eh
 * total energy  :   -56.7103748 Eh     change       -0.3645266E-03 Eh
 * total energy  :   -56.7137643 Eh     change       -0.1730234E-04 Eh
 * total energy  :   -56.7137780 Eh     change       -0.1366447E-04 Eh
 * total energy  :   -56.7137879 Eh     change       -0.9906692E-05 Eh
 * total energy  :   -56.7137963 Eh     change       -0.8409224E-05 Eh
 * total energy  :   -56.7138058 Eh     change       -0.9559713E-05 Eh
 * total energy  :   -56.7138194 Eh     change       -0.1354007E-04 Eh
 * total energy  :   -56.7138374 Eh     change       -0.1803426E-04 Eh
 * total energy  :   -56.7138564 Eh     change       -0.1898605E-04 Eh
 * total energy  :   -56.7138594 Eh     change       -0.3039915E-05 Eh
   *** GEOMETRY OPTIMIZATION CONVERGED AFTER 68 ITERATIONS ***

 final structure:
================
48
 xtb: 6.7.1 (edcfbbe)
C            1.53722358740046        0.02327607064608       -0.32609392479800
C            0.79928407554590        0.06999963995015       -1.65835562198672
C            1.11408984211375       -1.11981105696820       -2.56762366004802
C            0.75652831176703       -2.49170765497445       -1.98781108650135
C           -0.71003407000291       -2.66508544872360       -1.59161422462352
C           -1.68973240449743       -2.58505737897061       -2.76838652490151
N           -1.54701738729333       -3.71796379709572       -3.66293373645815
C           -0.75392260440366       -3.65938402580640       -4.74915653806396
C           -0.57892491384563       -4.71824211301562       -5.58560798171122
C           -1.24975179333104       -5.95713570674008       -5.36732072827580
C           -2.03999813417897       -5.98183818227618       -4.17956545649542
C           -2.15779247042454       -4.88577586269909       -3.38372959015367
N           -1.17425324271476       -6.98372458186008       -6.20670413749020
C           -1.90326504846024       -8.22896779042713       -6.04696368204408
C           -0.94470965250719       -9.34970912330738       -5.64268668154761
C            0.13607449574621       -9.52594363330074       -6.71149690435025
C            0.81339262258740       -8.17596676228934       -6.95619231679775
C           -0.21982721993955       -7.09686673404674       -7.29430594817726
C            1.15311721260424      -10.58363456016757       -6.29768622103408
H            1.19048077399506       -0.79964980096382        0.29388647079569
H            1.37393337859836        0.94738447116726        0.22188020586238
H            2.60632027323307       -0.09150509412003       -0.48759544417062
H           -0.27599519424457        0.13594559139733       -1.47968171046796
H            1.09107291531128        0.97856810754351       -2.18884807607159
H            0.60530804632869       -0.96756666092373       -3.52337027679244
H            2.18587944044483       -1.12021153653598       -2.77601508875820
H            1.03416399448763       -3.26351239409137       -2.71218136081156
H            1.36307892961143       -2.66085179379427       -1.09815761929597
H           -0.83173914686055       -3.63079962555467       -1.09532297867121
H           -0.98676683955632       -1.89210879352847       -0.87606472765070
H           -2.71401122327110       -2.57456068734056       -2.38936884655665
H           -1.52212936410694       -1.66774871425400       -3.33336853142567
H           -0.26295388247816       -2.71826480406458       -4.94257139862296
H            0.06846690636519       -4.57527878488160       -6.43250136863773
H           -2.55470743423396       -6.87453990721328       -3.87152971116351
H           -2.75905463059647       -4.91479471742731       -2.48776844199715
H           -2.35094620583513       -8.47181959648029       -7.01607413592654
H           -2.71303751903639       -8.12706848628981       -5.32924094796404
H           -1.50629455018736      -10.27534500026261       -5.51905284766385
H           -0.47925052908418       -9.10538897580268       -4.68515322660692
H           -0.34453854121253       -9.84846174635022       -7.64154755272052
H            1.36689617460861       -7.87759710119637       -6.06281391338937
H            1.52248679238921       -8.25649869254771       -7.77987560491141
H           -0.76639477455159       -7.38260623999158       -8.19815419877824
H            0.28131392089657       -6.15306626981974       -7.48949279714833
H            0.66193691056785      -11.53926108256179       -6.13615076761211
H            1.90403485498468      -10.71265417701046       -7.07227467259010
H            1.65549531731222      -10.29598878504780       -5.37699546476964

          :  Hamiltonian                  GFN2-xTB          :
         :: total energy             -56.713859436977 Eh    ::
         :: gradient norm              0.000208353290 Eh/a0 ::
         :: HOMO-LUMO gap              2.950404484082 eV    ::
         :: SCC energy               -57.587443956904 Eh    ::
         :: -> dispersion             -0.042108405482 Eh    ::
         :: repulsion energy           0.873584519927 Eh    ::

    * Orbital Energies and Occupations

         #    Occupation            Energy/Eh            Energy/eV
      -------------------------------------------------------------
         1        2.0000           -0.8368397             -22.7716
       ...           ...                  ...                  ...
        41        2.0000           -0.5666550             -15.4195
        42        2.0000           -0.5603849             -15.2488
        43        2.0000           -0.5588352             -15.2067
        44        2.0000           -0.5564848             -15.1427
        45        2.0000           -0.5504814             -14.9794
        46        2.0000           -0.5480501             -14.9132
        47        2.0000           -0.5414200             -14.7328
        48        2.0000           -0.5320858             -14.4788
        49        2.0000           -0.5311482             -14.4533
        50        2.0000           -0.5208593             -14.1733
        51        2.0000           -0.5141681             -13.9912
        52        2.0000           -0.5112854             -13.9128
        53        2.0000           -0.5088314             -13.8460 (HOMO)
        54                         -0.4004061             -10.8956 (LUMO)
        55                         -0.3857941             -10.4980
        56                         -0.2655989              -7.2273
        57                         -0.1395310              -3.7968
        58                         -0.1372410              -3.7345
        59                         -0.0781611              -2.1269
        60                         -0.0549876              -1.4963
        61                         -0.0441147              -1.2004
        62                         -0.0419464              -1.1414
        63                         -0.0373422              -1.0161
        64                         -0.0322635              -0.8779
       ...                                ...                  ...
       105                          0.5027667              13.6810
      -------------------------------------------------------------
                  HL-Gap            0.1084254 Eh            2.9504 eV

     #   Z          covCN         q      C6AA      α(0)
     1   6 C        3.752    -0.108    22.624     6.783
     2   6 C        3.799    -0.056    21.590     6.616
     3   6 C        3.800    -0.061    21.671     6.628
     4   6 C        3.800    -0.064    21.729     6.637
     5   6 C        3.801    -0.068    21.803     6.648
     6   6 C        3.753    -0.027    21.110     6.552
     7   7 N        2.748     0.058    20.223     6.679
     8   6 C        2.886     0.027    27.396     8.581
     9   6 C        2.919    -0.057    29.422     8.895
    10   6 C        2.906     0.093    25.924     8.349
    11   6 C        2.919    -0.057    29.406     8.893
    12   6 C        2.888     0.026    27.432     8.587
    13   7 N        2.740    -0.014    21.519     6.890
    14   6 C        3.763    -0.018    20.946     6.524
    15   6 C        3.809    -0.071    21.847     6.653
    16   6 C        3.854    -0.017    20.838     6.492
    17   6 C        3.809    -0.071    21.847     6.653
    18   6 C        3.761    -0.018    20.939     6.523
    19   6 C        3.756    -0.116    22.774     6.804
    20   1 H        0.925     0.035     2.518     2.481
    21   1 H        0.925     0.044     2.395     2.420
    22   1 H        0.925     0.042     2.427     2.436
    23   1 H        0.924     0.029     2.601     2.522
    24   1 H        0.924     0.040     2.445     2.445
    25   1 H        0.924     0.019     2.753     2.595
    26   1 H        0.924     0.045     2.388     2.416
    27   1 H        0.924     0.024     2.672     2.556
    28   1 H        0.925     0.058     2.217     2.328
    29   1 H        0.924     0.045     2.378     2.412
    30   1 H        0.925     0.073     2.050     2.239
    31   1 H        0.924     0.074     2.039     2.233
    32   1 H        0.924     0.083     1.944     2.180
    33   1 H        0.926     0.090     1.878     2.143
    34   1 H        0.926     0.077     2.014     2.219
    35   1 H        0.926     0.078     1.997     2.210
    36   1 H        0.926     0.087     1.905     2.158
    37   1 H        0.924     0.070     2.089     2.260
    38   1 H        0.925     0.062     2.175     2.306
    39   1 H        0.925     0.061     2.192     2.315
    40   1 H        0.924     0.049     2.337     2.391
    41   1 H        0.924     0.044     2.401     2.423
    42   1 H        0.924     0.049     2.336     2.390
    43   1 H        0.925     0.061     2.185     2.311
    44   1 H        0.924     0.068     2.103     2.268
    45   1 H        0.925     0.063     2.170     2.304
    46   1 H        0.925     0.052     2.298     2.371
    47   1 H        0.925     0.052     2.299     2.371
    48   1 H        0.925     0.044     2.398     2.422

Wiberg/Mayer (AO) data.
largest (>0.10) Wiberg bond orders for each atom

     #   Z sym  total        # sym  WBO       # sym  WBO       # sym  WBO
 ---------------------------------------------------------------------------
     1   6 C    3.995 --     2 C    1.021    22 H    0.987    21 H    0.986
                            20 H    0.986
     2   6 C    3.997 --     1 C    1.021     3 C    1.007    24 H    0.977
                            23 H    0.976
     3   6 C    3.996 --     2 C    1.007     4 C    1.007    26 H    0.976
                            25 H    0.973
     4   6 C    3.994 --     5 C    1.009     3 C    1.007    27 H    0.975
                            28 H    0.971
     5   6 C    3.982 --     4 C    1.009     6 C    0.985    29 H    0.974
                            30 H    0.965
     6   6 C    3.944 --     5 C    0.985     7 N    0.969    31 H    0.966
                            32 H    0.963
     7   7 N    3.697 --     8 C    1.257    12 C    1.254     6 C    0.969
     8   6 C    3.961 --     9 C    1.578     7 N    1.257    33 H    0.955
     9   6 C    3.985 --     8 C    1.578    10 C    1.225    34 H    0.954
    10   6 C    3.975 --    13 N    1.364     9 C    1.225    11 C    1.221
    11   6 C    3.985 --    12 C    1.586    10 C    1.221    35 H    0.955
    12   6 C    3.962 --    11 C    1.586     7 N    1.254    36 H    0.958
    13   7 N    3.597 --    10 C    1.364    14 C    0.980    18 C    0.980
    14   6 C    3.960 --    15 C    0.991    13 N    0.980    38 H    0.963
                            37 H    0.961
    15   6 C    3.985 --    16 C    0.997    14 C    0.991    40 H    0.975
                            39 H    0.971
    16   6 C    3.994 --    19 C    1.008    17 C    0.997    15 C    0.997
                            41 H    0.967
    17   6 C    3.984 --    16 C    0.997    18 C    0.989    42 H    0.975
                            43 H    0.971
    18   6 C    3.960 --    17 C    0.989    13 N    0.980    45 H    0.963
                            44 H    0.962
    19   6 C    3.990 --    16 C    1.008    48 H    0.986    47 H    0.985
                            46 H    0.984
    20   1 H    0.999 --     1 C    0.986
    21   1 H    0.998 --     1 C    0.986
    22   1 H    0.998 --     1 C    0.987
    23   1 H    0.999 --     2 C    0.976
    24   1 H    0.998 --     2 C    0.977
    25   1 H    1.000 --     3 C    0.973
    26   1 H    0.998 --     3 C    0.976
    27   1 H    0.999 --     4 C    0.975
    28   1 H    0.996 --     4 C    0.971
    29   1 H    0.998 --     5 C    0.974
    30   1 H    0.993 --     5 C    0.965
    31   1 H    0.993 --     6 C    0.966
    32   1 H    0.992 --     6 C    0.963
    33   1 H    0.991 --     8 C    0.955
    34   1 H    0.994 --     9 C    0.954
    35   1 H    0.994 --    11 C    0.955
    36   1 H    0.992 --    12 C    0.958
    37   1 H    0.992 --    14 C    0.961
    38   1 H    0.996 --    14 C    0.963
    39   1 H    0.995 --    15 C    0.971
    40   1 H    0.998 --    15 C    0.975
    41   1 H    0.998 --    16 C    0.967
    42   1 H    0.998 --    17 C    0.975
    43   1 H    0.995 --    17 C    0.971
    44   1 H    0.992 --    18 C    0.962
    45   1 H    0.996 --    18 C    0.963
    46   1 H    0.997 --    19 C    0.984
    47   1 H    0.997 --    19 C    0.985
    48   1 H    0.998 --    19 C    0.986
 ---------------------------------------------------------------------------

molecular dipole:
                 x           y           z       tot (Debye)
 q only:       -1.907     -10.080      -8.755
   full:       -2.032      -9.974      -8.765      34.142

           -------------------------------------------------
          | TOTAL ENERGY              -56.713859436977 Eh   |
          | GRADIENT NORM               0.000208353290 Eh/α |
          | HOMO-LUMO GAP               2.950404484082 eV   |
           -------------------------------------------------

 * finished run on 2024/12/20 at 07:04:56.403
