   * xtb version 6.7.1 (edcfbbe) compiled by 'conda@3ef47c1a292c' on 2024-11-25

   ID    Z sym.   atoms
    1    6 C      1, 2, 4, 6, 8-11
    2    8 O      3, 5
    3    7 N      7
    4    1 H      12-29

          program call               : xtb C0947.xyz --opt --namespace C0947 --charge +1
          :  Hamiltonian                  GFN2-xTB          :
 * total energy  :   -36.9585648 Eh     change       -0.5216378E-09 Eh
 * total energy  :   -36.9682354 Eh     change       -0.9670594E-02 Eh
 * total energy  :   -36.9704770 Eh     change       -0.2241662E-02 Eh
 * total energy  :   -36.9708334 Eh     change       -0.3563595E-03 Eh
 * total energy  :   -36.9709086 Eh     change       -0.7522084E-04 Eh
 * total energy  :   -36.9709506 Eh     change       -0.4198282E-04 Eh
 * total energy  :   -36.9709756 Eh     change       -0.2501699E-04 Eh
 * total energy  :   -36.9710139 Eh     change       -0.3830743E-04 Eh
 * total energy  :   -36.9710463 Eh     change       -0.3244203E-04 Eh
 * total energy  :   -36.9711345 Eh     change       -0.8819742E-04 Eh
 * total energy  :   -36.9766059 Eh     change       -0.1523037E-04 Eh
 * total energy  :   -36.9766236 Eh     change       -0.1767179E-04 Eh
 * total energy  :   -36.9766334 Eh     change       -0.9818881E-05 Eh
 * total energy  :   -36.9766436 Eh     change       -0.1023347E-04 Eh
 * total energy  :   -36.9766452 Eh     change       -0.1543098E-05 Eh
 * total energy  :   -36.9766575 Eh     change       -0.1235868E-04 Eh
 * total energy  :   -36.9766583 Eh     change       -0.8313158E-06 Eh
 * total energy  :   -36.9766670 Eh     change       -0.8652149E-05 Eh
 * total energy  :   -36.9766716 Eh     change       -0.4635603E-05 Eh
   *** GEOMETRY OPTIMIZATION CONVERGED AFTER 67 ITERATIONS ***

 final structure:
================
29
 xtb: 6.7.1 (edcfbbe)
C           -0.10408596698835       -0.47295357104175       -1.17576026206566
C            1.41107778525878       -0.54894677691082       -1.24526500401745
O            1.88413183664766       -1.87007788213963       -0.89980897392163
C            2.04088992915038       -2.15725076337084        0.36812588066815
O            1.82717484290956       -1.43916080792199        1.30700541754151
C            2.59011792511378       -3.59522180116862        0.48918957797184
N            2.48919377681209       -4.18862077802789        1.84274538811414
C            1.09359410562402       -4.10363765377311        2.38488961060169
C            0.00413766574164       -4.61397910391599        1.45628458636484
C            2.92040048740166       -5.59776064469060        1.76727001419881
C            3.38934200410935       -3.47197118773840        2.77131064481822
H           -0.55443462006867       -1.23274325431537       -1.80911402780771
H           -0.42519564493180        0.50432258488837       -1.52187054820156
H           -0.44741966627294       -0.60642012630081       -0.15295346268333
H            1.77230046000087       -0.38943232697939       -2.26173761424752
H            1.86627430988680        0.17479947767850       -0.56325304230265
H            2.06328907705618       -4.21874062605647       -0.23475281612825
H            3.64246835668632       -3.55994898029811        0.19313104967201
H            1.07852799774359       -4.67480928635050        3.31480901679646
H            0.89918293550538       -3.05616740939304        2.62107123434269
H            0.15658673688875       -5.64616288434909        1.15327951706352
H           -0.93727566741697       -4.57330494932468        1.99851141720635
H           -0.10644482957745       -3.99194007535610        0.57256086383387
H            3.93741880885762       -5.65933606425499        1.38445547398464
H            2.89477969427618       -6.04701061188551        2.75825073089906
H            2.26843838617275       -6.16629666348920        1.10844110790821
H            4.42277778399302       -3.57304576637266        2.44530131468406
H            3.12590719707190       -2.41604425737936        2.80098523188744
H            3.29610429234101       -3.88704780977079        3.77272767279717

          :  Hamiltonian                  GFN2-xTB          :
         :: total energy             -36.976671629262 Eh    ::
         :: gradient norm              0.000776492070 Eh/a0 ::
         :: HOMO-LUMO gap              4.884487620583 eV    ::
         :: SCC energy               -37.420624816652 Eh    ::
         :: -> dispersion             -0.020410007048 Eh    ::
         :: repulsion energy           0.443953187390 Eh    ::

    * Orbital Energies and Occupations

         #    Occupation            Energy/Eh            Energy/eV
      -------------------------------------------------------------
         1        2.0000           -0.8943425             -24.3363
       ...           ...                  ...                  ...
        21        2.0000           -0.6549413             -17.8219
        22        2.0000           -0.6499971             -17.6873
        23        2.0000           -0.6452142             -17.5572
        24        2.0000           -0.6405130             -17.4292
        25        2.0000           -0.6352572             -17.2862
        26        2.0000           -0.6305167             -17.1572
        27        2.0000           -0.6167448             -16.7825
        28        2.0000           -0.6134850             -16.6938
        29        2.0000           -0.6029274             -16.4065
        30        2.0000           -0.5818616             -15.8333
        31        2.0000           -0.5754653             -15.6592
        32        2.0000           -0.5688370             -15.4788
        33        2.0000           -0.5597032             -15.2303 (HOMO)
        34                         -0.3802016             -10.3458 (LUMO)
        35                         -0.2361636              -6.4263
        36                         -0.1843164              -5.0155
        37                         -0.1543075              -4.1989
        38                         -0.1507838              -4.1030
        39                         -0.1193022              -3.2464
        40                         -0.0624611              -1.6997
        41                         -0.0477793              -1.3001
        42                         -0.0411700              -1.1203
        43                         -0.0124987              -0.3401
        44                          0.0002973               0.0081
       ...                                ...                  ...
        62                          0.5200444              14.1511
      -------------------------------------------------------------
                  HL-Gap            0.1795016 Eh            4.8845 eV

     #   Z          covCN         q      C6AA      α(0)
     1   6 C        3.751    -0.122    22.903     6.825
     2   6 C        3.696     0.069    19.592     6.332
     3   8 O        1.703    -0.239    17.954     5.721
     4   6 C        2.710     0.363    20.840     7.472
     5   8 O        0.856    -0.395    21.583     6.229
     6   6 C        3.765    -0.070    21.878     6.667
     7   7 N        3.621     0.140    18.862     6.450
     8   6 C        3.758    -0.041    21.363     6.590
     9   6 C        3.751    -0.128    23.023     6.843
    10   6 C        3.724    -0.098    22.486     6.771
    11   6 C        3.724    -0.105    22.611     6.790
    12   1 H        0.925     0.064     2.153     2.295
    13   1 H        0.925     0.076     2.023     2.224
    14   1 H        0.925     0.063     2.165     2.301
    15   1 H        0.924     0.084     1.937     2.177
    16   1 H        0.924     0.074     2.040     2.234
    17   1 H        0.924     0.116     1.650     2.009
    18   1 H        0.924     0.110     1.696     2.036
    19   1 H        0.924     0.088     1.894     2.152
    20   1 H        0.924     0.110     1.697     2.037
    21   1 H        0.925     0.065     2.145     2.290
    22   1 H        0.925     0.090     1.881     2.145
    23   1 H        0.925     0.063     2.167     2.302
    24   1 H        0.925     0.098     1.802     2.099
    25   1 H        0.925     0.103     1.754     2.071
    26   1 H        0.925     0.101     1.774     2.083
    27   1 H        0.925     0.096     1.822     2.111
    28   1 H        0.925     0.125     1.575     1.962
    29   1 H        0.925     0.100     1.785     2.090

Wiberg/Mayer (AO) data.
largest (>0.10) Wiberg bond orders for each atom

     #   Z sym  total        # sym  WBO       # sym  WBO       # sym  WBO
 ---------------------------------------------------------------------------
     1   6 C    3.986 --     2 C    1.014    12 H    0.984    14 H    0.984
                            13 H    0.977
     2   6 C    3.893 --     1 C    1.014    16 H    0.969    15 H    0.968
                             3 O    0.900
     3   8 O    2.362 --     4 C    1.212     2 C    0.900     5 O    0.194
     4   6 C    3.938 --     5 O    1.734     3 O    1.212     6 C    0.935
     5   8 O    2.061 --     4 C    1.734     3 O    0.194
     6   6 C    3.941 --     7 N    0.954    17 H    0.954    18 H    0.948
                             4 C    0.935
     7   7 N    3.813 --    10 C    0.957     6 C    0.954    11 C    0.952
                             8 C    0.917
     8   6 C    3.922 --     9 C    1.025    19 H    0.967    20 H    0.960
                             7 N    0.917
     9   6 C    3.982 --     8 C    1.025    23 H    0.982    21 H    0.979
                            22 H    0.971
    10   6 C    3.926 --    24 H    0.975    25 H    0.973    26 H    0.971
                             7 N    0.957
    11   6 C    3.916 --    27 H    0.975    29 H    0.975    28 H    0.964
                             7 N    0.952
    12   1 H    0.996 --     1 C    0.984
    13   1 H    0.994 --     1 C    0.977
    14   1 H    0.996 --     1 C    0.984
    15   1 H    0.993 --     2 C    0.968
    16   1 H    0.994 --     2 C    0.969
    17   1 H    0.987 --     6 C    0.954
    18   1 H    0.988 --     6 C    0.948
    19   1 H    0.992 --     8 C    0.967
    20   1 H    0.988 --     8 C    0.960
    21   1 H    0.996 --     9 C    0.979
    22   1 H    0.992 --     9 C    0.971
    23   1 H    0.996 --     9 C    0.982
    24   1 H    0.990 --    10 C    0.975
    25   1 H    0.989 --    10 C    0.973
    26   1 H    0.990 --    10 C    0.971
    27   1 H    0.990 --    11 C    0.975
    28   1 H    0.984 --    11 C    0.964
    29   1 H    0.990 --    11 C    0.975
 ---------------------------------------------------------------------------

molecular dipole:
                 x           y           z       tot (Debye)
 q only:        4.091      -7.565       2.369
   full:        4.261      -7.678       2.291      23.067

           -------------------------------------------------
          | TOTAL ENERGY              -36.976671629262 Eh   |
          | GRADIENT NORM               0.000776492070 Eh/α |
          | HOMO-LUMO GAP               4.884487620583 eV   |
           -------------------------------------------------

 * finished run on 2024/12/20 at 07:05:09.272
