   * xtb version 6.7.1 (edcfbbe) compiled by 'conda@3ef47c1a292c' on 2024-11-25

   ID    Z sym.   atoms
    1    6 C      1-7, 10-14
    2    8 O      8
    3    7 N      9
    4    1 H      15-26

          program call               : xtb C0942.xyz --opt --namespace C0942 --charge +1
          :  Hamiltonian                  GFN2-xTB          :
 * total energy  :   -38.3153263 Eh     change       -0.3030038E-09 Eh
 * total energy  :   -38.3190516 Eh     change       -0.3725296E-02 Eh
 * total energy  :   -38.3198889 Eh     change       -0.8373092E-03 Eh
 * total energy  :   -38.3201257 Eh     change       -0.2368346E-03 Eh
 * total energy  :   -38.3203318 Eh     change       -0.2060896E-03 Eh
 * total energy  :   -38.3204694 Eh     change       -0.1375832E-03 Eh
 * total energy  :   -38.3206218 Eh     change       -0.1524519E-03 Eh
 * total energy  :   -38.3207866 Eh     change       -0.1647920E-03 Eh
 * total energy  :   -38.3209289 Eh     change       -0.1422369E-03 Eh
 * total energy  :   -38.3210247 Eh     change       -0.9581573E-04 Eh
 * total energy  :   -38.3216620 Eh     change       -0.5698495E-04 Eh
 * total energy  :   -38.3217373 Eh     change       -0.7537296E-04 Eh
 * total energy  :   -38.3218342 Eh     change       -0.9690314E-04 Eh
 * total energy  :   -38.3218956 Eh     change       -0.6135023E-04 Eh
 * total energy  :   -38.3219785 Eh     change       -0.8286633E-04 Eh
 * total energy  :   -38.3220392 Eh     change       -0.6070257E-04 Eh
 * total energy  :   -38.3220254 Eh     change        0.1380729E-04 Eh
 * total energy  :   -38.3220713 Eh     change       -0.4592230E-04 Eh
 * total energy  :   -38.3220743 Eh     change       -0.3050926E-05 Eh
   *** GEOMETRY OPTIMIZATION CONVERGED AFTER 37 ITERATIONS ***

 final structure:
================
26
 xtb: 6.7.1 (edcfbbe)
C            1.17059827371392       -0.52498685145997        0.07408607335929
C            0.94808795613017        0.80012188428369       -0.26776655362290
C           -0.34144985805506        1.29934524468743       -0.30872569938650
C           -1.42051276165272        0.47178819844535       -0.01336965338207
C           -1.19027209834190       -0.85728611851180        0.33483097405976
C            0.10144923764169       -1.35348586799190        0.37287487200033
C           -2.81547031589388        1.02177732762287       -0.00976777904813
O           -3.14851373839082        1.65210564602254        1.25910722837601
N           -3.08366466468485        0.80319850995835        2.31969707123017
C           -1.91044038104465        0.61806609187164        2.93301392358686
C           -1.82874061289292       -0.23899680657448        4.01234876283080
C           -2.97102311675264       -0.89538750388211        4.45087846818403
C           -4.17647060261512       -0.66783415911257        3.79428877298519
C           -4.20396915821388        0.18981135523618        2.71703901510429
H            2.17628503055652       -0.91395396912859        0.09896736152955
H            1.77964467606928        1.44323914328704       -0.50886812676006
H           -0.51781776535055        2.32952881928957       -0.57839484808597
H           -2.02440964695286       -1.51288546898297        0.54777375937513
H            0.27101075783301       -2.38778745380084        0.62802402365695
H           -2.93290092835128        1.84700605653825       -0.71229373838085
H           -3.55668290257171        0.24398359539253       -0.22497993699477
H           -1.06570960643784        1.17456018325087        2.55498223952370
H           -0.87904191803001       -0.38321674072293        4.50256548613363
H           -2.92741910904946       -1.56626531660276        5.29456574413538
H           -5.08605124866279       -1.15074141508565        4.11398339495003
H           -5.10192549800207        0.41645561597028        2.15951916464293

          :  Hamiltonian                  GFN2-xTB          :
         :: total energy             -38.322074331836 Eh    ::
         :: gradient norm              0.000963915815 Eh/a0 ::
         :: HOMO-LUMO gap              1.726109417207 eV    ::
         :: SCC energy               -38.959269142199 Eh    ::
         :: -> dispersion             -0.024671303603 Eh    ::
         :: repulsion energy           0.637194810363 Eh    ::

    * Orbital Energies and Occupations

         #    Occupation            Energy/Eh            Energy/eV
      -------------------------------------------------------------
         1        2.0000           -0.9235127             -25.1301
       ...           ...                  ...                  ...
        23        2.0000           -0.6357803             -17.3005
        24        2.0000           -0.6332139             -17.2306
        25        2.0000           -0.6280350             -17.0897
        26        2.0000           -0.6256289             -17.0242
        27        2.0000           -0.6147341             -16.7278
        28        2.0000           -0.6061534             -16.4943
        29        2.0000           -0.6031849             -16.4135
        30        2.0000           -0.5996142             -16.3163
        31        2.0000           -0.5922074             -16.1148
        32        2.0000           -0.5492455             -14.9457
        33        2.0000           -0.5459114             -14.8550
        34        2.0000           -0.5331964             -14.5090
        35        2.0000           -0.5319527             -14.4752 (HOMO)
        36                         -0.4685193             -12.7491 (LUMO)
        37                         -0.4381646             -11.9231
        38                         -0.3594699              -9.7817
        39                         -0.3502136              -9.5298
        40                         -0.3168904              -8.6230
        41                         -0.2510231              -6.8307
        42                         -0.2244624              -6.1079
        43                         -0.1069274              -2.9096
        44                         -0.0767310              -2.0880
        45                         -0.0457493              -1.2449
        46                         -0.0337718              -0.9190
       ...                                ...                  ...
        68                          0.5345057              14.5446
      -------------------------------------------------------------
                  HL-Gap            0.0634334 Eh            1.7261 eV

     #   Z          covCN         q      C6AA      α(0)
     1   6 C        2.920    -0.019    28.486     8.752
     2   6 C        2.918    -0.021    28.531     8.759
     3   6 C        2.922    -0.032    28.803     8.801
     4   6 C        2.968    -0.012    28.315     8.728
     5   6 C        2.922    -0.042    29.039     8.837
     6   6 C        2.918    -0.026    28.657     8.778
     7   6 C        3.688     0.052    19.889     6.383
     8   8 O        1.767    -0.228    17.767     5.692
     9   7 N        2.775     0.250    17.208     6.161
    10   6 C        2.871     0.024    27.474     8.592
    11   6 C        2.916    -0.009    28.240     8.714
    12   6 C        2.924     0.013    27.725     8.635
    13   6 C        2.916    -0.009    28.238     8.714
    14   6 C        2.872     0.022    27.508     8.598
    15   1 H        0.926     0.062     2.170     2.304
    16   1 H        0.926     0.063     2.166     2.302
    17   1 H        0.926     0.056     2.247     2.344
    18   1 H        0.925     0.027     2.636     2.539
    19   1 H        0.926     0.054     2.269     2.355
    20   1 H        0.925     0.110     1.696     2.036
    21   1 H        0.924     0.059     2.207     2.323
    22   1 H        0.926     0.128     1.554     1.949
    23   1 H        0.926     0.116     1.645     2.006
    24   1 H        0.926     0.115     1.651     2.009
    25   1 H        0.926     0.118     1.627     1.995
    26   1 H        0.926     0.129     1.541     1.941

Wiberg/Mayer (AO) data.
largest (>0.10) Wiberg bond orders for each atom

     #   Z sym  total        # sym  WBO       # sym  WBO       # sym  WBO
 ---------------------------------------------------------------------------
     1   6 C    3.985 --     6 C    1.440     2 C    1.432    15 H    0.969
                             4 C    0.106
     2   6 C    3.988 --     3 C    1.450     1 C    1.432    16 H    0.968
                             5 C    0.108
     3   6 C    3.989 --     2 C    1.450     4 C    1.403    17 H    0.967
                             6 C    0.110
     4   6 C    3.984 --     3 C    1.403     5 C    1.400     7 C    1.010
                             1 C    0.106
     5   6 C    3.992 --     6 C    1.443     4 C    1.400    18 H    0.969
                             2 C    0.108
     6   6 C    3.991 --     5 C    1.443     1 C    1.440    19 H    0.969
                             3 C    0.110
     7   6 C    3.893 --     4 C    1.010    21 H    0.968    20 H    0.950
                             8 O    0.884
     8   8 O    2.062 --     9 N    1.007     7 C    0.884
     9   7 N    3.783 --    10 C    1.309    14 C    1.305     8 O    1.007
    10   6 C    3.951 --    11 C    1.449     9 N    1.309    22 H    0.950
    11   6 C    3.979 --    10 C    1.449    12 C    1.431    23 H    0.957
    12   6 C    3.966 --    11 C    1.431    13 C    1.412    24 H    0.959
    13   6 C    3.977 --    14 C    1.468    12 C    1.412    25 H    0.956
    14   6 C    3.949 --    13 C    1.468     9 N    1.305    26 H    0.950
    15   1 H    0.996 --     1 C    0.969
    16   1 H    0.996 --     2 C    0.968
    17   1 H    0.997 --     3 C    0.967
    18   1 H    0.999 --     5 C    0.969
    19   1 H    0.997 --     6 C    0.969
    20   1 H    0.987 --     7 C    0.950
    21   1 H    0.996 --     7 C    0.968
    22   1 H    0.984 --    10 C    0.950
    23   1 H    0.986 --    11 C    0.957
    24   1 H    0.987 --    12 C    0.959
    25   1 H    0.986 --    13 C    0.956
    26   1 H    0.983 --    14 C    0.950
 ---------------------------------------------------------------------------

molecular dipole:
                 x           y           z       tot (Debye)
 q only:       -4.687      -0.068       4.770
   full:       -4.759      -0.117       4.719      17.036

           -------------------------------------------------
          | TOTAL ENERGY              -38.322074331836 Eh   |
          | GRADIENT NORM               0.000963915815 Eh/α |
          | HOMO-LUMO GAP               1.726109417207 eV   |
           -------------------------------------------------

 * finished run on 2024/12/20 at 07:04:59.814
