   * xtb version 6.7.1 (edcfbbe) compiled by 'conda@3ef47c1a292c' on 2024-11-25

   ID    Z sym.   atoms
    1    6 C      1, 3-8, 10-19
    2    8 O      2
    3    7 N      9
    4    1 H      20-41

          program call               : xtb C0946.xyz --opt --namespace C0946 --charge +1
          :  Hamiltonian                  GFN2-xTB          :
 * total energy  :   -54.1762912 Eh     change       -0.1163222E-08 Eh
 * total energy  :   -54.1858882 Eh     change       -0.9597037E-02 Eh
 * total energy  :   -54.1891370 Eh     change       -0.3248757E-02 Eh
 * total energy  :   -54.1897051 Eh     change       -0.5681470E-03 Eh
 * total energy  :   -54.1902505 Eh     change       -0.5453658E-03 Eh
 * total energy  :   -54.1907314 Eh     change       -0.4808643E-03 Eh
 * total energy  :   -54.1913473 Eh     change       -0.6158933E-03 Eh
 * total energy  :   -54.1921224 Eh     change       -0.7750895E-03 Eh
 * total energy  :   -54.1929071 Eh     change       -0.7846998E-03 Eh
 * total energy  :   -54.1936212 Eh     change       -0.7141348E-03 Eh
 * total energy  :   -54.1993728 Eh     change       -0.9619824E-05 Eh
 * total energy  :   -54.1993808 Eh     change       -0.8000028E-05 Eh
 * total energy  :   -54.1993880 Eh     change       -0.7247430E-05 Eh
 * total energy  :   -54.1994005 Eh     change       -0.1251007E-04 Eh
 * total energy  :   -54.1994100 Eh     change       -0.9432375E-05 Eh
 * total energy  :   -54.1994162 Eh     change       -0.6275882E-05 Eh
 * total energy  :   -54.1994219 Eh     change       -0.5703215E-05 Eh
 * total energy  :   -54.1994272 Eh     change       -0.5221320E-05 Eh
 * total energy  :   -54.1994298 Eh     change       -0.2607973E-05 Eh
   *** GEOMETRY OPTIMIZATION CONVERGED AFTER 52 ITERATIONS ***

 final structure:
================
41
 xtb: 6.7.1 (edcfbbe)
C            0.88031861274686       -0.41317088723275       -0.45259899656062
O            0.35206352398828       -0.81162582294661        0.79746302293083
C            0.78596148132201       -1.93758389951232        1.36958788874958
C            0.22364837411334       -2.26292341592396        2.60953005405878
C            0.59914841832615       -3.39887144123796        3.29132959245237
C            1.55633496515610       -4.25678765413035        2.75772514476251
C            2.11507492034837       -3.94166285199762        1.52438493235957
C            1.74159087897369       -2.80430011384483        0.83569384770859
N            1.99766733186039       -5.48692567371672        3.45846365067838
C            1.64002173390935       -6.70126882096902        2.59643404587072
C            2.16269596903903       -7.99281080491953        3.18413585005556
C            3.37556930753445       -8.49747603755331        2.72052887311055
C            3.88345406549311       -9.68724509309196        3.20992448180018
C            3.18365365268334      -10.39565621381287        4.17184321562745
C            1.97040405972152       -9.91188341888919        4.63004645946472
C            1.46053893905789       -8.72190929697912        4.13972059077139
C            0.14890525559602       -6.74630330790113        2.28877596035237
C            1.40537099253766       -5.61305552320322        4.80120546144296
C            3.46321145431016       -5.41571399510685        3.64596243224233
H            0.38460893060449        0.52524581499764       -0.69190259783104
H            0.65858345562895       -1.14841787374289       -1.23076256288079
H            1.95942996964182       -0.24794228468485       -0.39427117312391
H           -0.51652454917430       -1.59842028359380        3.02356988148805
H            0.12417817055719       -3.58687870636629        4.23809479272943
H            2.85539570324929       -4.57616903168615        1.06299806019884
H            2.20263059897359       -2.60256569208549       -0.11684947075563
H            2.16482951554785       -6.53592212959921        1.65124169324221
H            3.92412509565243       -7.96489367289309        1.95663307675272
H            4.82207736592414      -10.06267866966442        2.83391085777455
H            3.57566048010867      -11.32485070894733        4.55350961341346
H            1.41115678755550      -10.46486498122207        5.36836236569336
H            0.50164466070189       -8.38406338679045        4.50080705992657
H           -0.18407204927894       -5.81804927482059        1.83037109830623
H           -0.02414006257724       -7.55381539445371        1.58152948711714
H           -0.46100528805024       -6.94351300411064        3.16423255110111
H            0.32317842529519       -5.68327149280625        4.74192220303264
H            1.79213999381208       -6.51326755730319        5.27543535943451
H            1.68035598196187       -4.75267013515523        5.40821289241905
H            3.97938704829262       -5.39389148269136        2.69060384179899
H            3.70976133058603       -4.50737568208219        4.19341528014170
H            3.80914449825176       -6.28138009733956        4.20789918214439

          :  Hamiltonian                  GFN2-xTB          :
         :: total energy             -54.199429764699 Eh    ::
         :: gradient norm              0.000246216177 Eh/a0 ::
         :: HOMO-LUMO gap              3.937098321058 eV    ::
         :: SCC energy               -55.078220974525 Eh    ::
         :: -> dispersion             -0.042162796729 Eh    ::
         :: repulsion energy           0.878791209825 Eh    ::

    * Orbital Energies and Occupations

         #    Occupation            Energy/Eh            Energy/eV
      -------------------------------------------------------------
         1        2.0000           -0.8414601             -22.8973
       ...           ...                  ...                  ...
        38        2.0000           -0.5938659             -16.1599
        39        2.0000           -0.5928417             -16.1320
        40        2.0000           -0.5881093             -16.0033
        41        2.0000           -0.5812687             -15.8171
        42        2.0000           -0.5716772             -15.5561
        43        2.0000           -0.5701736             -15.5152
        44        2.0000           -0.5476103             -14.9012
        45        2.0000           -0.5431887             -14.7809
        46        2.0000           -0.5413300             -14.7303
        47        2.0000           -0.5367898             -14.6068
        48        2.0000           -0.5233411             -14.2408
        49        2.0000           -0.5225837             -14.2202
        50        2.0000           -0.5055745             -13.7574 (HOMO)
        51                         -0.3608888              -9.8203 (LUMO)
        52                         -0.3573978              -9.7253
        53                         -0.3474411              -9.4544
        54                         -0.3408909              -9.2761
        55                         -0.2338230              -6.3626
        56                         -0.2258346              -6.1453
        57                         -0.1980586              -5.3895
        58                         -0.1484513              -4.0396
        59                         -0.1218682              -3.3162
        60                         -0.1169934              -3.1836
        61                         -0.0784029              -2.1335
       ...                                ...                  ...
        98                          0.5450919              14.8327
      -------------------------------------------------------------
                  HL-Gap            0.1446857 Eh            3.9371 eV

     #   Z          covCN         q      C6AA      α(0)
     1   6 C        3.645     0.021    20.553     6.516
     2   8 O        1.706    -0.228    17.788     5.694
     3   6 C        2.864     0.161    24.520     8.117
     4   6 C        2.922    -0.050    29.238     8.867
     5   6 C        2.919    -0.042    29.040     8.837
     6   6 C        2.927     0.017    27.631     8.620
     7   6 C        2.922    -0.041    29.012     8.833
     8   6 C        2.918    -0.062    29.550     8.914
     9   7 N        3.621     0.112    19.321     6.528
    10   6 C        3.802     0.013    20.363     6.425
    11   6 C        2.968    -0.010    28.269     8.721
    12   6 C        2.925    -0.039    28.963     8.826
    13   6 C        2.918    -0.023    28.571     8.765
    14   6 C        2.920    -0.019    28.486     8.752
    15   6 C        2.919    -0.024    28.601     8.770
    16   6 C        2.922    -0.038    28.947     8.823
    17   6 C        3.753    -0.122    22.893     6.823
    18   6 C        3.719    -0.085    22.253     6.738
    19   6 C        3.728    -0.082    22.172     6.723
    20   1 H        0.925     0.087     1.907     2.160
    21   1 H        0.924     0.057     2.233     2.337
    22   1 H        0.924     0.057     2.233     2.337
    23   1 H        0.926     0.082     1.963     2.191
    24   1 H        0.926     0.064     2.147     2.291
    25   1 H        0.926     0.050     2.317     2.380
    26   1 H        0.926     0.066     2.125     2.280
    27   1 H        0.924     0.072     2.060     2.245
    28   1 H        0.926     0.036     2.509     2.477
    29   1 H        0.926     0.056     2.240     2.341
    30   1 H        0.926     0.060     2.203     2.321
    31   1 H        0.926     0.056     2.248     2.344
    32   1 H        0.926     0.043     2.411     2.428
    33   1 H        0.925     0.058     2.219     2.329
    34   1 H        0.925     0.079     1.992     2.207
    35   1 H        0.925     0.062     2.177     2.307
    36   1 H        0.925     0.096     1.824     2.112
    37   1 H        0.925     0.095     1.834     2.118
    38   1 H        0.925     0.091     1.868     2.137
    39   1 H        0.925     0.091     1.867     2.137
    40   1 H        0.925     0.091     1.873     2.140
    41   1 H        0.925     0.092     1.857     2.131

Wiberg/Mayer (AO) data.
largest (>0.10) Wiberg bond orders for each atom

     #   Z sym  total        # sym  WBO       # sym  WBO       # sym  WBO
 ---------------------------------------------------------------------------
     1   6 C    3.926 --    20 H    0.977    22 H    0.976    21 H    0.975
                             2 O    0.967
     2   8 O    2.307 --     3 C    1.135     1 C    0.967
     3   6 C    3.943 --     8 C    1.339     4 C    1.324     2 O    1.135
     4   6 C    3.985 --     5 C    1.480     3 C    1.324    23 H    0.964
                             7 C    0.101
     5   6 C    3.988 --     4 C    1.480     6 C    1.386    24 H    0.961
     6   6 C    3.917 --     7 C    1.401     5 C    1.386     9 N    0.915
     7   6 C    3.990 --     8 C    1.460     6 C    1.401    25 H    0.960
                             4 C    0.101
     8   6 C    3.987 --     7 C    1.460     3 C    1.339    26 H    0.963
     9   7 N    3.798 --    18 C    0.965    19 C    0.958     6 C    0.915
                            10 C    0.873
    10   6 C    3.930 --    17 C    1.012    11 C    0.994    27 H    0.955
                             9 N    0.873
    11   6 C    3.980 --    16 C    1.409    12 C    1.406    10 C    0.994
                            14 C    0.109
    12   6 C    3.991 --    13 C    1.447    11 C    1.406    28 H    0.968
                            15 C    0.109
    13   6 C    3.990 --    12 C    1.447    14 C    1.436    29 H    0.969
                            16 C    0.109
    14   6 C    3.988 --    15 C    1.439    13 C    1.436    30 H    0.969
                            11 C    0.109
    15   6 C    3.990 --    16 C    1.443    14 C    1.439    31 H    0.969
                            12 C    0.109
    16   6 C    3.990 --    15 C    1.443    11 C    1.409    32 H    0.964
                            13 C    0.109
    17   6 C    3.985 --    10 C    1.012    33 H    0.978    35 H    0.976
                            34 H    0.974
    18   6 C    3.934 --    38 H    0.974    36 H    0.970    37 H    0.968
                             9 N    0.965
    19   6 C    3.934 --    40 H    0.976    39 H    0.973    41 H    0.972
                             9 N    0.958
    20   1 H    0.992 --     1 C    0.977
    21   1 H    0.997 --     1 C    0.975
    22   1 H    0.997 --     1 C    0.976
    23   1 H    0.993 --     4 C    0.964
    24   1 H    0.995 --     5 C    0.961
    25   1 H    0.997 --     7 C    0.960
    26   1 H    0.995 --     8 C    0.963
    27   1 H    0.994 --    10 C    0.955
    28   1 H    0.999 --    12 C    0.968
    29   1 H    0.996 --    13 C    0.969
    30   1 H    0.996 --    14 C    0.969
    31   1 H    0.997 --    15 C    0.969
    32   1 H    0.998 --    16 C    0.964
    33   1 H    0.996 --    17 C    0.978
    34   1 H    0.993 --    17 C    0.974
    35   1 H    0.996 --    17 C    0.976
    36   1 H    0.991 --    18 C    0.970
    37   1 H    0.991 --    18 C    0.968
    38   1 H    0.992 --    18 C    0.974
    39   1 H    0.992 --    19 C    0.973
    40   1 H    0.991 --    19 C    0.976
    41   1 H    0.991 --    19 C    0.972
 ---------------------------------------------------------------------------

molecular dipole:
                 x           y           z       tot (Debye)
 q only:        3.706     -10.113       5.631
   full:        3.837     -10.160       5.511      30.955

           -------------------------------------------------
          | TOTAL ENERGY              -54.199429764699 Eh   |
          | GRADIENT NORM               0.000246216177 Eh/α |
          | HOMO-LUMO GAP               3.937098321058 eV   |
           -------------------------------------------------

 * finished run on 2024/12/20 at 07:05:08.150
