   * xtb version 6.7.1 (edcfbbe) compiled by 'conda@3ef47c1a292c' on 2024-11-25

   ID    Z sym.   atoms
    1    6 C      1-8, 10-15, 17-19
    2    7 N      9, 16
    3    1 H      20-52

          program call               : xtb C0943.xyz --opt --namespace C0943 --charge +1
          :  Hamiltonian                  GFN2-xTB          :
 * total energy  :   -58.7612737 Eh     change       -0.3222311E-10 Eh
 * total energy  :   -58.7665631 Eh     change       -0.5289382E-02 Eh
 * total energy  :   -58.7675839 Eh     change       -0.1020736E-02 Eh
 * total energy  :   -58.7678294 Eh     change       -0.2455522E-03 Eh
 * total energy  :   -58.7681267 Eh     change       -0.2972675E-03 Eh
 * total energy  :   -58.7682784 Eh     change       -0.1516911E-03 Eh
 * total energy  :   -58.7684324 Eh     change       -0.1539933E-03 Eh
 * total energy  :   -58.7685691 Eh     change       -0.1367723E-03 Eh
 * total energy  :   -58.7687191 Eh     change       -0.1499823E-03 Eh
 * total energy  :   -58.7688946 Eh     change       -0.1755352E-03 Eh
 * total energy  :   -58.7700512 Eh     change       -0.3182613E-04 Eh
 * total energy  :   -58.7700826 Eh     change       -0.3133690E-04 Eh
 * total energy  :   -58.7701082 Eh     change       -0.2565934E-04 Eh
 * total energy  :   -58.7701213 Eh     change       -0.1311985E-04 Eh
 * total energy  :   -58.7701277 Eh     change       -0.6368749E-05 Eh
 * total energy  :   -58.7701347 Eh     change       -0.7018251E-05 Eh
 * total energy  :   -58.7701417 Eh     change       -0.6993464E-05 Eh
 * total energy  :   -58.7701478 Eh     change       -0.6091579E-05 Eh
 * total energy  :   -58.7701509 Eh     change       -0.3071023E-05 Eh
   *** GEOMETRY OPTIMIZATION CONVERGED AFTER 44 ITERATIONS ***

 final structure:
================
52
 xtb: 6.7.1 (edcfbbe)
C            1.34858373825299        0.62808298375731        0.43073260182583
C            1.04550939884253        1.17658390601430       -0.95826875234418
C            1.47095699990651        0.23364777971318       -2.08535008250995
C            0.78107669795478       -1.13231386454670       -2.07997811251952
C           -0.74653064612443       -1.09009681568119       -2.15254950974688
C           -1.31526868896569       -0.35395514767419       -3.36820356705125
C           -0.90938857662990       -1.00580913915739       -4.68830526675391
C           -1.60815600291917       -0.40530435412440       -5.91387870679851
N           -3.05247140459383       -0.59331352081399       -5.88978548772567
C           -3.94392859098435        0.32459685127472       -5.55046198648047
C           -3.51114248397927        1.70504024839218       -5.16037153104042
C           -3.68840609375127        2.70219840724097       -6.31932792534217
C           -5.11259447065026        3.23970781967420       -6.41122110079179
C           -6.15732093838064        2.14738671775156       -6.62146694813320
C           -6.23381325086509        1.14425155959793       -5.46732264485273
N           -5.24597939750458        0.07856651373612       -5.58180464548743
C           -5.78891007202023       -1.24458010744464       -5.84478771669976
C           -4.74585316716345       -2.30619773765080       -5.54898487348139
C           -3.47738134101022       -1.92716256944890       -6.29087569078420
H            0.74300665047866       -0.24724032883449        0.65136090205105
H            1.13841612699632        1.38191015389136        1.18557675606641
H            2.39700922321768        0.35063677378664        0.50864430884870
H           -0.02095756378408        1.39915848094199       -1.03611346914384
H            1.58270520769261        2.11888067003505       -1.08849250589637
H            1.29812037833808        0.72990273866821       -3.04382897227508
H            2.54658791349759        0.06322034109496       -2.00456046473877
H            1.16971321700289       -1.71839617266867       -2.91557498857016
H            1.05577588581929       -1.66308114911369       -1.16792073097145
H           -1.11767094135281       -2.11824783352006       -2.15734242243703
H           -1.13380827661239       -0.61127450496976       -1.25238610044193
H           -2.40612878889736       -0.35542509440384       -3.28055501927409
H           -0.97797468331548        0.68327255248205       -3.34896806055779
H            0.16304888954437       -0.88789564462048       -4.83950135543053
H           -1.11484217950470       -2.07659006660941       -4.63146841620909
H           -1.35981425972685        0.64938212254361       -6.01123694750148
H           -1.24288456128730       -0.90684842261742       -6.81448032300559
H           -2.47524327330827        1.69811937821136       -4.83599984563772
H           -4.10324093302298        2.04255501658486       -4.30866398780775
H           -3.40576701896181        2.22725647279127       -7.26095588582587
H           -3.01193217848356        3.54156550593689       -6.15825044360518
H           -5.34877439262795        3.78966359513741       -5.49809536519343
H           -5.16982024207335        3.94557928439092       -7.24011595499556
H           -7.13402559794431        2.62098620859625       -6.72198413226059
H           -5.95542580222415        1.61094514843301       -7.55074553028215
H           -7.21326870829622        0.66667303954955       -5.47487082309391
H           -6.13080773286501        1.66281140250230       -4.51020434036865
H           -6.11835044910323       -1.30533041163999       -6.88787854154410
H           -6.66309280353023       -1.38739590222457       -5.20519973943209
H           -5.09996585538454       -3.28388880621504       -5.86908210055301
H           -4.54621860580151       -2.34573551910282       -4.47671388122640
H           -3.64657443710389       -1.94177803667662       -7.37332759329726
H           -2.67592591675274       -2.62972052295907       -6.06343207867801

          :  Hamiltonian                  GFN2-xTB          :
         :: total energy             -58.770150882641 Eh    ::
         :: gradient norm              0.000261448087 Eh/a0 ::
         :: HOMO-LUMO gap              2.952253145464 eV    ::
         :: SCC energy               -59.616026391349 Eh    ::
         :: -> dispersion             -0.045720816249 Eh    ::
         :: repulsion energy           0.845875508708 Eh    ::

    * Orbital Energies and Occupations

         #    Occupation            Energy/Eh            Energy/eV
      -------------------------------------------------------------
         1        2.0000           -0.8451272             -22.9971
       ...           ...                  ...                  ...
        43        2.0000           -0.5641233             -15.3506
        44        2.0000           -0.5607400             -15.2585
        45        2.0000           -0.5586527             -15.2017
        46        2.0000           -0.5553494             -15.1118
        47        2.0000           -0.5492814             -14.9467
        48        2.0000           -0.5434210             -14.7872
        49        2.0000           -0.5332951             -14.5117
        50        2.0000           -0.5289394             -14.3932
        51        2.0000           -0.5209683             -14.1763
        52        2.0000           -0.5180221             -14.0961
        53        2.0000           -0.4989098             -13.5760
        54        2.0000           -0.4953478             -13.4791
        55        2.0000           -0.4922335             -13.3944 (HOMO)
        56                         -0.3837402             -10.4421 (LUMO)
        57                         -0.1810442              -4.9265
        58                         -0.1540089              -4.1908
        59                         -0.1122621              -3.0548
        60                         -0.0683408              -1.8596
        61                         -0.0612194              -1.6659
        62                         -0.0529247              -1.4402
        63                         -0.0513977              -1.3986
        64                         -0.0388701              -1.0577
        65                         -0.0380950              -1.0366
        66                         -0.0254334              -0.6921
       ...                                ...                  ...
       109                          0.3602175               9.8020
      -------------------------------------------------------------
                  HL-Gap            0.1084933 Eh            2.9523 eV

     #   Z          covCN         q      C6AA      α(0)
     1   6 C        3.751    -0.105    22.569     6.775
     2   6 C        3.799    -0.053    21.523     6.605
     3   6 C        3.800    -0.059    21.638     6.623
     4   6 C        3.800    -0.063    21.704     6.633
     5   6 C        3.801    -0.060    21.654     6.625
     6   6 C        3.800    -0.058    21.622     6.620
     7   6 C        3.801    -0.071    21.858     6.656
     8   6 C        3.747    -0.023    21.055     6.545
     9   7 N        2.741    -0.023    21.686     6.916
    10   6 C        2.840     0.146    24.819     8.164
    11   6 C        3.810    -0.085    22.113     6.694
    12   6 C        3.803    -0.060    21.655     6.625
    13   6 C        3.802    -0.070    21.833     6.652
    14   6 C        3.802    -0.070    21.848     6.655
    15   6 C        3.750    -0.022    21.023     6.539
    16   7 N        2.743    -0.025    21.736     6.924
    17   6 C        3.756    -0.018    20.952     6.526
    18   6 C        3.808    -0.075    21.922     6.665
    19   6 C        3.762    -0.018    20.947     6.524
    20   1 H        0.925     0.035     2.518     2.481
    21   1 H        0.925     0.037     2.486     2.466
    22   1 H        0.925     0.040     2.451     2.448
    23   1 H        0.924     0.025     2.662     2.552
    24   1 H        0.924     0.032     2.559     2.501
    25   1 H        0.924     0.022     2.710     2.575
    26   1 H        0.924     0.039     2.464     2.455
    27   1 H        0.924     0.029     2.598     2.521
    28   1 H        0.924     0.046     2.366     2.405
    29   1 H        0.924     0.030     2.581     2.512
    30   1 H        0.924     0.045     2.381     2.413
    31   1 H        0.924     0.018     2.767     2.601
    32   1 H        0.924     0.040     2.451     2.448
    33   1 H        0.925     0.067     2.113     2.273
    34   1 H        0.924     0.049     2.337     2.391
    35   1 H        0.925     0.073     2.054     2.241
    36   1 H        0.924     0.072     2.068     2.249
    37   1 H        0.925     0.080     1.982     2.201
    38   1 H        0.924     0.083     1.953     2.186
    39   1 H        0.924     0.046     2.366     2.406
    40   1 H        0.925     0.065     2.144     2.290
    41   1 H        0.924     0.052     2.294     2.369
    42   1 H        0.924     0.061     2.183     2.311
    43   1 H        0.925     0.067     2.117     2.275
    44   1 H        0.924     0.052     2.300     2.372
    45   1 H        0.925     0.075     2.036     2.231
    46   1 H        0.924     0.074     2.039     2.233
    47   1 H        0.924     0.073     2.049     2.239
    48   1 H        0.924     0.080     1.983     2.202
    49   1 H        0.925     0.081     1.964     2.192
    50   1 H        0.924     0.068     2.108     2.271
    51   1 H        0.924     0.071     2.073     2.252
    52   1 H        0.925     0.086     1.923     2.169

Wiberg/Mayer (AO) data.
largest (>0.10) Wiberg bond orders for each atom

     #   Z sym  total        # sym  WBO       # sym  WBO       # sym  WBO
 ---------------------------------------------------------------------------
     1   6 C    3.996 --     2 C    1.020    22 H    0.987    21 H    0.987
                            20 H    0.986
     2   6 C    3.998 --     1 C    1.020     3 C    1.008    24 H    0.978
                            23 H    0.976
     3   6 C    3.997 --     2 C    1.008     4 C    1.008    26 H    0.976
                            25 H    0.976
     4   6 C    3.996 --     5 C    1.008     3 C    1.008    27 H    0.976
                            28 H    0.974
     5   6 C    3.995 --     4 C    1.008     6 C    1.004    29 H    0.977
                            30 H    0.974
     6   6 C    3.996 --     7 C    1.008     5 C    1.004    31 H    0.976
                            32 H    0.972
     7   6 C    3.987 --     6 C    1.008     8 C    0.990    34 H    0.971
                            33 H    0.967
     8   6 C    3.950 --     7 C    0.990     9 N    0.970    36 H    0.963
                            35 H    0.962
     9   7 N    3.598 --    10 C    1.394    19 C    0.973     8 C    0.970
                            16 N    0.147
    10   6 C    3.960 --     9 N    1.394    16 N    1.385    11 C    1.011
    11   6 C    3.982 --    10 C    1.011    12 C    0.974    37 H    0.958
                            38 H    0.950
    12   6 C    3.990 --    13 C    1.011    39 H    0.977    11 C    0.974
                            40 H    0.972
    13   6 C    3.993 --    12 C    1.011    14 C    1.009    41 H    0.974
                            42 H    0.973
    14   6 C    3.990 --    13 C    1.009    15 C    0.996    44 H    0.974
                            43 H    0.970
    15   6 C    3.952 --    14 C    0.996    16 N    0.970    45 H    0.969
                            46 H    0.955
    16   7 N    3.588 --    10 C    1.385    17 C    0.976    15 C    0.970
                             9 N    0.147
    17   6 C    3.963 --    18 C    1.008    16 N    0.976    48 H    0.961
                            47 H    0.960
    18   6 C    3.990 --    17 C    1.008    19 C    1.007    50 H    0.973
                            49 H    0.968
    19   6 C    3.962 --    18 C    1.007     9 N    0.973    52 H    0.962
                            51 H    0.960
    20   1 H    0.999 --     1 C    0.986
    21   1 H    0.999 --     1 C    0.987
    22   1 H    0.998 --     1 C    0.987
    23   1 H    0.999 --     2 C    0.976
    24   1 H    0.999 --     2 C    0.978
    25   1 H    1.000 --     3 C    0.976
    26   1 H    0.998 --     3 C    0.976
    27   1 H    0.999 --     4 C    0.976
    28   1 H    0.998 --     4 C    0.974
    29   1 H    0.999 --     5 C    0.977
    30   1 H    0.998 --     5 C    0.974
    31   1 H    1.000 --     6 C    0.976
    32   1 H    0.998 --     6 C    0.972
    33   1 H    0.994 --     7 C    0.967
    34   1 H    0.998 --     7 C    0.971
    35   1 H    0.994 --     8 C    0.962
    36   1 H    0.994 --     8 C    0.963
    37   1 H    0.994 --    11 C    0.958
    38   1 H    0.993 --    11 C    0.950
    39   1 H    0.998 --    12 C    0.977
    40   1 H    0.995 --    12 C    0.972
    41   1 H    0.997 --    13 C    0.974
    42   1 H    0.996 --    13 C    0.973
    43   1 H    0.995 --    14 C    0.970
    44   1 H    0.997 --    14 C    0.974
    45   1 H    0.994 --    15 C    0.969
    46   1 H    0.994 --    15 C    0.955
    47   1 H    0.994 --    17 C    0.960
    48   1 H    0.993 --    17 C    0.961
    49   1 H    0.993 --    18 C    0.968
    50   1 H    0.995 --    18 C    0.973
    51   1 H    0.995 --    19 C    0.960
    52   1 H    0.993 --    19 C    0.962
 ---------------------------------------------------------------------------

molecular dipole:
                 x           y           z       tot (Debye)
 q only:       -7.456      -0.020     -10.544
   full:       -7.505      -0.082     -10.604      33.022

           -------------------------------------------------
          | TOTAL ENERGY              -58.770150882641 Eh   |
          | GRADIENT NORM               0.000261448087 Eh/α |
          | HOMO-LUMO GAP               2.952253145464 eV   |
           -------------------------------------------------

 * finished run on 2024/12/20 at 07:05:02.061
