   * xtb version 6.7.1 (edcfbbe) compiled by 'conda@3ef47c1a292c' on 2024-11-25

   ID    Z sym.   atoms
    1    6 C      1-3, 5-8, 10, 13-18, 21-24
    2    7 N      4, 9, 20
    3    8 O      11, 12, 19
    4    1 H      25-56

          program call               : xtb C0941.xyz --opt --namespace C0941 --charge +1
          :  Hamiltonian                  GFN2-xTB          :
 * total energy  :   -75.5333866 Eh     change       -0.6122605E-09 Eh
 * total energy  :   -75.5430704 Eh     change       -0.9683875E-02 Eh
 * total energy  :   -75.5452537 Eh     change       -0.2183276E-02 Eh
 * total energy  :   -75.5457638 Eh     change       -0.5100958E-03 Eh
 * total energy  :   -75.5460654 Eh     change       -0.3016417E-03 Eh
 * total energy  :   -75.5463010 Eh     change       -0.2355348E-03 Eh
 * total energy  :   -75.5466122 Eh     change       -0.3112203E-03 Eh
 * total energy  :   -75.5468919 Eh     change       -0.2796550E-03 Eh
 * total energy  :   -75.5471080 Eh     change       -0.2161883E-03 Eh
 * total energy  :   -75.5471916 Eh     change       -0.8354593E-04 Eh
 * total energy  :   -75.5488796 Eh     change       -0.5890065E-05 Eh
 * total energy  :   -75.5488857 Eh     change       -0.6030591E-05 Eh
 * total energy  :   -75.5488914 Eh     change       -0.5717929E-05 Eh
 * total energy  :   -75.5488965 Eh     change       -0.5068914E-05 Eh
 * total energy  :   -75.5489016 Eh     change       -0.5186630E-05 Eh
 * total energy  :   -75.5489075 Eh     change       -0.5846210E-05 Eh
 * total energy  :   -75.5489136 Eh     change       -0.6126420E-05 Eh
 * total energy  :   -75.5489191 Eh     change       -0.5443968E-05 Eh
 * total energy  :   -75.5489235 Eh     change       -0.4422303E-05 Eh
   *** GEOMETRY OPTIMIZATION CONVERGED AFTER 64 ITERATIONS ***

 final structure:
================
56
 xtb: 6.7.1 (edcfbbe)
C            0.51228937789515        0.38874499423527        0.15933541362708
C           -0.02124187996729        0.92089020794041       -1.16745701358647
C            0.43787290971942        0.07420453744807       -2.35042383650311
N           -1.47845340770029        0.97612725661025       -1.12701630878075
C           -2.23794825302436        2.10135273434993       -1.20962881278846
C           -3.55425650559192        1.73721953537121       -1.10963914960499
C           -4.75096920717406        2.60939307935588       -1.17054734538019
C           -5.18006225755257        2.89904871331555       -2.62853784499090
N           -5.40518388553308        1.68056985562780       -3.37394310787318
C           -6.55957863877506        0.93720245414934       -3.28286954849871
O           -6.79723343504413        0.04877120044321       -4.05881556270356
O           -7.26847474022345        1.30878873885324       -2.21770977525380
C           -8.61657582683130        0.79368459790379       -1.98219954677860
C           -9.51234274066081        1.14947918699993       -3.16468877681465
C           -8.57783867413551       -0.71554886544257       -1.75703850374107
C           -9.06470127860724        1.52725725413258       -0.71975057464080
C           -6.43462721887501        3.80985274346260       -2.60797652704074
C           -7.00901806118539        4.11113146218147       -3.95944605850936
O           -6.84925360012727        4.26423747774880       -1.57910826569643
N           -3.56408156630578        0.37275403683205       -0.97421326390895
C           -2.30234207486152       -0.05464260382477       -0.98292370006426
C           -4.72263925998315       -0.49639837982606       -0.78453957375665
C           -4.71005733972018       -1.63040660677232       -1.80388416798433
C           -4.73213257893978       -1.01490756584338        0.65182856616572
H            0.23005424255933       -0.65026384590091        0.30789730587606
H            0.13695597769268        0.97845772825218        0.99234273226788
H            1.59635024867832        0.44861747615533        0.16213319571336
H            0.31798701583844        1.95196435223472       -1.30616222515059
H            0.15632138066981       -0.96763079006024       -2.22230209260944
H            0.01140516533478        0.44237575274068       -3.28050083907983
H            1.51958698572741        0.12429497213045       -2.42992618972963
H           -1.80903605492188        3.07601126796831       -1.32116527606860
H           -5.60105898836504        2.17297212605150       -0.64861760060329
H           -4.52913804905260        3.56649414587563       -0.69761619834072
H           -4.38252253209571        3.45460560398071       -3.13247533436664
H           -4.89119530644662        1.53354352148455       -4.22844923940414
H           -9.15573976287638        0.66738668459709       -4.07147448846480
H          -10.52438099244453        0.80954224049202       -2.96829048372368
H           -9.52979295317281        2.22690422572203       -3.31237735262822
H           -7.95119916394469       -0.95955989999410       -0.90117610609983
H           -9.58400846298308       -1.07197705948853       -1.55930843966306
H           -8.19620832719442       -1.22087458240410       -2.63996510430189
H           -8.46021386623116        1.22795926512102        0.13315541742054
H           -8.96051583677054        2.60062766999248       -0.85489346063271
H          -10.10356924922661        1.29549820299504       -0.50949662753124
H           -7.17747934369063        3.20323325387193       -4.53348451537025
H           -7.94253817651496        4.65649317662904       -3.84911826181470
H           -6.30470817732801        4.73109080046916       -4.51324831796807
H           -1.99988964661271       -1.07713650718078       -0.88696116092846
H           -5.60872752160166        0.11774533668615       -0.95227814936787
H           -3.87700742860362       -2.30911445247747       -1.64158824490154
H           -5.62941635912418       -2.20128188555705       -1.71320167890414
H           -4.66366527332744       -1.24123761948317       -2.81777524552134
H           -4.72098776148232       -0.19132610545984        1.36225564428369
H           -5.63266770617333       -1.59783506299070        0.82060432155037
H           -3.87482393313698       -1.65523603777045        0.84427730111560

          :  Hamiltonian                  GFN2-xTB          :
         :: total energy             -75.548923479824 Eh    ::
         :: gradient norm              0.000298421031 Eh/a0 ::
         :: HOMO-LUMO gap              2.909875889797 eV    ::
         :: SCC energy               -76.545458112414 Eh    ::
         :: -> dispersion             -0.056659909020 Eh    ::
         :: repulsion energy           0.996534632589 Eh    ::

    * Orbital Energies and Occupations

         #    Occupation            Energy/Eh            Energy/eV
      -------------------------------------------------------------
         1        2.0000           -0.8757634             -23.8307
       ...           ...                  ...                  ...
        56        2.0000           -0.5711963             -15.5430
        57        2.0000           -0.5686476             -15.4737
        58        2.0000           -0.5609435             -15.2640
        59        2.0000           -0.5580132             -15.1843
        60        2.0000           -0.5540820             -15.0773
        61        2.0000           -0.5478943             -14.9090
        62        2.0000           -0.5442289             -14.8092
        63        2.0000           -0.5402552             -14.7011
        64        2.0000           -0.5353646             -14.5680
        65        2.0000           -0.5318589             -14.4726
        66        2.0000           -0.5195699             -14.1382
        67        2.0000           -0.5089109             -13.8482
        68        2.0000           -0.4966927             -13.5157 (HOMO)
        69                         -0.3897567             -10.6058 (LUMO)
        70                         -0.3589047              -9.7663
        71                         -0.3526617              -9.5964
        72                         -0.2985539              -8.1241
        73                         -0.1811719              -4.9299
        74                         -0.1403649              -3.8195
        75                         -0.1343908              -3.6570
        76                         -0.0940437              -2.5591
        77                         -0.0754875              -2.0541
        78                         -0.0634216              -1.7258
        79                         -0.0488707              -1.3298
       ...                                ...                  ...
       128                          0.5846035              15.9079
      -------------------------------------------------------------
                  HL-Gap            0.1069360 Eh            2.9099 eV

     #   Z          covCN         q      C6AA      α(0)
     1   6 C        3.755    -0.127    22.994     6.837
     2   6 C        3.789     0.031    20.066     6.380
     3   6 C        3.755    -0.127    22.994     6.837
     4   7 N        2.857     0.048    20.402     6.708
     5   6 C        3.086    -0.027    28.585     8.764
     6   6 C        3.096     0.047    26.829     8.489
     7   6 C        3.806    -0.081    22.034     6.682
     8   6 C        3.787     0.026    20.152     6.394
     9   7 N        2.688    -0.227    25.964     7.568
    10   6 C        2.634     0.409    20.116     7.337
    11   8 O        0.858    -0.455    22.809     6.403
    12   8 O        1.703    -0.307    19.109     5.902
    13   6 C        3.778     0.156    18.099     6.061
    14   6 C        3.756    -0.123    22.922     6.826
    15   6 C        3.756    -0.124    22.937     6.829
    16   6 C        3.757    -0.124    22.922     6.826
    17   6 C        2.809     0.241    22.969     7.852
    18   6 C        3.753    -0.143    23.321     6.886
    19   8 O        0.857    -0.323    20.203     6.026
    20   7 N        2.872     0.039    20.563     6.735
    21   6 C        3.094     0.053    26.694     8.468
    22   6 C        3.790     0.028    20.119     6.388
    23   6 C        3.755    -0.126    22.979     6.835
    24   6 C        3.755    -0.124    22.935     6.828
    25   1 H        0.925     0.060     2.202     2.321
    26   1 H        0.925     0.060     2.197     2.318
    27   1 H        0.925     0.081     1.968     2.194
    28   1 H        0.924     0.076     2.016     2.221
    29   1 H        0.925     0.060     2.196     2.317
    30   1 H        0.925     0.059     2.213     2.327
    31   1 H        0.925     0.081     1.968     2.194
    32   1 H        0.926     0.091     1.865     2.135
    33   1 H        0.925     0.101     1.778     2.085
    34   1 H        0.924     0.095     1.836     2.119
    35   1 H        0.924     0.063     2.160     2.298
    36   1 H        0.860     0.189     1.166     1.692
    37   1 H        0.925     0.064     2.149     2.292
    38   1 H        0.925     0.059     2.216     2.328
    39   1 H        0.925     0.049     2.332     2.388
    40   1 H        0.925     0.036     2.500     2.473
    41   1 H        0.925     0.059     2.209     2.324
    42   1 H        0.925     0.070     2.080     2.255
    43   1 H        0.925     0.048     2.348     2.396
    44   1 H        0.925     0.066     2.125     2.280
    45   1 H        0.925     0.062     2.180     2.309
    46   1 H        0.925     0.077     2.009     2.216
    47   1 H        0.925     0.088     1.903     2.157
    48   1 H        0.925     0.083     1.947     2.182
    49   1 H        0.926     0.106     1.734     2.059
    50   1 H        0.924     0.087     1.905     2.158
    51   1 H        0.925     0.054     2.270     2.356
    52   1 H        0.925     0.081     1.966     2.193
    53   1 H        0.925     0.065     2.146     2.291
    54   1 H        0.925     0.057     2.234     2.338
    55   1 H        0.925     0.077     2.014     2.219
    56   1 H        0.925     0.056     2.245     2.343

Wiberg/Mayer (AO) data.
largest (>0.10) Wiberg bond orders for each atom

     #   Z sym  total        # sym  WBO       # sym  WBO       # sym  WBO
 ---------------------------------------------------------------------------
     1   6 C    3.984 --     2 C    0.997    26 H    0.984    25 H    0.983
                            27 H    0.977
     2   6 C    3.941 --     3 C    0.998     1 C    0.997    28 H    0.961
                             4 N    0.943
     3   6 C    3.985 --     2 C    0.998    30 H    0.984    29 H    0.983
                            31 H    0.978
     4   7 N    3.707 --    21 C    1.366     5 C    1.224     2 C    0.943
     5   6 C    3.943 --     6 C    1.539     4 N    1.224    32 H    0.963
     6   6 C    3.955 --     5 C    1.539    20 N    1.203     7 C    1.031
     7   6 C    3.982 --     6 C    1.031     8 C    0.957    34 H    0.956
                            33 H    0.953
     8   6 C    3.972 --     9 N    0.995     7 C    0.957    35 H    0.952
                            17 C    0.924
     9   7 N    3.342 --    10 C    1.136     8 C    0.995    36 H    0.938
                            11 O    0.152
    10   6 C    3.943 --    11 O    1.650     9 N    1.136    12 O    1.107
    11   8 O    1.994 --    10 C    1.650     9 N    0.152    12 O    0.143
    12   8 O    2.267 --    10 C    1.107    13 C    0.874    11 O    0.143
    13   6 C    3.905 --    14 C    0.998    15 C    0.998    16 C    0.997
                            12 O    0.874
    14   6 C    3.990 --    13 C    0.998    39 H    0.984    38 H    0.981
                            37 H    0.980
    15   6 C    3.991 --    13 C    0.998    40 H    0.984    41 H    0.981
                            42 H    0.979
    16   6 C    3.990 --    13 C    0.997    43 H    0.984    45 H    0.981
                            44 H    0.981
    17   6 C    3.919 --    19 O    1.895    18 C    1.017     8 C    0.924
    18   6 C    3.988 --    17 C    1.017    47 H    0.977    46 H    0.960
                            48 H    0.948
    19   8 O    2.109 --    17 C    1.895
    20   7 N    3.697 --    21 C    1.355     6 C    1.203    22 C    0.941
    21   6 C    3.948 --     4 N    1.366    20 N    1.355    49 H    0.953
    22   6 C    3.938 --    23 C    1.000    24 C    0.995    50 H    0.949
                            20 N    0.941
    23   6 C    3.984 --    22 C    1.000    51 H    0.983    53 H    0.982
                            52 H    0.976
    24   6 C    3.986 --    22 C    0.995    54 H    0.984    56 H    0.983
                            55 H    0.978
    25   1 H    0.996 --     1 C    0.983
    26   1 H    0.996 --     1 C    0.984
    27   1 H    0.993 --     1 C    0.977
    28   1 H    0.994 --     2 C    0.961
    29   1 H    0.996 --     3 C    0.983
    30   1 H    0.997 --     3 C    0.984
    31   1 H    0.993 --     3 C    0.978
    32   1 H    0.991 --     5 C    0.963
    33   1 H    0.989 --     7 C    0.953
    34   1 H    0.991 --     7 C    0.956
    35   1 H    0.996 --     8 C    0.952
    36   1 H    0.964 --     9 N    0.938
    37   1 H    0.996 --    14 C    0.980
    38   1 H    0.996 --    14 C    0.981
    39   1 H    0.998 --    14 C    0.984
    40   1 H    0.999 --    15 C    0.984
    41   1 H    0.996 --    15 C    0.981
    42   1 H    0.995 --    15 C    0.979
    43   1 H    0.998 --    16 C    0.984
    44   1 H    0.996 --    16 C    0.981
    45   1 H    0.995 --    16 C    0.981
    46   1 H    0.994 --    18 C    0.960
    47   1 H    0.992 --    18 C    0.977
    48   1 H    0.993 --    18 C    0.948
    49   1 H    0.989 --    21 C    0.953
    50   1 H    0.992 --    22 C    0.949
    51   1 H    0.997 --    23 C    0.983
    52   1 H    0.993 --    23 C    0.976
    53   1 H    0.996 --    23 C    0.982
    54   1 H    0.997 --    24 C    0.984
    55   1 H    0.994 --    24 C    0.978
    56   1 H    0.997 --    24 C    0.983
 ---------------------------------------------------------------------------

molecular dipole:
                 x           y           z       tot (Debye)
 q only:       -5.391       1.584      -2.296
   full:       -5.178       1.655      -2.584      15.299

           -------------------------------------------------
          | TOTAL ENERGY              -75.548923479824 Eh   |
          | GRADIENT NORM               0.000298421031 Eh/α |
          | HOMO-LUMO GAP               2.909875889797 eV   |
           -------------------------------------------------

 * finished run on 2024/12/20 at 07:04:58.985
