   * xtb version 6.7.1 (edcfbbe) compiled by 'conda@3ef47c1a292c' on 2024-11-25

   ID    Z sym.   atoms
    1    6 C      1-3, 5-10
    2    7 N      4
    3    1 H      11-30

          program call               : xtb C0955.xyz --opt --namespace C0955 --charge +1
          :  Hamiltonian                  GFN2-xTB          :
 * total energy  :   -31.9519655 Eh     change       -0.1694787E-09 Eh
 * total energy  :   -31.9601632 Eh     change       -0.8197746E-02 Eh
 * total energy  :   -31.9622915 Eh     change       -0.2128272E-02 Eh
 * total energy  :   -31.9626218 Eh     change       -0.3303034E-03 Eh
 * total energy  :   -31.9629965 Eh     change       -0.3746982E-03 Eh
 * total energy  :   -31.9631855 Eh     change       -0.1890535E-03 Eh
 * total energy  :   -31.9633682 Eh     change       -0.1826191E-03 Eh
 * total energy  :   -31.9634285 Eh     change       -0.6034364E-04 Eh
 * total energy  :   -31.9634531 Eh     change       -0.2455135E-04 Eh
 * total energy  :   -31.9634689 Eh     change       -0.1587245E-04 Eh
 * total energy  :   -31.9634785 Eh     change       -0.9556769E-05 Eh
 * total energy  :   -31.9634835 Eh     change       -0.4981388E-05 Eh
   *** GEOMETRY OPTIMIZATION CONVERGED AFTER 12 ITERATIONS ***

 final structure:
================
30
 xtb: 6.7.1 (edcfbbe)
C            0.93205039703973        0.04771361373120       -0.17465334951429
C            0.18423623273741        0.77314727209637        0.63974337112965
C           -1.26860828696552        0.48759256832799        0.89200887228767
N           -1.61286560560501       -0.30504095016316        2.12767647393096
C           -1.15949272392073        0.36582407055059        3.44803613114546
C           -1.43246254708566        1.86948409865837        3.39882345965012
C           -1.92716187417125       -0.22313213596578        4.63586686077678
C            0.33235684715933        0.12787248006624        3.69090801347761
C           -3.08343164941443       -0.46612149624966        2.10848737029248
C           -1.01911079828176       -1.64848658029747        1.98258716581349
H            0.55833519353855       -0.82643906553359       -0.68307159598790
H            1.95584015619643        0.30835261579978       -0.37691450478339
H            0.59246936094667        1.66627839052512        1.09042873699250
H           -1.82153163706657        1.42612407601132        0.93055370847747
H           -1.64554490031371       -0.09430017034364        0.04737217677828
H           -2.45568594934554        2.10261139523518        3.11645385379480
H           -1.28231217822879        2.27433531166344        4.39629083337654
H           -0.75089122842546        2.39254117532973        2.73567712760232
H           -1.90497053165435       -1.30925512396437        4.65738538903576
H           -1.44457835458360        0.11765458659815        5.54827129884763
H           -2.95830261213974        0.11528346822295        4.67452793412445
H            0.53185820661532       -0.88845893819597        4.01890982287012
H            0.94084958970780        0.34370498636625        2.81930733644709
H            0.65728028705489        0.79321662178825        4.48672175470827
H           -3.40324745754723       -0.81357682418442        1.12765415595170
H           -3.39863666681475       -1.19986095549742        2.84480371322487
H           -3.57938581333466        0.47960189845764        2.31149044706360
H           -1.48562533362705       -2.16127109884988        1.14320642431830
H            0.04783168714562       -1.57464931188019        1.79150454616168
H           -1.18400180961547       -2.24040597830261        2.87864247200632

          :  Hamiltonian                  GFN2-xTB          :
         :: total energy             -31.963483474434 Eh    ::
         :: gradient norm              0.000581351656 Eh/a0 ::
         :: HOMO-LUMO gap              5.247738488419 eV    ::
         :: SCC energy               -32.451996278815 Eh    ::
         :: -> dispersion             -0.024027819361 Eh    ::
         :: repulsion energy           0.488512804381 Eh    ::

    * Orbital Energies and Occupations

         #    Occupation            Energy/Eh            Energy/eV
      -------------------------------------------------------------
         1        2.0000           -0.8531705             -23.2159
       ...           ...                  ...                  ...
        18        2.0000           -0.6416383             -17.4599
        19        2.0000           -0.6404519             -17.4276
        20        2.0000           -0.6376886             -17.3524
        21        2.0000           -0.6349432             -17.2777
        22        2.0000           -0.6147377             -16.7279
        23        2.0000           -0.6115077             -16.6400
        24        2.0000           -0.6083336             -16.5536
        25        2.0000           -0.6026132             -16.3979
        26        2.0000           -0.6016835             -16.3726
        27        2.0000           -0.5904820             -16.0678
        28        2.0000           -0.5882876             -16.0081
        29        2.0000           -0.5785613             -15.7435
        30        2.0000           -0.5581224             -15.1873 (HOMO)
        31                         -0.3652715              -9.9395 (LUMO)
        32                         -0.2469365              -6.7195
        33                         -0.1679985              -4.5715
        34                         -0.1525760              -4.1518
        35                         -0.1426832              -3.8826
        36                         -0.0773577              -2.1050
        37                         -0.0589529              -1.6042
        38                         -0.0541328              -1.4730
        39                         -0.0525592              -1.4302
        40                         -0.0215002              -0.5851
        41                         -0.0180057              -0.4900
       ...                                ...                  ...
        60                          0.4585255              12.4771
      -------------------------------------------------------------
                  HL-Gap            0.1928508 Eh            5.2477 eV

     #   Z          covCN         q      C6AA      α(0)
     1   6 C        2.838    -0.080    29.991     8.975
     2   6 C        2.883    -0.041    29.005     8.829
     3   6 C        3.770    -0.037    21.272     6.573
     4   7 N        3.613     0.108    19.388     6.540
     5   6 C        3.831     0.066    19.461     6.277
     6   6 C        3.760    -0.132    23.082     6.849
     7   6 C        3.761    -0.135    23.145     6.858
     8   6 C        3.760    -0.138    23.209     6.868
     9   6 C        3.726    -0.091    22.348     6.750
    10   6 C        3.720    -0.090    22.343     6.751
    11   1 H        0.926     0.065     2.146     2.291
    12   1 H        0.926     0.079     1.991     2.207
    13   1 H        0.926     0.062     2.175     2.306
    14   1 H        0.925     0.091     1.866     2.136
    15   1 H        0.924     0.085     1.929     2.172
    16   1 H        0.925     0.055     2.263     2.353
    17   1 H        0.925     0.082     1.958     2.188
    18   1 H        0.925     0.067     2.123     2.278
    19   1 H        0.925     0.055     2.254     2.348
    20   1 H        0.925     0.083     1.943     2.180
    21   1 H        0.925     0.066     2.132     2.283
    22   1 H        0.925     0.064     2.147     2.292
    23   1 H        0.925     0.064     2.148     2.292
    24   1 H        0.925     0.082     1.961     2.190
    25   1 H        0.925     0.090     1.879     2.144
    26   1 H        0.925     0.102     1.769     2.080
    27   1 H        0.925     0.093     1.847     2.126
    28   1 H        0.925     0.091     1.873     2.140
    29   1 H        0.925     0.102     1.765     2.078
    30   1 H        0.925     0.093     1.851     2.127

Wiberg/Mayer (AO) data.
largest (>0.10) Wiberg bond orders for each atom

     #   Z sym  total        # sym  WBO       # sym  WBO       # sym  WBO
 ---------------------------------------------------------------------------
     1   6 C    3.982 --     2 C    1.971    12 H    0.972    11 H    0.972
     2   6 C    3.984 --     1 C    1.971     3 C    1.018    13 H    0.958
     3   6 C    3.935 --     2 C    1.018    15 H    0.962    14 H    0.961
                             4 N    0.918
     4   7 N    3.794 --    10 C    0.965     9 C    0.964     3 C    0.918
                             5 C    0.865
     5   6 C    3.928 --     6 C    1.004     8 C    1.003     7 C    1.001
                             4 N    0.865
     6   6 C    3.985 --     5 C    1.004    18 H    0.977    16 H    0.976
                            17 H    0.973
     7   6 C    3.984 --     5 C    1.001    21 H    0.981    19 H    0.976
                            20 H    0.973
     8   6 C    3.984 --     5 C    1.003    22 H    0.981    24 H    0.974
                            23 H    0.969
     9   6 C    3.932 --    25 H    0.973    26 H    0.972    27 H    0.972
                             4 N    0.964
    10   6 C    3.932 --    28 H    0.974    30 H    0.971    29 H    0.970
                             4 N    0.965
    11   1 H    0.996 --     1 C    0.972
    12   1 H    0.993 --     1 C    0.972
    13   1 H    0.996 --     2 C    0.958
    14   1 H    0.992 --     3 C    0.961
    15   1 H    0.992 --     3 C    0.962
    16   1 H    0.997 --     6 C    0.976
    17   1 H    0.993 --     6 C    0.973
    18   1 H    0.996 --     6 C    0.977
    19   1 H    0.997 --     7 C    0.976
    20   1 H    0.993 --     7 C    0.973
    21   1 H    0.996 --     7 C    0.981
    22   1 H    0.996 --     8 C    0.981
    23   1 H    0.996 --     8 C    0.969
    24   1 H    0.993 --     8 C    0.974
    25   1 H    0.992 --     9 C    0.973
    26   1 H    0.989 --     9 C    0.972
    27   1 H    0.991 --     9 C    0.972
    28   1 H    0.991 --    10 C    0.974
    29   1 H    0.990 --    10 C    0.970
    30   1 H    0.991 --    10 C    0.971
 ---------------------------------------------------------------------------

molecular dipole:
                 x           y           z       tot (Debye)
 q only:       -2.598      -0.356       4.247
   full:       -2.689      -0.377       4.195      12.700

           -------------------------------------------------
          | TOTAL ENERGY              -31.963483474434 Eh   |
          | GRADIENT NORM               0.000581351656 Eh/α |
          | HOMO-LUMO GAP               5.247738488419 eV   |
           -------------------------------------------------

 * finished run on 2024/12/20 at 07:05:18.813
