   * xtb version 6.7.1 (edcfbbe) compiled by 'conda@3ef47c1a292c' on 2024-11-25

   ID    Z sym.   atoms
    1    6 C      1, 2, 5-11, 15, 16, 19-25
    2    7 N      3, 12, 17, 26
    3    8 O      4, 13, 14, 18, 27, 28
    4    1 H      29-45

          program call               : xtb C0954.xyz --opt --namespace C0954 --charge +1
          :  Hamiltonian                  GFN2-xTB          :
 * total energy  :   -82.6029004 Eh     change       -0.3579004E-09 Eh
 * total energy  :   -82.6157332 Eh     change       -0.1283280E-01 Eh
 * total energy  :   -82.6183949 Eh     change       -0.2661609E-02 Eh
 * total energy  :   -82.6185359 Eh     change       -0.1410279E-03 Eh
 * total energy  :   -82.6190905 Eh     change       -0.5546086E-03 Eh
 * total energy  :   -82.6191983 Eh     change       -0.1078322E-03 Eh
 * total energy  :   -82.6192872 Eh     change       -0.8887073E-04 Eh
 * total energy  :   -82.6193451 Eh     change       -0.5788602E-04 Eh
 * total energy  :   -82.6194175 Eh     change       -0.7240959E-04 Eh
 * total energy  :   -82.6195000 Eh     change       -0.8251518E-04 Eh
 * total energy  :   -82.6210859 Eh     change       -0.9125632E-05 Eh
 * total energy  :   -82.6210914 Eh     change       -0.5423202E-05 Eh
 * total energy  :   -82.6210993 Eh     change       -0.7920507E-05 Eh
 * total energy  :   -82.6211097 Eh     change       -0.1040128E-04 Eh
 * total energy  :   -82.6211175 Eh     change       -0.7811977E-05 Eh
 * total energy  :   -82.6211256 Eh     change       -0.8132989E-05 Eh
 * total energy  :   -82.6211340 Eh     change       -0.8353835E-05 Eh
 * total energy  :   -82.6211332 Eh     change        0.8083853E-06 Eh
 * total energy  :   -82.6211354 Eh     change       -0.2183977E-05 Eh
   *** GEOMETRY OPTIMIZATION CONVERGED AFTER 42 ITERATIONS ***

 final structure:
================
45
 xtb: 6.7.1 (edcfbbe)
C            1.00099335127115        0.11367654342511       -0.02731975135870
C            0.53379752280195        0.11732904873477       -1.42221857751911
N            0.48954226941540        1.17282244075204       -2.24686711306507
O            0.90059273483601        2.40065239185411       -1.82073409124466
C            0.65771027354611        3.48788671179728       -2.70906026226513
C            1.49891322407481        3.45217859496557       -3.96182140629388
C            2.80112895801163        2.96430541405114       -3.90787806823928
C            3.57760035788231        2.92831565905641       -5.04981934553453
C            3.04432488736875        3.39388388383654       -6.24328230638475
C            1.75444401480441        3.90141008679656       -6.30913484444997
C            0.98013007063081        3.92213603191138       -5.16434450716699
N            3.85342809419197        3.34299757738192       -7.45107337401058
O            4.94285283098418        2.82936313121101       -7.35861523976610
O            3.37065299708718        3.80547540939059       -8.45592881270708
C            0.00429293042475        0.79354210844357       -3.45667803256382
C           -0.25895475737291       -0.54429350645121       -3.37406148479281
N            0.07619116882470       -0.93304158009791       -2.11724381915499
O           -0.00483881473868       -2.16407022625072       -1.53666250995405
C           -0.41657905133455       -3.23316499819265       -2.38329895763004
C           -1.85016567227869       -3.13252790675469       -2.84437902458379
C           -2.81674147545882       -2.60233461480942       -1.99506280780217
C           -4.13048085748724       -2.50624686669138       -2.41119466818680
C           -4.47082006371584       -2.95347902414588       -3.67996233986373
C           -3.52225857917052       -3.50244551118745       -4.53120466521485
C           -2.20801524610859       -3.58387584052108       -4.11107883825594
N           -5.84998733554604       -2.83829623344635       -4.12807766636192
O           -6.62664927589375       -2.30004321381953       -3.37551801891191
O           -6.11083145591770       -3.27637911220404       -5.22215509540471
H            0.50410283510029       -0.67708122568475        0.52946655215730
H            0.80389008404924        1.07934570736864        0.43290067070097
H            2.07599776880839       -0.06640838000524        0.01957715566655
H           -0.41052973152836        3.56008823725328       -2.94481700082835
H            0.93529024387281        4.35059992191407       -2.09496287168936
H            3.20706391008278        2.62253418135931       -2.96770448076264
H            4.58990597799252        2.55480501807952       -5.03277180838191
H            1.37690479438818        4.26704332806294       -7.25167656311844
H           -0.02450935874895        4.31552629715313       -5.20343118677237
H           -0.11457160739767        1.45592399356290       -4.28866761107703
H           -0.66340401877978       -1.19994159805558       -4.11665447953964
H            0.27087714480496       -3.33743598356491       -3.23092439108037
H           -0.29134561836733       -4.10188932284695       -1.72905849767969
H           -2.53955228195234       -2.27459419752703       -1.00449802990511
H           -4.89738831050941       -2.09913664187178       -1.77039510477175
H           -3.82507877082088       -3.85211709095274       -5.50626817561737
H           -1.46163616214295       -4.01017864328920       -4.76441854862171

          :  Hamiltonian                  GFN2-xTB          :
         :: total energy             -82.621135359287 Eh    ::
         :: gradient norm              0.000338719382 Eh/a0 ::
         :: HOMO-LUMO gap              3.041340832664 eV    ::
         :: SCC energy               -83.635807783168 Eh    ::
         :: -> dispersion             -0.047063768204 Eh    ::
         :: repulsion energy           1.014672423881 Eh    ::

    * Orbital Energies and Occupations

         #    Occupation            Energy/Eh            Energy/eV
      -------------------------------------------------------------
         1        2.0000           -0.9284330             -25.2639
       ...           ...                  ...                  ...
        60        2.0000           -0.5760698             -15.6757
        61        2.0000           -0.5635627             -15.3353
        62        2.0000           -0.5629639             -15.3190
        63        2.0000           -0.5588390             -15.2068
        64        2.0000           -0.5583522             -15.1935
        65        2.0000           -0.5521306             -15.0242
        66        2.0000           -0.5515767             -15.0092
        67        2.0000           -0.5510446             -14.9947
        68        2.0000           -0.5504852             -14.9795
        69        2.0000           -0.5392348             -14.6733
        70        2.0000           -0.5387387             -14.6598
        71        2.0000           -0.5277931             -14.3620
        72        2.0000           -0.5272954             -14.3484 (HOMO)
        73                         -0.4155281             -11.3071 (LUMO)
        74                         -0.4149616             -11.2917
        75                         -0.4079133             -11.0999
        76                         -0.3858645             -10.4999
        77                         -0.3689651             -10.0401
        78                         -0.3683955             -10.0246
        79                         -0.3473535              -9.4520
        80                         -0.3467843              -9.4365
        81                         -0.2894872              -7.8773
        82                         -0.2386368              -6.4936
        83                         -0.2350058              -6.3948
       ...                                ...                  ...
       129                          0.5093726              13.8607
      -------------------------------------------------------------
                  HL-Gap            0.1117672 Eh            3.0413 eV

     #   Z          covCN         q      C6AA      α(0)
     1   6 C        3.754    -0.135    23.157     6.862
     2   6 C        3.066     0.080    26.148     8.385
     3   7 N        2.910     0.181    18.219     6.339
     4   8 O        1.768    -0.193    17.214     5.603
     5   6 C        3.689     0.052    19.892     6.383
     6   6 C        2.969     0.000    28.020     8.683
     7   6 C        2.924    -0.032    28.798     8.800
     8   6 C        2.918    -0.019    28.486     8.752
     9   6 C        2.917     0.008    27.834     8.651
    10   6 C        2.918    -0.017    28.438     8.745
    11   6 C        2.923    -0.036    28.901     8.816
    12   7 N        2.758     0.553    13.453     5.448
    13   8 O        0.930    -0.365    20.957     6.139
    14   8 O        0.930    -0.361    20.875     6.127
    15   6 C        3.036    -0.035    28.840     8.808
    16   6 C        3.037    -0.035    28.839     8.808
    17   7 N        2.909     0.182    18.214     6.339
    18   8 O        1.768    -0.193    17.217     5.603
    19   6 C        3.689     0.052    19.892     6.383
    20   6 C        2.969     0.000    28.020     8.683
    21   6 C        2.924    -0.032    28.800     8.801
    22   6 C        2.917    -0.019    28.489     8.753
    23   6 C        2.917     0.008    27.834     8.651
    24   6 C        2.917    -0.017    28.436     8.745
    25   6 C        2.923    -0.036    28.898     8.816
    26   7 N        2.758     0.552    13.454     5.448
    27   8 O        0.930    -0.365    20.956     6.139
    28   8 O        0.930    -0.360    20.874     6.127
    29   1 H        0.925     0.113     1.675     2.024
    30   1 H        0.925     0.113     1.670     2.021
    31   1 H        0.924     0.117     1.639     2.002
    32   1 H        0.924     0.069     2.101     2.267
    33   1 H        0.924     0.118     1.630     1.997
    34   1 H        0.926     0.061     2.182     2.310
    35   1 H        0.926     0.096     1.821     2.110
    36   1 H        0.926     0.099     1.790     2.092
    37   1 H        0.926     0.061     2.191     2.315
    38   1 H        0.927     0.116     1.643     2.004
    39   1 H        0.927     0.116     1.643     2.005
    40   1 H        0.924     0.069     2.095     2.263
    41   1 H        0.924     0.118     1.627     1.995
    42   1 H        0.926     0.060     2.195     2.317
    43   1 H        0.926     0.096     1.821     2.110
    44   1 H        0.926     0.100     1.788     2.091
    45   1 H        0.926     0.061     2.189     2.314

Wiberg/Mayer (AO) data.
largest (>0.10) Wiberg bond orders for each atom

     #   Z sym  total        # sym  WBO       # sym  WBO       # sym  WBO
 ---------------------------------------------------------------------------
     1   6 C    3.967 --     2 C    1.051    29 H    0.961    30 H    0.959
                            31 H    0.935
     2   6 C    3.929 --    17 N    1.286     3 N    1.286     1 C    1.051
     3   7 N    3.708 --     2 C    1.286    15 C    1.214     4 O    1.004
     4   8 O    2.144 --     3 N    1.004     5 C    0.940
     5   6 C    3.901 --     6 C    0.998    32 H    0.962     4 O    0.940
                            33 H    0.935
     6   6 C    3.986 --     7 C    1.408    11 C    1.407     5 C    0.998
     7   6 C    3.990 --     8 C    1.450     6 C    1.408    34 H    0.966
                            10 C    0.108
     8   6 C    3.983 --     7 C    1.450     9 C    1.394    35 H    0.957
                            11 C    0.108
     9   6 C    3.970 --    10 C    1.394     8 C    1.394    12 N    0.942
    10   6 C    3.982 --    11 C    1.449     9 C    1.394    36 H    0.957
                             7 C    0.108
    11   6 C    3.989 --    10 C    1.449     6 C    1.407    37 H    0.966
                             8 C    0.108
    12   7 N    3.915 --    14 O    1.470    13 O    1.465     9 C    0.942
    13   8 O    1.957 --    12 N    1.465    14 O    0.380
    14   8 O    1.961 --    12 N    1.470    13 O    0.380
    15   6 C    3.935 --    16 C    1.549     3 N    1.214    38 H    0.954
    16   6 C    3.935 --    15 C    1.549    17 N    1.214    39 H    0.954
    17   7 N    3.708 --     2 C    1.286    16 C    1.214    18 O    1.004
    18   8 O    2.144 --    17 N    1.004    19 C    0.940
    19   6 C    3.901 --    20 C    0.998    40 H    0.962    18 O    0.940
                            41 H    0.935
    20   6 C    3.986 --    21 C    1.408    25 C    1.406    19 C    0.998
    21   6 C    3.990 --    22 C    1.450    20 C    1.408    42 H    0.966
                            24 C    0.108
    22   6 C    3.983 --    21 C    1.450    23 C    1.394    43 H    0.957
                            25 C    0.108
    23   6 C    3.970 --    24 C    1.394    22 C    1.394    26 N    0.942
    24   6 C    3.982 --    25 C    1.450    23 C    1.394    44 H    0.957
                            21 C    0.108
    25   6 C    3.989 --    24 C    1.450    20 C    1.406    45 H    0.966
                            22 C    0.108
    26   7 N    3.915 --    28 O    1.470    27 O    1.465    23 C    0.942
    27   8 O    1.957 --    26 N    1.465    28 O    0.380
    28   8 O    1.961 --    26 N    1.470    27 O    0.380
    29   1 H    0.987 --     1 C    0.961
    30   1 H    0.987 --     1 C    0.959
    31   1 H    0.986 --     1 C    0.935
    32   1 H    0.995 --     5 C    0.962
    33   1 H    0.984 --     5 C    0.935
    34   1 H    0.996 --     7 C    0.966
    35   1 H    0.990 --     8 C    0.957
    36   1 H    0.990 --    10 C    0.957
    37   1 H    0.996 --    11 C    0.966
    38   1 H    0.986 --    15 C    0.954
    39   1 H    0.986 --    16 C    0.954
    40   1 H    0.995 --    19 C    0.962
    41   1 H    0.984 --    19 C    0.935
    42   1 H    0.996 --    21 C    0.966
    43   1 H    0.990 --    22 C    0.957
    44   1 H    0.990 --    24 C    0.957
    45   1 H    0.996 --    25 C    0.966
 ---------------------------------------------------------------------------

molecular dipole:
                 x           y           z       tot (Debye)
 q only:        0.902       0.172      -2.971
   full:        0.876       0.166      -3.060       8.102

           -------------------------------------------------
          | TOTAL ENERGY              -82.621135359287 Eh   |
          | GRADIENT NORM               0.000338719382 Eh/α |
          | HOMO-LUMO GAP               3.041340832664 eV   |
           -------------------------------------------------

 * finished run on 2024/12/20 at 07:05:18.170
