   * xtb version 6.7.1 (edcfbbe) compiled by 'conda@3ef47c1a292c' on 2024-11-25

   ID    Z sym.   atoms
    1    6 C      1-7, 9, 11-16
    2    7 N      8
    3   16 S      10
    4    1 H      17-36

          program call               : xtb C0958.xyz --opt --namespace C0958 --charge +1
          :  Hamiltonian                  GFN2-xTB          :
 * total energy  :   -45.9562409 Eh     change       -0.1861757E-08 Eh
 * total energy  :   -45.9604444 Eh     change       -0.4203464E-02 Eh
 * total energy  :   -45.9611061 Eh     change       -0.6617890E-03 Eh
 * total energy  :   -45.9612646 Eh     change       -0.1584852E-03 Eh
 * total energy  :   -45.9614033 Eh     change       -0.1386776E-03 Eh
 * total energy  :   -45.9614851 Eh     change       -0.8181376E-04 Eh
 * total energy  :   -45.9615861 Eh     change       -0.1009444E-03 Eh
 * total energy  :   -45.9617488 Eh     change       -0.1627461E-03 Eh
 * total energy  :   -45.9619886 Eh     change       -0.2398269E-03 Eh
 * total energy  :   -45.9622702 Eh     change       -0.2815601E-03 Eh
 * total energy  :   -45.9638682 Eh     change       -0.9442005E-05 Eh
 * total energy  :   -45.9638775 Eh     change       -0.9253995E-05 Eh
 * total energy  :   -45.9638863 Eh     change       -0.8749834E-05 Eh
 * total energy  :   -45.9638942 Eh     change       -0.7946716E-05 Eh
 * total energy  :   -45.9639013 Eh     change       -0.7056720E-05 Eh
 * total energy  :   -45.9639075 Eh     change       -0.6251283E-05 Eh
 * total energy  :   -45.9639131 Eh     change       -0.5637400E-05 Eh
 * total energy  :   -45.9639185 Eh     change       -0.5311105E-05 Eh
 * total energy  :   -45.9639201 Eh     change       -0.1668875E-05 Eh
   *** GEOMETRY OPTIMIZATION CONVERGED AFTER 44 ITERATIONS ***

 final structure:
================
36
 xtb: 6.7.1 (edcfbbe)
C            0.38326838715933       -0.04253607983823        0.39363860677993
C            0.20582461685237        1.28019659541282       -0.36141606494920
C            1.05141322960437        1.41876288358433       -1.62887103417793
C            0.59574224817816        0.60434271877835       -2.84331736867862
C           -0.85923785709606        0.81652450507500       -3.26919949553872
C           -1.23804576242199        2.26990662120192       -3.56233321755502
C           -0.44677152039177        2.87464075358749       -4.71540635780426
N           -0.17063237263862       -1.18280858704599       -0.31179260681079
C           -1.46476608785069       -1.31381598913051       -0.52129467405867
S           -1.92636319800771       -2.69157480924883       -1.38030209083003
C           -0.25158916900196       -3.17011174390546       -1.48236255808651
C            0.56759625802775       -2.22327237980554       -0.84183134813411
C            1.94854032227282       -2.41756357701651       -0.80750573863873
C            2.46851375896205       -3.54412506041039       -1.40777749100836
C            1.64611825038206       -4.47791739391826       -2.04069992074554
C            0.27856385700054       -4.30172802362700       -2.08656012936040
H           -0.11754569099862        0.03025146990234        1.36316623527827
H            1.44248864859957       -0.22743986847882        0.56760191364594
H           -0.84685813304630        1.43678266735474       -0.59532535963281
H            0.50366020571300        2.06812404140746        0.33215961800894
H            1.05031794227787        2.47305082185993       -1.90570653842279
H            2.08594758010543        1.15257368044289       -1.40056560750776
H            1.24126285076194        0.87965647086954       -3.67790524492035
H            0.75917100948324       -0.46234560048635       -2.66993537570936
H           -1.03150734780879        0.22514242177884       -4.17158440379798
H           -1.53570718223142        0.42669111909251       -2.50046266657351
H           -2.30025064821529        2.29459234048240       -3.81504851986884
H           -1.10374888439723        2.88144263128535       -2.66837246809468
H           -0.54397729236846        2.26154610776855       -5.60812342342997
H           -0.82360419488829        3.86816059682475       -4.94248452091377
H            0.60828124511414        2.96430839443767       -4.47044613410215
H           -2.18060074574023       -0.60221281522827       -0.14939102279706
H            2.60362955604206       -1.70789363973542       -0.32939003673681
H            3.53419170397065       -3.70719187431986       -1.38781772686184
H            2.08628779510312       -5.34852315717975       -2.49958993202076
H           -0.36500337850707       -5.01623624177676       -2.57289729596172

          :  Hamiltonian                  GFN2-xTB          :
         :: total energy             -45.963920125354 Eh    ::
         :: gradient norm              0.000143412820 Eh/a0 ::
         :: HOMO-LUMO gap              1.804068327894 eV    ::
         :: SCC energy               -46.679718534720 Eh    ::
         :: -> dispersion             -0.036394636251 Eh    ::
         :: repulsion energy           0.715798409365 Eh    ::

    * Orbital Energies and Occupations

         #    Occupation            Energy/Eh            Energy/eV
      -------------------------------------------------------------
         1        2.0000           -0.9160878             -24.9280
       ...           ...                  ...                  ...
        31        2.0000           -0.5945193             -16.1777
        32        2.0000           -0.5916075             -16.0985
        33        2.0000           -0.5845262             -15.9058
        34        2.0000           -0.5782391             -15.7347
        35        2.0000           -0.5753754             -15.6568
        36        2.0000           -0.5700730             -15.5125
        37        2.0000           -0.5586148             -15.2007
        38        2.0000           -0.5566954             -15.1485
        39        2.0000           -0.5481282             -14.9153
        40        2.0000           -0.5472860             -14.8924
        41        2.0000           -0.5294976             -14.4084
        42        2.0000           -0.5217225             -14.1968
        43        2.0000           -0.5167165             -14.0606 (HOMO)
        44                         -0.4504182             -12.2565 (LUMO)
        45                         -0.3920532             -10.6683
        46                         -0.3762692             -10.2388
        47                         -0.3756068             -10.2208
        48                         -0.2887731              -7.8579
        49                         -0.2640063              -7.1840
        50                         -0.1923297              -5.2336
        51                         -0.1501975              -4.0871
        52                         -0.1331020              -3.6219
        53                         -0.1307882              -3.5589
        54                         -0.0699488              -1.9034
       ...                                ...                  ...
        89                          0.5188128              14.1176
      -------------------------------------------------------------
                  HL-Gap            0.0662983 Eh            1.8041 eV

     #   Z          covCN         q      C6AA      α(0)
     1   6 C        3.747    -0.025    21.092     6.551
     2   6 C        3.800    -0.070    21.847     6.655
     3   6 C        3.800    -0.068    21.803     6.648
     4   6 C        3.799    -0.062    21.701     6.633
     5   6 C        3.800    -0.056    21.587     6.615
     6   6 C        3.799    -0.056    21.574     6.613
     7   6 C        3.752    -0.108    22.620     6.783
     8   7 N        2.873     0.067    20.076     6.655
     9   6 C        2.928     0.028    27.382     8.582
    10  16 S        2.231     0.197   133.252    19.429
    11   6 C        3.006     0.014    27.692     8.632
    12   6 C        3.137     0.049    26.679     8.454
    13   6 C        2.913    -0.029    28.730     8.789
    14   6 C        2.921    -0.013    28.350     8.731
    15   6 C        2.923    -0.012    28.304     8.725
    16   6 C        2.929    -0.023    28.575     8.767
    17   1 H        0.924     0.083     1.950     2.184
    18   1 H        0.925     0.091     1.867     2.136
    19   1 H        0.925     0.059     2.211     2.325
    20   1 H        0.924     0.071     2.072     2.251
    21   1 H        0.925     0.065     2.144     2.290
    22   1 H        0.924     0.041     2.436     2.441
    23   1 H        0.924     0.055     2.256     2.349
    24   1 H        0.924     0.010     2.896     2.661
    25   1 H        0.924     0.038     2.477     2.461
    26   1 H        0.924     0.006     2.954     2.688
    27   1 H        0.924     0.038     2.481     2.463
    28   1 H        0.924     0.034     2.537     2.491
    29   1 H        0.925     0.041     2.435     2.440
    30   1 H        0.925     0.046     2.372     2.408
    31   1 H        0.925     0.038     2.482     2.463
    32   1 H        0.926     0.117     1.635     1.999
    33   1 H        0.926     0.076     2.016     2.221
    34   1 H        0.926     0.087     1.910     2.161
    35   1 H        0.926     0.089     1.889     2.149
    36   1 H        0.926     0.084     1.939     2.178

Wiberg/Mayer (AO) data.
largest (>0.10) Wiberg bond orders for each atom

     #   Z sym  total        # sym  WBO       # sym  WBO       # sym  WBO
 ---------------------------------------------------------------------------
     1   6 C    3.934 --     2 C    0.983    18 H    0.960    17 H    0.958
                             8 N    0.957
     2   6 C    3.982 --     3 C    1.007     1 C    0.983    19 H    0.968
                            20 H    0.967
     3   6 C    3.992 --     2 C    1.007     4 C    1.007    22 H    0.975
                            21 H    0.969
     4   6 C    3.996 --     5 C    1.007     3 C    1.007    24 H    0.974
                            23 H    0.971
     5   6 C    3.996 --     4 C    1.007     6 C    1.006    25 H    0.976
                            26 H    0.968
     6   6 C    3.996 --     7 C    1.020     5 C    1.006    27 H    0.977
                            28 H    0.976
     7   6 C    3.994 --     6 C    1.020    29 H    0.987    30 H    0.986
                            31 H    0.986
     8   7 N    3.720 --     9 C    1.437    12 C    1.118     1 C    0.957
                            10 S    0.127
     9   6 C    3.956 --     8 N    1.437    10 S    1.350    32 H    0.953
    10  16 S    2.755 --     9 C    1.350    11 C    1.102     8 N    0.127
    11   6 C    3.953 --    16 C    1.373    12 C    1.294    10 S    1.102
    12   6 C    3.956 --    13 C    1.329    11 C    1.294     8 N    1.118
    13   6 C    3.986 --    14 C    1.495    12 C    1.329    33 H    0.956
                            16 C    0.113
    14   6 C    3.984 --    13 C    1.495    15 C    1.379    34 H    0.964
    15   6 C    3.983 --    16 C    1.478    14 C    1.379    35 H    0.963
    16   6 C    3.985 --    15 C    1.478    11 C    1.373    36 H    0.963
                            13 C    0.113
    17   1 H    0.993 --     1 C    0.958
    18   1 H    0.992 --     1 C    0.960
    19   1 H    0.996 --     2 C    0.968
    20   1 H    0.994 --     2 C    0.967
    21   1 H    0.995 --     3 C    0.969
    22   1 H    0.998 --     3 C    0.975
    23   1 H    0.996 --     4 C    0.971
    24   1 H    1.000 --     4 C    0.974
    25   1 H    0.999 --     5 C    0.976
    26   1 H    1.000 --     5 C    0.968
    27   1 H    0.999 --     6 C    0.977
    28   1 H    0.999 --     6 C    0.976
    29   1 H    0.998 --     7 C    0.987
    30   1 H    0.998 --     7 C    0.986
    31   1 H    0.999 --     7 C    0.986
    32   1 H    0.985 --     9 C    0.953
    33   1 H    0.994 --    13 C    0.956
    34   1 H    0.991 --    14 C    0.964
    35   1 H    0.992 --    15 C    0.963
    36   1 H    0.992 --    16 C    0.963
 ---------------------------------------------------------------------------

molecular dipole:
                 x           y           z       tot (Debye)
 q only:        0.078      -3.051      -1.797
   full:        0.007      -3.039      -1.657       8.797

           -------------------------------------------------
          | TOTAL ENERGY              -45.963920125354 Eh   |
          | GRADIENT NORM               0.000143412820 Eh/α |
          | HOMO-LUMO GAP               1.804068327894 eV   |
           -------------------------------------------------

 * finished run on 2024/12/20 at 07:06:07.198
