   * xtb version 6.7.1 (edcfbbe) compiled by 'conda@3ef47c1a292c' on 2024-11-25

   ID    Z sym.   atoms
    1   17 Cl     1
    2    6 C      2, 3, 5, 6, 8, 9
    3    7 N      4
    4    8 O      7
    5    1 H      10-22

          program call               : xtb C0952.xyz --opt --namespace C0952 --charge +1
          :  Hamiltonian                  GFN2-xTB          :
 * total energy  :   -30.5891727 Eh     change       -0.7446133E-10 Eh
 * total energy  :   -30.5932049 Eh     change       -0.4032176E-02 Eh
 * total energy  :   -30.5941619 Eh     change       -0.9569702E-03 Eh
 * total energy  :   -30.5942163 Eh     change       -0.5444172E-04 Eh
 * total energy  :   -30.5942313 Eh     change       -0.1501794E-04 Eh
 * total energy  :   -30.5942371 Eh     change       -0.5764276E-05 Eh
 * total energy  :   -30.5942444 Eh     change       -0.7267448E-05 Eh
 * total energy  :   -30.5942509 Eh     change       -0.6538654E-05 Eh
 * total energy  :   -30.5942566 Eh     change       -0.5642228E-05 Eh
 * total energy  :   -30.5942615 Eh     change       -0.4980254E-05 Eh
   *** GEOMETRY OPTIMIZATION CONVERGED AFTER 10 ITERATIONS ***

 final structure:
================
22
 xtb: 6.7.1 (edcfbbe)
Cl           1.15918007639484       -0.41207210553200        0.43935876555562
C            2.87310619665644       -0.07422450335597        0.00192875127287
C            3.10432998590062       -0.12203287681725       -1.50099678408678
N            2.62159964327613        1.06130972946732       -2.26926373050650
C            1.15353295497552        1.29104743142348       -2.20897225299293
C            0.79170200792434        2.41297191593652       -3.18899021990848
O            1.48567264667984        3.59189172893974       -2.87629274264054
C            2.87340059258090        3.40946419820867       -2.93136539509433
C            3.31735076103582        2.33062935615283       -1.93391277393996
H            3.14824474418340        0.88043513975572        0.44522882550781
H            3.46825745633134       -0.86101476042429        0.46551262833638
H            4.17962614518865       -0.20966284589206       -1.68099449787767
H            2.60915648642912       -1.00879993073688       -1.90363940526932
H            2.83966959341520        0.86603918218781       -3.25591065866746
H            0.88953401292545        1.58448282458298       -1.19304151461133
H            0.62691836939169        0.37115225835961       -2.46180786138682
H           -0.26967510670317        2.65096251300435       -3.10931368030674
H            1.00825601279240        2.09847957526294       -4.22242892373721
H            3.19110887684045        3.13317533548836       -3.94965190742893
H            3.32231869265198        4.36930125471355       -2.67231680849367
H            4.39723479667247        2.18621484917847       -1.97867851929021
H            3.02712505445654        2.63533973009612       -0.92822129443381

          :  Hamiltonian                  GFN2-xTB          :
         :: total energy             -30.594261545946 Eh    ::
         :: gradient norm              0.000329534805 Eh/a0 ::
         :: HOMO-LUMO gap              6.755915114315 eV    ::
         :: SCC energy               -30.892937793178 Eh    ::
         :: -> dispersion             -0.015781608391 Eh    ::
         :: repulsion energy           0.298676247232 Eh    ::

    * Orbital Energies and Occupations

         #    Occupation            Energy/Eh            Energy/eV
      -------------------------------------------------------------
         1        2.0000           -1.1891942             -32.3596
       ...           ...                  ...                  ...
        15        2.0000           -0.6966563             -18.9570
        16        2.0000           -0.6932576             -18.8645
        17        2.0000           -0.6784876             -18.4626
        18        2.0000           -0.6684328             -18.1890
        19        2.0000           -0.6647066             -18.0876
        20        2.0000           -0.6523040             -17.7501
        21        2.0000           -0.6403624             -17.4251
        22        2.0000           -0.6344452             -17.2641
        23        2.0000           -0.6224105             -16.9367
        24        2.0000           -0.6067730             -16.5111
        25        2.0000           -0.5695033             -15.4970
        26        2.0000           -0.5572679             -15.1640
        27        2.0000           -0.5534050             -15.0589 (HOMO)
        28                         -0.3051297              -8.3030 (LUMO)
        29                         -0.2599805              -7.0744
        30                         -0.1721177              -4.6836
        31                         -0.1715849              -4.6691
        32                         -0.1478981              -4.0245
        33                         -0.1299253              -3.5354
        34                         -0.1207913              -3.2869
        35                         -0.1172031              -3.1893
        36                         -0.1152685              -3.1366
        37                         -0.1130015              -3.0749
        38                         -0.0947991              -2.5796
       ...                                ...                  ...
        54                          0.1380810               3.7574
      -------------------------------------------------------------
                  HL-Gap            0.2482753 Eh            6.7559 eV

     #   Z          covCN         q      C6AA      α(0)
     1  17 Cl       0.905    -0.164   104.282    15.623
     2   6 C        3.711    -0.002    20.754     6.510
     3   6 C        3.755    -0.045    21.437     6.602
     4   7 N        3.579     0.046    20.427     6.713
     5   6 C        3.745    -0.053    21.591     6.628
     6   6 C        3.718     0.058    19.723     6.344
     7   8 O        1.702    -0.274    18.552     5.815
     8   6 C        3.718     0.059    19.698     6.340
     9   6 C        3.746    -0.048    21.509     6.615
    10   1 H        0.925     0.101     1.780     2.086
    11   1 H        0.925     0.116     1.649     2.008
    12   1 H        0.924     0.106     1.729     2.057
    13   1 H        0.924     0.118     1.630     1.997
    14   1 H        0.859     0.232     0.955     1.531
    15   1 H        0.925     0.126     1.566     1.957
    16   1 H        0.925     0.102     1.767     2.079
    17   1 H        0.924     0.109     1.709     2.044
    18   1 H        0.923     0.050     2.315     2.379
    19   1 H        0.923     0.051     2.310     2.377
    20   1 H        0.924     0.107     1.721     2.052
    21   1 H        0.924     0.093     1.846     2.124
    22   1 H        0.925     0.112     1.676     2.025

Wiberg/Mayer (AO) data.
largest (>0.10) Wiberg bond orders for each atom

     #   Z sym  total        # sym  WBO       # sym  WBO       # sym  WBO
 ---------------------------------------------------------------------------
     1  17 Cl   1.020 --     2 C    0.968
     2   6 C    3.943 --     3 C    1.023     1 Cl   0.968    10 H    0.967
                            11 H    0.964
     3   6 C    3.932 --     2 C    1.023    13 H    0.960    12 H    0.959
                             4 N    0.937
     4   7 N    3.771 --     9 C    0.938     3 C    0.937     5 C    0.933
                            14 H    0.907
     5   6 C    3.914 --     6 C    0.994    16 H    0.966    15 H    0.957
                             4 N    0.933
     6   6 C    3.950 --     7 O    0.999     5 C    0.994    18 H    0.961
                            17 H    0.957
     7   8 O    2.113 --     8 C    1.003     6 C    0.999
     8   6 C    3.952 --     7 O    1.003     9 C    0.991    19 H    0.960
                            20 H    0.958
     9   6 C    3.924 --     8 C    0.991    21 H    0.968    22 H    0.961
                             4 N    0.938
    10   1 H    0.990 --     2 C    0.967
    11   1 H    0.986 --     2 C    0.964
    12   1 H    0.988 --     3 C    0.959
    13   1 H    0.986 --     3 C    0.960
    14   1 H    0.946 --     4 N    0.907
    15   1 H    0.984 --     5 C    0.957
    16   1 H    0.990 --     5 C    0.966
    17   1 H    0.988 --     6 C    0.957
    18   1 H    0.997 --     6 C    0.961
    19   1 H    0.997 --     8 C    0.960
    20   1 H    0.988 --     8 C    0.958
    21   1 H    0.991 --     9 C    0.968
    22   1 H    0.987 --     9 C    0.961
 ---------------------------------------------------------------------------

molecular dipole:
                 x           y           z       tot (Debye)
 q only:        5.609       2.091      -4.268
   full:        5.528       1.633      -4.130      18.025

           -------------------------------------------------
          | TOTAL ENERGY              -30.594261545946 Eh   |
          | GRADIENT NORM               0.000329534805 Eh/α |
          | HOMO-LUMO GAP               6.755915114315 eV   |
           -------------------------------------------------

 * finished run on 2024/12/20 at 07:05:15.668
