   * xtb version 6.7.1 (edcfbbe) compiled by 'conda@3ef47c1a292c' on 2024-11-25

   ID    Z sym.   atoms
    1    6 C      1, 2, 4, 6-9
    2    8 O      3, 5
    3    7 N      10
    4    1 H      11-24

          program call               : xtb C0951.xyz --opt --namespace C0951 --charge +1
          :  Hamiltonian                  GFN2-xTB          :
 * total energy  :   -32.7752826 Eh     change       -0.5532854E-09 Eh
 * total energy  :   -32.7803081 Eh     change       -0.5025423E-02 Eh
 * total energy  :   -32.7810574 Eh     change       -0.7493279E-03 Eh
 * total energy  :   -32.7812221 Eh     change       -0.1646897E-03 Eh
 * total energy  :   -32.7812629 Eh     change       -0.4078657E-04 Eh
 * total energy  :   -32.7812855 Eh     change       -0.2262728E-04 Eh
 * total energy  :   -32.7813048 Eh     change       -0.1930556E-04 Eh
 * total energy  :   -32.7813223 Eh     change       -0.1752513E-04 Eh
 * total energy  :   -32.7813412 Eh     change       -0.1887541E-04 Eh
 * total energy  :   -32.7813351 Eh     change        0.6095400E-05 Eh
 * total energy  :   -32.7813495 Eh     change       -0.1441473E-04 Eh
 * total energy  :   -32.7813608 Eh     change       -0.1128277E-04 Eh
 * total energy  :   -32.7813690 Eh     change       -0.8218230E-05 Eh
 * total energy  :   -32.7813786 Eh     change       -0.9558715E-05 Eh
 * total energy  :   -32.7813887 Eh     change       -0.1016568E-04 Eh
 * total energy  :   -32.7813939 Eh     change       -0.5180484E-05 Eh
 * total energy  :   -32.7813966 Eh     change       -0.2672508E-05 Eh
   *** GEOMETRY OPTIMIZATION CONVERGED AFTER 17 ITERATIONS ***

 final structure:
================
24
 xtb: 6.7.1 (edcfbbe)
C            1.17984471112130       -0.10730074666547        0.20354061103511
C            0.60288876506051        1.02765153963774       -0.62076887274176
O            1.09477852452630        0.98366639946367       -1.98484534793931
C            2.25521638721892        1.58403413957284       -2.23789326805011
O            2.92512271854355        2.19426560869954       -1.46577063674927
C            2.65079409232795        1.42357046268752       -3.72422204470694
C            2.76261393258488        2.79707382118985       -4.39986727503395
C            1.38853803355900        2.98582116411805       -5.03705142882173
C            1.09072711093552        1.59282582091261       -5.57064893133996
N            1.58477160699824        0.69315374921606       -4.48516847583335
H            0.94067997884190       -1.07066653175410       -0.24064992548638
H            0.75298690283076       -0.06920526203278        1.20075445291551
H            2.25941659533069       -0.00765954355788        0.28696913818297
H           -0.48048258861315        0.94527520701585       -0.71818257796700
H            0.87251431793404        1.99556598929835       -0.19174080908152
H            3.59893894633706        0.88238315592560       -3.75190724874196
H            3.00752495488895        3.57021616292410       -3.67475334350683
H            3.54005701893421        2.78757514712018       -5.16276629015825
H            0.65040433017049        3.28321188700339       -4.29230071928660
H            1.39904060404188        3.73172138416905       -5.82663381154736
H            0.03582238637687        1.41322746522589       -5.77064642886695
H            1.66619556624223        1.40215277724113       -6.47761644196724
H            1.90841116019694       -0.20476467549716       -4.85196886964756
H            0.83656394361080        0.50603487808614       -3.79499145465925

          :  Hamiltonian                  GFN2-xTB          :
         :: total energy             -32.781396589485 Eh    ::
         :: gradient norm              0.000337653818 Eh/a0 ::
         :: HOMO-LUMO gap              4.937780572888 eV    ::
         :: SCC energy               -33.162334639419 Eh    ::
         :: -> dispersion             -0.015600524469 Eh    ::
         :: repulsion energy           0.380938049934 Eh    ::

    * Orbital Energies and Occupations

         #    Occupation            Energy/Eh            Energy/eV
      -------------------------------------------------------------
         1        2.0000           -0.9109924             -24.7894
       ...           ...                  ...                  ...
        17        2.0000           -0.6835725             -18.6010
        18        2.0000           -0.6696582             -18.2223
        19        2.0000           -0.6652010             -18.1010
        20        2.0000           -0.6480893             -17.6354
        21        2.0000           -0.6458008             -17.5731
        22        2.0000           -0.6319617             -17.1966
        23        2.0000           -0.6302367             -17.1496
        24        2.0000           -0.6286065             -17.1053
        25        2.0000           -0.6061925             -16.4953
        26        2.0000           -0.5894296             -16.0392
        27        2.0000           -0.5875678             -15.9885
        28        2.0000           -0.5760987             -15.6764
        29        2.0000           -0.5695910             -15.4994 (HOMO)
        30                         -0.3881309             -10.5616 (LUMO)
        31                         -0.2562234              -6.9722
        32                         -0.1931593              -5.2561
        33                         -0.1898203              -5.1653
        34                         -0.1447187              -3.9380
        35                         -0.0976129              -2.6562
        36                         -0.0731582              -1.9907
        37                         -0.0590260              -1.6062
        38                         -0.0520604              -1.4166
        39                         -0.0414549              -1.1280
        40                         -0.0105817              -0.2879
       ...                                ...                  ...
        54                          0.5307052              14.4412
      -------------------------------------------------------------
                  HL-Gap            0.1814601 Eh            4.9378 eV

     #   Z          covCN         q      C6AA      α(0)
     1   6 C        3.751    -0.124    22.940     6.831
     2   6 C        3.691     0.070    19.587     6.333
     3   8 O        1.700    -0.279    18.633     5.828
     4   6 C        2.708     0.352    21.016     7.504
     5   8 O        0.856    -0.341    20.542     6.077
     6   6 C        3.805    -0.009    20.726     6.481
     7   6 C        3.830    -0.076    21.934     6.664
     8   6 C        3.827    -0.076    21.935     6.664
     9   6 C        3.765    -0.027    21.097     6.547
    10   7 N        3.542    -0.057    22.332     7.019
    11   1 H        0.925     0.061     2.186     2.312
    12   1 H        0.925     0.079     1.991     2.207
    13   1 H        0.925     0.069     2.099     2.265
    14   1 H        0.924     0.076     2.018     2.221
    15   1 H        0.924     0.080     1.974     2.197
    16   1 H        0.924     0.111     1.687     2.031
    17   1 H        0.925     0.105     1.736     2.060
    18   1 H        0.925     0.087     1.906     2.159
    19   1 H        0.925     0.077     2.009     2.217
    20   1 H        0.925     0.100     1.783     2.088
    21   1 H        0.925     0.102     1.768     2.079
    22   1 H        0.924     0.103     1.754     2.071
    23   1 H        0.859     0.245     0.905     1.490
    24   1 H        0.859     0.270     0.808     1.409

Wiberg/Mayer (AO) data.
largest (>0.10) Wiberg bond orders for each atom

     #   Z sym  total        # sym  WBO       # sym  WBO       # sym  WBO
 ---------------------------------------------------------------------------
     1   6 C    3.984 --     2 C    1.018    11 H    0.984    13 H    0.983
                            12 H    0.975
     2   6 C    3.890 --     1 C    1.018    14 H    0.969    15 H    0.968
                             3 O    0.890
     3   8 O    2.323 --     4 C    1.148     2 C    0.890     5 O    0.188
     4   6 C    3.939 --     5 O    1.805     3 O    1.148     6 C    0.926
     5   8 O    2.113 --     4 C    1.805     3 O    0.188
     6   6 C    3.921 --     7 C    0.981    16 H    0.950    10 N    0.927
                             4 C    0.926
     7   6 C    3.974 --     8 C    1.005     6 C    0.981    18 H    0.971
                            17 H    0.964
     8   6 C    3.982 --     9 C    1.010     7 C    1.005    19 H    0.973
                            20 H    0.965
     9   6 C    3.910 --     8 C    1.010    22 H    0.970    21 H    0.968
                            10 N    0.930
    10   7 N    3.716 --     9 C    0.930     6 C    0.927    23 H    0.920
                            24 H    0.876
    11   1 H    0.996 --     1 C    0.984
    12   1 H    0.993 --     1 C    0.975
    13   1 H    0.995 --     1 C    0.983
    14   1 H    0.994 --     2 C    0.969
    15   1 H    0.994 --     2 C    0.968
    16   1 H    0.988 --     6 C    0.950
    17   1 H    0.989 --     7 C    0.964
    18   1 H    0.992 --     7 C    0.971
    19   1 H    0.994 --     8 C    0.973
    20   1 H    0.990 --     8 C    0.965
    21   1 H    0.990 --     9 C    0.968
    22   1 H    0.989 --     9 C    0.970
    23   1 H    0.940 --    10 N    0.920
    24   1 H    0.927 --    10 N    0.876
 ---------------------------------------------------------------------------

molecular dipole:
                 x           y           z       tot (Debye)
 q only:        2.493       1.826      -8.045
   full:        2.384       1.441      -8.109      21.792

           -------------------------------------------------
          | TOTAL ENERGY              -32.781396589485 Eh   |
          | GRADIENT NORM               0.000337653818 Eh/α |
          | HOMO-LUMO GAP               4.937780572888 eV   |
           -------------------------------------------------

 * finished run on 2024/12/20 at 07:05:15.220
