   * xtb version 6.7.1 (edcfbbe) compiled by 'conda@3ef47c1a292c' on 2024-11-25

   ID    Z sym.   atoms
    1    6 C      1-12, 14-18, 20-33, 35-38, 41-44, 48-51, 53, 54, 56-59
    2    7 N      13, 19, 34, 47
    3    8 O      39, 40, 60, 61
    4   17 Cl     45, 46, 52, 55
    5    1 H      62-132

          program call               : xtb C0957.xyz --opt --namespace C0957 --charge +1
          :  Hamiltonian                  GFN2-xTB          :
 * total energy  :  -187.0697420 Eh     change       -0.3510280E-08 Eh
 * total energy  :  -187.0918075 Eh     change       -0.2206545E-01 Eh
 * total energy  :  -187.1009469 Eh     change       -0.9139412E-02 Eh
 * total energy  :  -187.1035715 Eh     change       -0.2624559E-02 Eh
 * total energy  :  -187.1057733 Eh     change       -0.2201861E-02 Eh
 * total energy  :  -187.1071439 Eh     change       -0.1370604E-02 Eh
 * total energy  :  -187.1084311 Eh     change       -0.1287153E-02 Eh
 * total energy  :  -187.1099169 Eh     change       -0.1485801E-02 Eh
 * total energy  :  -187.1114777 Eh     change       -0.1560773E-02 Eh
 * total energy  :  -187.1128916 Eh     change       -0.1413943E-02 Eh
 * total energy  :  -187.1439818 Eh     change       -0.2028316E-04 Eh
 * total energy  :  -187.1439900 Eh     change       -0.8224891E-05 Eh
 * total energy  :  -187.1439984 Eh     change       -0.8355861E-05 Eh
 * total energy  :  -187.1440157 Eh     change       -0.1731527E-04 Eh
 * total energy  :  -187.1440217 Eh     change       -0.5960776E-05 Eh
 * total energy  :  -187.1440281 Eh     change       -0.6413997E-05 Eh
 * total energy  :  -187.1440346 Eh     change       -0.6485530E-05 Eh
 * total energy  :  -187.1440397 Eh     change       -0.5115048E-05 Eh
 * total energy  :  -187.1440441 Eh     change       -0.4447803E-05 Eh
   *** GEOMETRY OPTIMIZATION CONVERGED AFTER 179 ITERATIONS ***

 final structure:
================
132
 xtb: 6.7.1 (edcfbbe)
C            0.96095599955479       -0.21485997442757       -0.46069397588216
C           -0.43902108459653       -0.50384591078508        0.06870754830477
C           -0.50677697686833       -1.77379351410046        0.92143863178642
C            0.16667693052416       -1.65082505627574        2.29042293721209
C           -0.60946611051323       -0.79776272244722        3.29563044307020
C           -1.86858336575436       -1.46089908090988        3.86076759114793
C           -1.61850046889157       -2.67029747233198        4.76406497029778
C           -0.77567874724197       -2.38604014130992        6.00737055868221
C           -1.36874316795154       -1.35163741316306        6.96510597772528
C           -2.66813980542223       -1.81971639464567        7.62248121961855
C           -3.04934652631472       -0.95740093334077        8.82613873742442
C           -3.60088040313971        0.42545462210211        8.44476860822009
N           -5.04477343867074        0.44212531964635        8.41017988621682
C           -5.88167722948650        0.35485715610314        7.32881856270034
C           -5.41567208396264        0.20069769915195        6.02724155116029
C           -6.10024419091397       -0.17937607452052        4.88370935183110
C           -5.46939589114718       -0.12805350959395        3.65308017796664
C           -5.93819347792711       -0.34293419797834        2.36216565181873
N           -7.12973159862221       -0.85058711160624        1.91973566719474
C           -8.23973725415871       -1.29829131134692        2.72417203536250
C           -9.10009731763840       -0.12013685089254        3.19841812393563
C          -10.03362618494452        0.43351633336459        2.11992994630355
C          -11.23049199400937       -0.46152544549042        1.79188044383316
C          -12.18378657347683       -0.71944772964821        2.96207855655997
C          -12.73757819971350        0.53448818295426        3.64205637675527
C          -13.50419552312786        1.48319482022943        2.71840349576958
C          -14.72663483058034        0.86831072945406        2.03419777352617
C          -15.78920394867351        0.31181592833988        2.98379937806195
C          -16.36415563662366        1.32285762224879        3.97827709707001
C          -17.02513899220610        2.54825045993306        3.34498938929772
C          -18.22405752293823        2.20054146965913        2.47084726029621
C           -7.14260189833360       -0.82587852045130        0.54311256391251
C           -5.90892001210347       -0.29716396115441        0.12657300405638
N           -5.18239709579742       -0.02578939663170        1.26056010352867
C           -3.84630795897970        0.51794574076603        1.21732264890047
C           -3.81933488095949        2.05149402654353        1.15844546050194
C           -4.00368517503362        2.72711541736086        2.52315554544230
C           -2.84188242299432        2.42969525524055        3.44093847455717
O           -2.90558895489660        1.81440278651000        4.47647225534200
O           -1.69831797963442        2.91949280540423        2.97037039462647
C           -5.61029759133595       -0.13539738651840       -1.21586451557138
C           -6.57092352285513       -0.52251381244679       -2.13912207896376
C           -7.79849070340291       -1.05852063703904       -1.72517598569847
C           -8.09801689612643       -1.21697751239300       -0.37970513284538
Cl          -8.96524678672054       -1.52680498196935       -2.89813670776617
Cl          -6.24277550355717       -0.33529340197504       -3.81635546089230
N           -7.17536829187143        0.43827991885011        7.78569418565581
C           -7.14719637633278        0.53250050248715        9.16367681321349
C           -5.79992170476466        0.52250156647910        9.55597083206966
C           -5.43885676682229        0.59169145605265       10.89103573223745
C           -6.45963405997869        0.67347919768619       11.82753638432017
Cl          -6.05757345096470        0.75562914243125       13.49671839426897
C           -7.80595184675994        0.68630185128434       11.43541080274542
C           -8.16585815788832        0.61767829538230       10.09632143795422
Cl          -9.04139129196129        0.79021221617947       12.62621281278865
C           -8.36369319542605        0.81335749913507        7.05301662475184
C           -8.63813107895462        2.31907014086819        7.17318788294728
C           -7.64120039235470        3.15550302415965        6.36211703113240
C           -7.89794235251321        3.04428804058721        4.87944502343776
O           -7.13597736143243        2.57553409020153        4.07165890569402
O           -9.09584735172205        3.51756086771180        4.54539835741590
H            1.65680606443435       -0.01914632933102        0.35098882556456
H            0.94611601804317        0.65785203622042       -1.10964509695920
H            1.33189861898777       -1.06133579069193       -1.03393049468875
H           -0.78899474523678        0.35544206715782        0.64542815411980
H           -1.11215698027288       -0.62557992665143       -0.78435421906628
H           -1.55272484600201       -2.05970407880007        1.05865378323757
H           -0.02315350633233       -2.58138721036025        0.36811460743536
H            0.30681836521081       -2.64994619147070        2.70461465272827
H            1.15939890848544       -1.21877313788286        2.15814844343116
H            0.05293044349959       -0.53819754568385        4.12263520565278
H           -0.89825730554871        0.13965660043096        2.81307511849425
H           -2.42499798158169       -0.70930954883064        4.42437214458193
H           -2.50629821953553       -1.79277040223059        3.03700646739187
H           -2.58789487063399       -3.06915915205908        5.07118561306477
H           -1.12073693507700       -3.45201513613258        4.18777413641174
H           -0.64131330607766       -3.32527905161972        6.54891058576850
H            0.21623460415865       -2.05086374229374        5.70058711773506
H           -0.63233186608530       -1.16472003012027        7.75032404226769
H           -1.52700296276078       -0.41040516113422        6.43744892763669
H           -3.48444603535822       -1.82040839679800        6.89840877590957
H           -2.52943284319526       -2.84591075771513        7.96829466981792
H           -3.80093791976537       -1.47521538173262        9.42554531016904
H           -2.16665255801534       -0.82572895843825        9.45335070060350
H           -3.29881152876128        1.16744979519367        9.18829791303930
H           -3.21009967405373        0.74233265196869        7.47876612575229
H           -4.36834219158817        0.42088849328181        5.88695002052816
H           -7.11118556587286       -0.53688902417462        4.96601694034363
H           -4.45875163492728        0.24020557709559        3.70141466900550
H           -8.83459245871646       -1.98270899453890        2.11886683289175
H           -7.84596607625366       -1.86388877566374        3.57185293409597
H           -9.69067625492928       -0.43574719109725        4.05884210245752
H           -8.42535889628605        0.67702426428212        3.51422982984097
H          -10.41152258065637        1.39966504140886        2.45766181893713
H           -9.46145077631938        0.61296296792841        1.20680386425852
H          -11.78458016387033        0.00636583820482        0.97724823039192
H          -10.88394330316443       -1.43027836787705        1.42455237336976
H          -13.01630050646102       -1.31656398932155        2.58810809109808
H          -11.67828798198063       -1.32622019058830        3.71798326039986
H          -13.39843603337108        0.21458981192555        4.44932542142727
H          -11.91863186123005        1.09083118720050        4.10669571965221
H          -13.82220682346478        2.34528840702734        3.30789699880794
H          -12.83224272046295        1.85796882243353        1.94250281557201
H          -15.17909747704885        1.63421478495950        1.40183974922618
H          -14.40392598784766        0.06163585350024        1.37216867815431
H          -16.60248145544600       -0.09426595455126        2.38004095383517
H          -15.36857204519150       -0.52254817343845        3.54982787679275
H          -17.10771340473654        0.80602083535444        4.59031353482930
H          -15.57254614732971        1.66132749594198        4.65083498145642
H          -17.35725867270673        3.20660776970236        4.15161898744742
H          -16.29347048730100        3.10342470121974        2.75508854225103
H          -18.94241249379119        1.60511591421911        3.02986342295555
H          -18.72039770861095        3.10806238969777        2.13523785184240
H          -17.92007075081005        1.63832664467594        1.59178755791793
H           -3.27894403297294        0.15847199248357        2.07556370435009
H           -3.37414731477616        0.11710206650240        0.31761261755412
H           -2.85910057514785        2.36231915696826        0.74449333275783
H           -4.60439957343288        2.39441685653129        0.48321166657156
H           -4.02269113842979        3.80743672835011        2.37000306393776
H           -4.93473358788618        2.42280905265869        3.00132174766749
H           -0.95562207901234        2.73365845954803        3.56745480443740
H           -4.67621665576521        0.27754214260598       -1.55644447818259
H           -9.05133957609996       -1.62811857929247       -0.09606136828127
H           -4.41215230483750        0.57608417034817       11.21393650917075
H           -9.20685216009957        0.62567302690459        9.82178355308011
H           -8.24925342162316        0.55403328809165        6.00554421833122
H           -9.20351792876152        0.24875732644808        7.46575959312700
H           -9.64811623047162        2.52492695509656        6.81794105915708
H           -8.58062805685092        2.61407784457146        8.22140170287081
H           -7.75874841416650        4.20549443515708        6.63373730595012
H           -6.61447591417947        2.84774011418182        6.56160550365313
H           -9.24455083715685        3.47592787439281        3.58709412629758

          :  Hamiltonian                  GFN2-xTB          :
         :: total energy            -187.144044142720 Eh    ::
         :: gradient norm              0.000541478785 Eh/a0 ::
         :: HOMO-LUMO gap              1.629443852758 eV    ::
         :: SCC energy              -189.588775621345 Eh    ::
         :: -> dispersion             -0.162360225257 Eh    ::
         :: repulsion energy           2.444731478625 Eh    ::

    * Orbital Energies and Occupations

         #    Occupation            Energy/Eh            Energy/eV
      -------------------------------------------------------------
         1        2.0000           -1.1329543             -30.8293
       ...           ...                  ...                  ...
       157        2.0000           -0.4909599             -13.3597
       158        2.0000           -0.4884637             -13.2918
       159        2.0000           -0.4876801             -13.2705
       160        2.0000           -0.4867900             -13.2462
       161        2.0000           -0.4838260             -13.1656
       162        2.0000           -0.4835730             -13.1587
       163        2.0000           -0.4814645             -13.1013
       164        2.0000           -0.4803602             -13.0713
       165        2.0000           -0.4757487             -12.9458
       166        2.0000           -0.4708801             -12.8133
       167        2.0000           -0.4665378             -12.6951
       168        2.0000           -0.4646882             -12.6448
       169        2.0000           -0.4407803             -11.9942 (HOMO)
       170                         -0.3808994             -10.3648 (LUMO)
       171                         -0.3396116              -9.2413
       172                         -0.3391736              -9.2294
       173                         -0.3295544              -8.9676
       174                         -0.3264389              -8.8829
       175                         -0.3243084              -8.8249
       176                         -0.3237162              -8.8088
       177                         -0.2825784              -7.6893
       178                         -0.2257327              -6.1425
       179                         -0.2253260              -6.1314
       180                         -0.2246541              -6.1131
       ...                                ...                  ...
       335                          0.5799656              15.7817
      -------------------------------------------------------------
                  HL-Gap            0.0598810 Eh            1.6294 eV

     #   Z          covCN         q      C6AA      α(0)
     1   6 C        3.751    -0.105    22.563     6.774
     2   6 C        3.799    -0.052    21.502     6.602
     3   6 C        3.801    -0.060    21.655     6.625
     4   6 C        3.800    -0.062    21.693     6.631
     5   6 C        3.800    -0.056    21.588     6.615
     6   6 C        3.800    -0.058    21.613     6.619
     7   6 C        3.800    -0.060    21.649     6.625
     8   6 C        3.801    -0.061    21.667     6.627
     9   6 C        3.801    -0.063    21.717     6.635
    10   6 C        3.801    -0.065    21.743     6.639
    11   6 C        3.801    -0.069    21.824     6.651
    12   6 C        3.740    -0.018    20.979     6.535
    13   7 N        2.820    -0.020    21.626     6.907
    14   6 C        3.015     0.111    25.536     8.289
    15   6 C        2.909    -0.097    30.446     9.048
    16   6 C        2.892    -0.011    28.287     8.720
    17   6 C        2.910    -0.094    30.360     9.035
    18   6 C        3.015     0.112    25.509     8.285
    19   7 N        2.817    -0.017    21.578     6.899
    20   6 C        3.740    -0.012    20.863     6.517
    21   6 C        3.801    -0.068    21.809     6.649
    22   6 C        3.800    -0.062    21.686     6.630
    23   6 C        3.800    -0.060    21.651     6.625
    24   6 C        3.800    -0.060    21.647     6.624
    25   6 C        3.800    -0.058    21.610     6.619
    26   6 C        3.800    -0.057    21.608     6.618
    27   6 C        3.800    -0.058    21.611     6.619
    28   6 C        3.800    -0.058    21.616     6.620
    29   6 C        3.800    -0.057    21.604     6.618
    30   6 C        3.799    -0.052    21.511     6.604
    31   6 C        3.751    -0.103    22.522     6.768
    32   6 C        3.067     0.039    27.062     8.530
    33   6 C        3.065     0.037    27.106     8.537
    34   7 N        2.822    -0.021    21.645     6.910
    35   6 C        3.740    -0.018    20.980     6.535
    36   6 C        3.802    -0.066    21.760     6.641
    37   6 C        3.802    -0.104    22.481     6.750
    38   6 C        2.689     0.364    20.819     7.467
    39   8 O        0.856    -0.428    22.258     6.325
    40   8 O        1.660    -0.364    20.169     6.063
    41   6 C        2.952    -0.061    29.522     8.912
    42   6 C        2.922     0.086    26.090     8.376
    43   6 C        2.921     0.085    26.114     8.380
    44   6 C        2.954    -0.060    29.488     8.907
    45  17 Cl       0.999    -0.115   102.760    15.509
    46  17 Cl       0.998    -0.114   102.728    15.506
    47   7 N        2.812    -0.030    21.817     6.937
    48   6 C        3.070     0.036    27.124     8.540
    49   6 C        3.065     0.038    27.075     8.532
    50   6 C        2.953    -0.060    29.484     8.906
    51   6 C        2.922     0.086    26.079     8.375
    52  17 Cl       0.999    -0.113   102.671    15.502
    53   6 C        2.922     0.085    26.106     8.379
    54   6 C        2.953    -0.061    29.521     8.912
    55  17 Cl       0.999    -0.114   102.718    15.506
    56   6 C        3.743    -0.016    20.928     6.526
    57   6 C        3.803    -0.069    21.823     6.651
    58   6 C        3.803    -0.096    22.321     6.726
    59   6 C        2.689     0.364    20.827     7.469
    60   8 O        0.856    -0.426    22.214     6.319
    61   8 O        1.660    -0.363    20.143     6.059
    62   1 H        0.925     0.037     2.484     2.465
    63   1 H        0.925     0.035     2.515     2.480
    64   1 H        0.925     0.040     2.451     2.448
    65   1 H        0.924     0.022     2.705     2.572
    66   1 H        0.924     0.021     2.719     2.579
    67   1 H        0.924     0.022     2.705     2.572
    68   1 H        0.924     0.037     2.483     2.464
    69   1 H        0.924     0.037     2.491     2.468
    70   1 H        0.924     0.037     2.484     2.465
    71   1 H        0.924     0.034     2.534     2.489
    72   1 H        0.924     0.018     2.768     2.602
    73   1 H        0.924     0.033     2.544     2.494
    74   1 H        0.924     0.019     2.747     2.592
    75   1 H        0.924     0.028     2.619     2.531
    76   1 H        0.924     0.036     2.503     2.474
    77   1 H        0.924     0.034     2.527     2.486
    78   1 H        0.924     0.039     2.466     2.456
    79   1 H        0.924     0.034     2.524     2.485
    80   1 H        0.924     0.037     2.487     2.466
    81   1 H        0.924     0.037     2.483     2.464
    82   1 H        0.924     0.045     2.382     2.413
    83   1 H        0.924     0.046     2.370     2.407
    84   1 H        0.924     0.055     2.260     2.351
    85   1 H        0.924     0.066     2.131     2.283
    86   1 H        0.925     0.084     1.940     2.178
    87   1 H        0.926     0.080     1.980     2.200
    88   1 H        0.926     0.038     2.473     2.459
    89   1 H        0.926     0.078     1.999     2.211
    90   1 H        0.924     0.074     2.041     2.234
    91   1 H        0.924     0.061     2.188     2.313
    92   1 H        0.924     0.048     2.342     2.393
    93   1 H        0.924     0.047     2.356     2.400
    94   1 H        0.924     0.039     2.461     2.453
    95   1 H        0.924     0.033     2.548     2.496
    96   1 H        0.924     0.045     2.389     2.417
    97   1 H        0.924     0.024     2.667     2.554
    98   1 H        0.924     0.043     2.407     2.426
    99   1 H        0.924     0.022     2.697     2.568
   100   1 H        0.924     0.037     2.490     2.468
   101   1 H        0.924     0.018     2.765     2.601
   102   1 H        0.924     0.034     2.534     2.489
   103   1 H        0.924     0.024     2.672     2.556
   104   1 H        0.924     0.035     2.510     2.478
   105   1 H        0.924     0.028     2.619     2.531
   106   1 H        0.924     0.036     2.506     2.475
   107   1 H        0.924     0.027     2.637     2.539
   108   1 H        0.924     0.031     2.578     2.511
   109   1 H        0.924     0.025     2.660     2.551
   110   1 H        0.924     0.028     2.621     2.532
   111   1 H        0.924     0.029     2.600     2.521
   112   1 H        0.925     0.035     2.511     2.478
   113   1 H        0.925     0.033     2.538     2.491
   114   1 H        0.925     0.035     2.519     2.482
   115   1 H        0.925     0.077     2.006     2.215
   116   1 H        0.924     0.077     2.014     2.219
   117   1 H        0.924     0.072     2.067     2.248
   118   1 H        0.924     0.062     2.179     2.309
   119   1 H        0.924     0.083     1.947     2.182
   120   1 H        0.925     0.092     1.860     2.133
   121   1 H        0.804     0.338     0.618     1.235
   122   1 H        0.926     0.081     1.964     2.191
   123   1 H        0.926     0.083     1.949     2.183
   124   1 H        0.926     0.085     1.930     2.172
   125   1 H        0.926     0.080     1.977     2.199
   126   1 H        0.925     0.074     2.041     2.234
   127   1 H        0.924     0.070     2.081     2.256
   128   1 H        0.924     0.074     2.042     2.235
   129   1 H        0.924     0.064     2.148     2.292
   130   1 H        0.924     0.087     1.910     2.161
   131   1 H        0.924     0.069     2.098     2.265
   132   1 H        0.804     0.337     0.620     1.236

Wiberg/Mayer (AO) data.
largest (>0.10) Wiberg bond orders for each atom

     #   Z sym  total        # sym  WBO       # sym  WBO       # sym  WBO
 ---------------------------------------------------------------------------
     1   6 C    3.996 --     2 C    1.020    64 H    0.987    63 H    0.987
                            62 H    0.985
     2   6 C    3.999 --     1 C    1.020     3 C    1.007    66 H    0.978
                            65 H    0.974
     3   6 C    3.997 --     4 C    1.008     2 C    1.007    68 H    0.977
                            67 H    0.974
     4   6 C    3.996 --     3 C    1.008     5 C    1.008    70 H    0.974
                            69 H    0.973
     5   6 C    3.998 --     4 C    1.008     6 C    1.007    71 H    0.974
                            72 H    0.971
     6   6 C    3.998 --     5 C    1.007     7 C    1.007    74 H    0.971
                            73 H    0.969
     7   6 C    3.997 --     8 C    1.008     6 C    1.007    75 H    0.976
                            76 H    0.974
     8   6 C    3.996 --     7 C    1.008     9 C    1.007    77 H    0.976
                            78 H    0.973
     9   6 C    3.997 --    10 C    1.008     8 C    1.007    79 H    0.976
                            80 H    0.972
    10   6 C    3.995 --     9 C    1.008    11 C    1.008    81 H    0.975
                            82 H    0.974
    11   6 C    3.987 --    10 C    1.008    12 C    0.987    83 H    0.975
                            84 H    0.973
    12   6 C    3.951 --    11 C    0.987    13 N    0.979    85 H    0.965
                            86 H    0.957
    13   7 N    3.576 --    14 C    1.198    49 C    1.142    12 C    0.979
    14   6 C    3.914 --    15 C    1.325    13 N    1.198    47 N    1.180
    15   6 C    3.934 --    16 C    1.417    14 C    1.325    87 H    0.938
    16   6 C    3.962 --    17 C    1.420    15 C    1.417    88 H    0.948
    17   6 C    3.937 --    16 C    1.420    18 C    1.325    89 H    0.938
    18   6 C    3.915 --    17 C    1.325    19 N    1.195    34 N    1.186
    19   7 N    3.574 --    18 C    1.195    32 C    1.138    20 C    0.982
    20   6 C    3.956 --    21 C    0.990    19 N    0.982    91 H    0.962
                            90 H    0.961
    21   6 C    3.990 --    22 C    1.007    20 C    0.990    92 H    0.969
                            93 H    0.968
    22   6 C    3.995 --    23 C    1.008    21 C    1.007    95 H    0.975
                            94 H    0.972
    23   6 C    3.996 --    22 C    1.008    24 C    1.007    96 H    0.974
                            97 H    0.972
    24   6 C    3.996 --    25 C    1.008    23 C    1.007    99 H    0.975
                            98 H    0.974
    25   6 C    3.997 --    24 C    1.008    26 C    1.007   101 H    0.975
                           100 H    0.974
    26   6 C    3.997 --    27 C    1.008    25 C    1.007   103 H    0.975
                           102 H    0.975
    27   6 C    3.997 --    28 C    1.008    26 C    1.008   105 H    0.975
                           104 H    0.975
    28   6 C    3.997 --    27 C    1.008    29 C    1.008   107 H    0.975
                           106 H    0.975
    29   6 C    3.998 --    30 C    1.008    28 C    1.008   108 H    0.977
                           109 H    0.976
    30   6 C    3.998 --    31 C    1.020    29 C    1.008   110 H    0.978
                           111 H    0.976
    31   6 C    3.997 --    30 C    1.020   112 H    0.987   113 H    0.987
                           114 H    0.986
    32   6 C    3.962 --    44 C    1.360    33 C    1.252    19 N    1.138
    33   6 C    3.963 --    41 C    1.359    32 C    1.252    34 N    1.144
    34   7 N    3.571 --    18 C    1.186    33 C    1.144    35 C    0.983
    35   6 C    3.956 --    36 C    0.992    34 N    0.983   116 H    0.961
                           115 H    0.954
    36   6 C    3.987 --    35 C    0.992    37 C    0.990   118 H    0.973
                           117 H    0.971
    37   6 C    3.988 --    36 C    0.990    38 C    0.978   120 H    0.965
                           119 H    0.952
    38   6 C    3.909 --    39 O    1.736    40 O    1.158    37 C    0.978
    39   8 O    2.020 --    38 C    1.736    40 O    0.174
    40   8 O    2.222 --    38 C    1.158   121 H    0.859    39 O    0.174
    41   6 C    3.965 --    42 C    1.411    33 C    1.359   122 H    0.959
    42   6 C    3.915 --    41 C    1.411    43 C    1.326    46 Cl   1.014
    43   6 C    3.914 --    44 C    1.410    42 C    1.326    45 Cl   1.013
    44   6 C    3.966 --    43 C    1.410    32 C    1.360   123 H    0.955
    45  17 Cl   1.160 --    43 C    1.013
    46  17 Cl   1.162 --    42 C    1.014
    47   7 N    3.549 --    14 C    1.180    48 C    1.126    56 C    0.982
    48   6 C    3.962 --    54 C    1.366    49 C    1.258    47 N    1.126
    49   6 C    3.965 --    50 C    1.358    48 C    1.258    13 N    1.142
    50   6 C    3.965 --    51 C    1.411    49 C    1.358   124 H    0.959
    51   6 C    3.918 --    50 C    1.411    53 C    1.327    52 Cl   1.016
    52  17 Cl   1.165 --    51 C    1.016
    53   6 C    3.913 --    54 C    1.407    51 C    1.327    55 Cl   1.015
    54   6 C    3.968 --    53 C    1.407    48 C    1.366   125 H    0.960
    55  17 Cl   1.162 --    53 C    1.015
    56   6 C    3.960 --    57 C    0.993    47 N    0.982   127 H    0.965
                           126 H    0.956
    57   6 C    3.986 --    56 C    0.993    58 C    0.991   129 H    0.971
                           128 H    0.970
    58   6 C    3.992 --    57 C    0.991    59 C    0.978   131 H    0.971
                           130 H    0.951
    59   6 C    3.911 --    60 O    1.741    61 O    1.156    58 C    0.978
    60   8 O    2.023 --    59 C    1.741    61 O    0.176
    61   8 O    2.221 --    59 C    1.156   132 H    0.859    60 O    0.176
    62   1 H    0.999 --     1 C    0.985
    63   1 H    0.999 --     1 C    0.987
    64   1 H    0.998 --     1 C    0.987
    65   1 H    1.000 --     2 C    0.974
    66   1 H    1.000 --     2 C    0.978
    67   1 H    1.000 --     3 C    0.974
    68   1 H    0.999 --     3 C    0.977
    69   1 H    0.999 --     4 C    0.973
    70   1 H    0.999 --     4 C    0.974
    71   1 H    0.999 --     5 C    0.974
    72   1 H    1.000 --     5 C    0.971
    73   1 H    0.999 --     6 C    0.969
    74   1 H    1.000 --     6 C    0.971
    75   1 H    0.999 --     7 C    0.976
    76   1 H    0.998 --     7 C    0.974
    77   1 H    0.999 --     8 C    0.976
    78   1 H    0.998 --     8 C    0.973
    79   1 H    0.999 --     9 C    0.976
    80   1 H    0.999 --     9 C    0.972
    81   1 H    0.999 --    10 C    0.975
    82   1 H    0.997 --    10 C    0.974
    83   1 H    0.998 --    11 C    0.975
    84   1 H    0.996 --    11 C    0.973
    85   1 H    0.993 --    12 C    0.965
    86   1 H    0.992 --    12 C    0.957
    87   1 H    0.993 --    15 C    0.938
    88   1 H    0.998 --    16 C    0.948
    89   1 H    0.993 --    17 C    0.938
    90   1 H    0.994 --    20 C    0.961
    91   1 H    0.995 --    20 C    0.962
    92   1 H    0.997 --    21 C    0.969
    93   1 H    0.998 --    21 C    0.968
    94   1 H    0.998 --    22 C    0.972
    95   1 H    0.999 --    22 C    0.975
    96   1 H    0.998 --    23 C    0.974
    97   1 H    0.999 --    23 C    0.972
    98   1 H    0.998 --    24 C    0.974
    99   1 H    0.999 --    24 C    0.975
   100   1 H    0.999 --    25 C    0.974
   101   1 H    1.000 --    25 C    0.975
   102   1 H    0.999 --    26 C    0.975
   103   1 H    0.999 --    26 C    0.975
   104   1 H    0.999 --    27 C    0.975
   105   1 H    0.999 --    27 C    0.975
   106   1 H    0.999 --    28 C    0.975
   107   1 H    0.999 --    28 C    0.975
   108   1 H    0.999 --    29 C    0.977
   109   1 H    0.999 --    29 C    0.976
   110   1 H    0.999 --    30 C    0.978
   111   1 H    0.999 --    30 C    0.976
   112   1 H    0.999 --    31 C    0.987
   113   1 H    0.999 --    31 C    0.987
   114   1 H    0.999 --    31 C    0.986
   115   1 H    0.993 --    35 C    0.954
   116   1 H    0.992 --    35 C    0.961
   117   1 H    0.994 --    36 C    0.971
   118   1 H    0.996 --    36 C    0.973
   119   1 H    0.993 --    37 C    0.952
   120   1 H    0.992 --    37 C    0.965
   121   1 H    0.886 --    40 O    0.859
   122   1 H    0.993 --    41 C    0.959
   123   1 H    0.993 --    44 C    0.955
   124   1 H    0.992 --    50 C    0.959
   125   1 H    0.993 --    54 C    0.960
   126   1 H    0.994 --    56 C    0.956
   127   1 H    0.993 --    56 C    0.965
   128   1 H    0.993 --    57 C    0.970
   129   1 H    0.996 --    57 C    0.971
   130   1 H    0.992 --    58 C    0.951
   131   1 H    0.995 --    58 C    0.971
   132   1 H    0.886 --    61 O    0.859
 ---------------------------------------------------------------------------

molecular dipole:
                 x           y           z       tot (Debye)
 q only:      -11.149       1.145       8.827
   full:      -11.404       1.227       8.771      36.700

           -------------------------------------------------
          | TOTAL ENERGY             -187.144044142720 Eh   |
          | GRADIENT NORM               0.000541478785 Eh/α |
          | HOMO-LUMO GAP               1.629443852758 eV   |
           -------------------------------------------------

 * finished run on 2024/12/20 at 07:06:05.715
