   * xtb version 6.7.1 (edcfbbe) compiled by 'conda@3ef47c1a292c' on 2024-11-25

   ID    Z sym.   atoms
    1    6 C      1-11, 13, 14, 16, 17
    2    7 N      12, 15
    3    1 H      18-46

          program call               : xtb C0956.xyz --opt --namespace C0956 --charge +1
          :  Hamiltonian                  GFN2-xTB          :
 * total energy  :   -52.4005279 Eh     change       -0.4122555E-08 Eh
 * total energy  :   -52.4043177 Eh     change       -0.3789865E-02 Eh
 * total energy  :   -52.4050973 Eh     change       -0.7795989E-03 Eh
 * total energy  :   -52.4052593 Eh     change       -0.1619484E-03 Eh
 * total energy  :   -52.4053876 Eh     change       -0.1282807E-03 Eh
 * total energy  :   -52.4054309 Eh     change       -0.4336634E-04 Eh
 * total energy  :   -52.4054888 Eh     change       -0.5786560E-04 Eh
 * total energy  :   -52.4055514 Eh     change       -0.6265945E-04 Eh
 * total energy  :   -52.4056049 Eh     change       -0.5345046E-04 Eh
 * total energy  :   -52.4056600 Eh     change       -0.5505736E-04 Eh
 * total energy  :   -52.4070853 Eh     change       -0.8425178E-05 Eh
 * total energy  :   -52.4070963 Eh     change       -0.1096762E-04 Eh
 * total energy  :   -52.4071042 Eh     change       -0.7935737E-05 Eh
 * total energy  :   -52.4071116 Eh     change       -0.7399095E-05 Eh
 * total energy  :   -52.4071231 Eh     change       -0.1147852E-04 Eh
 * total energy  :   -52.4071383 Eh     change       -0.1520742E-04 Eh
 * total energy  :   -52.4071492 Eh     change       -0.1090227E-04 Eh
 * total energy  :   -52.4071533 Eh     change       -0.4073868E-05 Eh
 * total energy  :   -52.4071572 Eh     change       -0.3863817E-05 Eh
   *** GEOMETRY OPTIMIZATION CONVERGED AFTER 57 ITERATIONS ***

 final structure:
================
46
 xtb: 6.7.1 (edcfbbe)
C            1.17444449158264        0.48503424778115       -0.59100357883784
C            0.86901855484155       -0.69157569781317       -1.51034413131400
C            1.31892610513921       -2.03794444533443       -0.94053079960226
C            0.66569458682964       -2.42876614189584        0.38685505612396
C           -0.86102024594824       -2.52083299849507        0.35300290896630
C           -1.42573494149659       -3.53984371049112       -0.63890337292956
C           -0.97387830877566       -4.98382418461846       -0.40987867601901
C           -1.27440469795479       -5.54351904329732        0.98302783838034
C           -2.74767378660468       -5.49110525943652        1.39523527893847
C           -3.69656996944871       -6.28088217521770        0.49324703751127
C           -3.46627713424751       -7.79700388235284        0.52435886199472
N           -3.74956476072655       -8.34102607122499        1.83295721634194
C           -2.84853383415614       -8.52945426572902        2.83441185911787
C           -3.53442199311532       -8.98540274549651        3.91960719087827
N           -4.84632113584046       -9.06319865861562        3.56417215610055
C           -4.95218439428037       -8.66604153461724        2.29906256858848
C           -5.91443990554093       -9.50778301896127        4.41802381790036
H            0.59141270373647        0.43218016083075        0.32530419605620
H            0.93482760878050        1.42198571210117       -1.08842027571881
H            2.23006308485403        0.49823036687798       -0.32820629898557
H           -0.20065258697418       -0.71648152080548       -1.72668829016182
H            1.38685261061291       -0.53898538355878       -2.46016524638806
H            1.12699779736362       -2.81450946398029       -1.68433869509491
H            2.39968432594375       -2.00306829678190       -0.78319192364036
H            1.08265567736069       -3.38756623773093        0.70425023542199
H            0.94254454637352       -1.69630866170389        1.14701679903250
H           -1.21214133562046       -2.75748657551748        1.36053930302116
H           -1.27061780555002       -1.54214136573329        0.09860307124182
H           -2.51683045508000       -3.48735546877367       -0.60349454663513
H           -1.12951453832212       -3.25354413815735       -1.64891820204559
H           -1.43937540016460       -5.61614507003486       -1.17036971170800
H            0.10378690673211       -5.04634110504437       -0.56659540705911
H           -0.90642613095031       -6.57259455338761        1.02341863533589
H           -0.70417837655165       -4.97723435909302        1.72013022760602
H           -2.83949772774012       -5.84434153944188        2.42685760481451
H           -3.07322612966309       -4.45137624731447        1.38820990211429
H           -4.72775537168660       -6.07368182777472        0.78822531420537
H           -3.57639294435171       -5.95039188693706       -0.53721681374611
H           -4.11915903903670       -8.28455710936013       -0.20237283526575
H           -2.42951069093948       -8.02467805420362        0.27551187275896
H           -1.80200441900260       -8.33826094430436        2.71351772799730
H           -3.18482181257685       -9.25292964212835        4.89584368617725
H           -5.86493174451626       -8.62249269764238        1.73722729907269
H           -5.95290182901497       -8.89464081399587        5.31859123978419
H           -6.86410765367458       -9.43187558282328        3.89414567347811
H           -5.75215790061360      -10.54495810778658        4.71353422615353

          :  Hamiltonian                  GFN2-xTB          :
         :: total energy             -52.407157163024 Eh    ::
         :: gradient norm              0.000688650991 Eh/a0 ::
         :: HOMO-LUMO gap              1.806948886669 eV    ::
         :: SCC energy               -53.197553716031 Eh    ::
         :: -> dispersion             -0.037133675429 Eh    ::
         :: repulsion energy           0.790396553007 Eh    ::

    * Orbital Energies and Occupations

         #    Occupation            Energy/Eh            Energy/eV
      -------------------------------------------------------------
         1        2.0000           -0.8967577             -24.4020
       ...           ...                  ...                  ...
        37        2.0000           -0.5540808             -15.0773
        38        2.0000           -0.5483055             -14.9202
        39        2.0000           -0.5407953             -14.7158
        40        2.0000           -0.5380585             -14.6413
        41        2.0000           -0.5265051             -14.3269
        42        2.0000           -0.5225858             -14.2203
        43        2.0000           -0.5142796             -13.9943
        44        2.0000           -0.5040663             -13.7163
        45        2.0000           -0.4994472             -13.5907
        46        2.0000           -0.4954329             -13.4814
        47        2.0000           -0.4794603             -13.0468
        48        2.0000           -0.4758064             -12.9474
        49        2.0000           -0.4731701             -12.8756 (HOMO)
        50                         -0.4067660             -11.0687 (LUMO)
        51                         -0.3706227             -10.0852
        52                         -0.1833265              -4.9886
        53                         -0.1280476              -3.4844
        54                         -0.0622976              -1.6952
        55                         -0.0504724              -1.3734
        56                         -0.0476356              -1.2962
        57                         -0.0308117              -0.8384
        58                         -0.0185758              -0.5055
        59                         -0.0097791              -0.2661
        60                         -0.0047999              -0.1306
       ...                                ...                  ...
        97                          0.4636575              12.6168
      -------------------------------------------------------------
                  HL-Gap            0.0664041 Eh            1.8069 eV

     #   Z          covCN         q      C6AA      α(0)
     1   6 C        3.751    -0.103    22.527     6.769
     2   6 C        3.799    -0.053    21.526     6.606
     3   6 C        3.800    -0.058    21.622     6.620
     4   6 C        3.800    -0.058    21.619     6.620
     5   6 C        3.800    -0.058    21.625     6.621
     6   6 C        3.800    -0.060    21.657     6.626
     7   6 C        3.800    -0.061    21.675     6.629
     8   6 C        3.800    -0.061    21.679     6.629
     9   6 C        3.800    -0.065    21.749     6.640
    10   6 C        3.801    -0.070    21.831     6.652
    11   6 C        3.742    -0.028    21.153     6.562
    12   7 N        2.868     0.072    19.979     6.639
    13   6 C        3.076    -0.004    28.034     8.681
    14   6 C        3.073    -0.010    28.199     8.707
    15   7 N        2.867     0.077    19.899     6.625
    16   6 C        3.103     0.044    26.884     8.496
    17   6 C        3.692    -0.086    22.337     6.763
    18   1 H        0.925     0.033     2.543     2.494
    19   1 H        0.925     0.035     2.516     2.481
    20   1 H        0.925     0.036     2.502     2.474
    21   1 H        0.924     0.029     2.598     2.521
    22   1 H        0.924     0.031     2.575     2.509
    23   1 H        0.924     0.027     2.631     2.536
    24   1 H        0.924     0.033     2.550     2.497
    25   1 H        0.924     0.025     2.662     2.552
    26   1 H        0.924     0.037     2.496     2.471
    27   1 H        0.924     0.023     2.691     2.565
    28   1 H        0.924     0.039     2.459     2.452
    29   1 H        0.924     0.024     2.674     2.557
    30   1 H        0.924     0.043     2.415     2.430
    31   1 H        0.924     0.024     2.672     2.556
    32   1 H        0.924     0.045     2.381     2.413
    33   1 H        0.924     0.018     2.765     2.600
    34   1 H        0.924     0.049     2.329     2.386
    35   1 H        0.924     0.022     2.705     2.572
    36   1 H        0.925     0.063     2.168     2.302
    37   1 H        0.924     0.046     2.370     2.408
    38   1 H        0.925     0.080     1.979     2.200
    39   1 H        0.924     0.081     1.973     2.197
    40   1 H        0.924     0.096     1.825     2.113
    41   1 H        0.926     0.111     1.689     2.032
    42   1 H        0.926     0.109     1.705     2.042
    43   1 H        0.926     0.112     1.681     2.028
    44   1 H        0.925     0.107     1.719     2.050
    45   1 H        0.925     0.099     1.791     2.093
    46   1 H        0.924     0.107     1.721     2.051

Wiberg/Mayer (AO) data.
largest (>0.10) Wiberg bond orders for each atom

     #   Z sym  total        # sym  WBO       # sym  WBO       # sym  WBO
 ---------------------------------------------------------------------------
     1   6 C    3.997 --     2 C    1.020    20 H    0.987    19 H    0.987
                            18 H    0.986
     2   6 C    3.998 --     1 C    1.020     3 C    1.008    22 H    0.978
                            21 H    0.976
     3   6 C    3.997 --     2 C    1.008     4 C    1.008    24 H    0.977
                            23 H    0.976
     4   6 C    3.997 --     5 C    1.008     3 C    1.008    25 H    0.975
                            26 H    0.975
     5   6 C    3.997 --     4 C    1.008     6 C    1.008    27 H    0.975
                            28 H    0.974
     6   6 C    3.996 --     5 C    1.008     7 C    1.007    29 H    0.975
                            30 H    0.974
     7   6 C    3.996 --     6 C    1.007     8 C    1.007    31 H    0.975
                            32 H    0.973
     8   6 C    3.995 --     7 C    1.007     9 C    1.007    33 H    0.974
                            34 H    0.973
     9   6 C    3.993 --    10 C    1.008     8 C    1.007    35 H    0.975
                            36 H    0.968
    10   6 C    3.982 --     9 C    1.008    11 C    0.980    37 H    0.975
                            38 H    0.963
    11   6 C    3.933 --    10 C    0.980    12 N    0.966    39 H    0.965
                            40 H    0.960
    12   7 N    3.721 --    16 C    1.362    13 C    1.233    11 C    0.966
    13   6 C    3.950 --    14 C    1.587    12 N    1.233    41 H    0.959
    14   6 C    3.947 --    13 C    1.587    15 N    1.228    42 H    0.961
    15   7 N    3.721 --    16 C    1.360    14 C    1.228    17 C    0.991
    16   6 C    3.947 --    12 N    1.362    15 N    1.360    43 H    0.954
    17   6 C    3.934 --    15 N    0.991    45 H    0.976    44 H    0.963
                            46 H    0.962
    18   1 H    0.999 --     1 C    0.986
    19   1 H    0.999 --     1 C    0.987
    20   1 H    0.999 --     1 C    0.987
    21   1 H    0.999 --     2 C    0.976
    22   1 H    0.999 --     2 C    0.978
    23   1 H    0.999 --     3 C    0.976
    24   1 H    0.999 --     3 C    0.977
    25   1 H    0.999 --     4 C    0.975
    26   1 H    0.999 --     4 C    0.975
    27   1 H    0.999 --     5 C    0.975
    28   1 H    0.998 --     5 C    0.974
    29   1 H    0.999 --     6 C    0.975
    30   1 H    0.998 --     6 C    0.974
    31   1 H    0.999 --     7 C    0.975
    32   1 H    0.998 --     7 C    0.973
    33   1 H    1.000 --     8 C    0.974
    34   1 H    0.998 --     8 C    0.973
    35   1 H    1.000 --     9 C    0.975
    36   1 H    0.996 --     9 C    0.968
    37   1 H    0.998 --    10 C    0.975
    38   1 H    0.993 --    10 C    0.963
    39   1 H    0.993 --    11 C    0.965
    40   1 H    0.990 --    11 C    0.960
    41   1 H    0.987 --    13 C    0.959
    42   1 H    0.988 --    14 C    0.961
    43   1 H    0.988 --    16 C    0.954
    44   1 H    0.988 --    17 C    0.963
    45   1 H    0.990 --    17 C    0.976
    46   1 H    0.988 --    17 C    0.962
 ---------------------------------------------------------------------------

molecular dipole:
                 x           y           z       tot (Debye)
 q only:       -7.882     -15.696       4.819
   full:       -7.990     -15.817       4.822      46.680

           -------------------------------------------------
          | TOTAL ENERGY              -52.407157163024 Eh   |
          | GRADIENT NORM               0.000688650991 Eh/α |
          | HOMO-LUMO GAP               1.806948886669 eV   |
           -------------------------------------------------

 * finished run on 2024/12/20 at 07:05:21.038
