   * xtb version 6.7.1 (edcfbbe) compiled by 'conda@3ef47c1a292c' on 2024-11-25

   ID    Z sym.   atoms
    1    6 C      1-3, 5, 7, 8, 10, 12, 13
    2    7 N      4, 6, 11
    3    8 O      9
    4    1 H      14-33

          program call               : xtb C0959.xyz --opt --namespace C0959 --charge +1
          :  Hamiltonian                  GFN2-xTB          :
 * total energy  :   -41.9162113 Eh     change       -0.2749090E-09 Eh
 * total energy  :   -41.9288770 Eh     change       -0.1266571E-01 Eh
 * total energy  :   -41.9315556 Eh     change       -0.2678597E-02 Eh
 * total energy  :   -41.9319712 Eh     change       -0.4156173E-03 Eh
 * total energy  :   -41.9326056 Eh     change       -0.6344001E-03 Eh
 * total energy  :   -41.9329025 Eh     change       -0.2968498E-03 Eh
 * total energy  :   -41.9332812 Eh     change       -0.3787162E-03 Eh
 * total energy  :   -41.9335285 Eh     change       -0.2473017E-03 Eh
 * total energy  :   -41.9336748 Eh     change       -0.1463204E-03 Eh
 * total energy  :   -41.9337444 Eh     change       -0.6958651E-04 Eh
 * total energy  :   -41.9351979 Eh     change       -0.1065491E-03 Eh
 * total energy  :   -41.9352799 Eh     change       -0.8207377E-04 Eh
 * total energy  :   -41.9354047 Eh     change       -0.1247662E-03 Eh
 * total energy  :   -41.9354427 Eh     change       -0.3801584E-04 Eh
 * total energy  :   -41.9354828 Eh     change       -0.4004762E-04 Eh
 * total energy  :   -41.9354934 Eh     change       -0.1058086E-04 Eh
 * total energy  :   -41.9354973 Eh     change       -0.3914162E-05 Eh
 * total energy  :   -41.9355032 Eh     change       -0.5904070E-05 Eh
 * total energy  :   -41.9355065 Eh     change       -0.3292889E-05 Eh
   *** GEOMETRY OPTIMIZATION CONVERGED AFTER 39 ITERATIONS ***

 final structure:
================
33
 xtb: 6.7.1 (edcfbbe)
C            0.87056029652420        0.25738103336893       -0.25973590689845
C            0.34019549507711       -1.10005203900234       -0.70852360357807
C            1.10737825661923       -2.29392163873733       -0.11457192403151
N            0.53977339267662       -2.76618367111628        1.14484524643438
C           -0.13528774870359       -3.90618013898568        1.19796313018659
N           -0.08832779644316       -4.71999013573320        0.05949377692003
C           -1.07562314674028       -4.39733642269416       -0.97830173958464
C           -0.09816346920620       -6.13443906573116        0.38602175904955
O           -1.20466369687646       -6.43999927117002        1.19188673173891
C           -1.09755439248687       -5.79349770197951        2.40530382849001
N           -0.79307838617264       -4.35709798416337        2.27500760078198
C           -1.31098420957067       -3.56493399820565        3.37606472522831
C            0.90387559245783       -1.97205234446192        2.30290532764685
H            0.73749262336744        0.41979485722093        0.80589206871302
H            0.33981607287279        1.04676318997378       -0.78467923290883
H            1.92729094418817        0.35078977021750       -0.49672397925430
H           -0.71920251316070       -1.17803379809911       -0.45417223112774
H            0.42266764780444       -1.15578163397333       -1.79448175999195
H            1.12410028223462       -3.12736422512504       -0.81388407734984
H            2.14124951898940       -1.99680410742046        0.07380607065658
H           -0.71023334756252       -4.78909859645670       -1.92507299265511
H           -2.04083827909146       -4.85561229990850       -0.74785868933451
H           -1.20590249918865       -3.32359618687189       -1.06376032925373
H            0.84450249647223       -6.38115726900056        0.89476596345162
H           -0.18724554169811       -6.71575502699406       -0.53086289149245
H           -0.30100477988169       -6.23885818409971        3.02979085290352
H           -2.05879701615371       -5.91290042102850        2.91067867117089
H           -2.33374454834674       -3.89155135073146        3.57136180651016
H           -0.73189881837993       -3.71146071034209        4.28926052857767
H           -1.34970932868262       -2.51386934286704        3.11740630358639
H            1.88836961116019       -1.54439596646402        2.11836669607931
H            0.21227363842228       -1.14602215085521        2.47207376299219
H            0.97291364947975       -2.58760316856305        3.19459450634278

          :  Hamiltonian                  GFN2-xTB          :
         :: total energy             -41.935506470694 Eh    ::
         :: gradient norm              0.000514555217 Eh/a0 ::
         :: HOMO-LUMO gap              3.494618666634 eV    ::
         :: SCC energy               -42.450065445429 Eh    ::
         :: -> dispersion             -0.027160697500 Eh    ::
         :: repulsion energy           0.514558974735 Eh    ::

    * Orbital Energies and Occupations

         #    Occupation            Energy/Eh            Energy/eV
      -------------------------------------------------------------
         1        2.0000           -0.8735776             -23.7713
       ...           ...                  ...                  ...
        26        2.0000           -0.6313315             -17.1794
        27        2.0000           -0.6287852             -17.1101
        28        2.0000           -0.6200304             -16.8719
        29        2.0000           -0.6182387             -16.8231
        30        2.0000           -0.6099315             -16.5971
        31        2.0000           -0.6077384             -16.5374
        32        2.0000           -0.6043195             -16.4444
        33        2.0000           -0.5759897             -15.6735
        34        2.0000           -0.5753864             -15.6571
        35        2.0000           -0.5681482             -15.4601
        36        2.0000           -0.5588343             -15.2067
        37        2.0000           -0.5443976             -14.8138
        38        2.0000           -0.5368447             -14.6083 (HOMO)
        39                         -0.4084198             -11.1137 (LUMO)
        40                         -0.2069872              -5.6324
        41                         -0.1665334              -4.5316
        42                         -0.1478862              -4.0242
        43                         -0.1039101              -2.8275
        44                         -0.0795160              -2.1637
        45                         -0.0741035              -2.0165
        46                         -0.0516209              -1.4047
        47                         -0.0454698              -1.2373
        48                         -0.0401395              -1.0923
        49                         -0.0313059              -0.8519
       ...                                ...                  ...
        72                          0.3308976               9.0042
      -------------------------------------------------------------
                  HL-Gap            0.1284249 Eh            3.4946 eV

     #   Z          covCN         q      C6AA      α(0)
     1   6 C        3.751    -0.118    22.819     6.812
     2   6 C        3.799    -0.062    21.691     6.631
     3   6 C        3.752    -0.035    21.252     6.574
     4   7 N        2.738    -0.017    21.581     6.900
     5   6 C        2.799     0.206    23.634     7.964
     6   7 N        2.736    -0.168    24.634     7.372
     7   6 C        3.706    -0.054    21.694     6.658
     8   6 C        3.712     0.132    18.567     6.157
     9   8 O        1.704    -0.279    18.624     5.827
    10   6 C        3.693     0.134    18.578     6.167
    11   7 N        2.733    -0.077    22.730     7.081
    12   6 C        3.695    -0.072    22.067     6.720
    13   6 C        3.698    -0.076    22.132     6.729
    14   1 H        0.925     0.044     2.399     2.422
    15   1 H        0.925     0.061     2.182     2.310
    16   1 H        0.925     0.052     2.293     2.368
    17   1 H        0.924     0.043     2.412     2.429
    18   1 H        0.924     0.065     2.146     2.291
    19   1 H        0.925     0.088     1.902     2.157
    20   1 H        0.924     0.085     1.928     2.171
    21   1 H        0.925     0.080     1.976     2.198
    22   1 H        0.924     0.068     2.110     2.272
    23   1 H        0.925     0.070     2.083     2.257
    24   1 H        0.923     0.050     2.319     2.381
    25   1 H        0.925     0.098     1.805     2.101
    26   1 H        0.922     0.059     2.216     2.328
    27   1 H        0.924     0.097     1.810     2.104
    28   1 H        0.924     0.091     1.873     2.140
    29   1 H        0.924     0.080     1.979     2.200
    30   1 H        0.925     0.090     1.876     2.142
    31   1 H        0.925     0.100     1.783     2.088
    32   1 H        0.924     0.085     1.933     2.174
    33   1 H        0.925     0.081     1.967     2.193

Wiberg/Mayer (AO) data.
largest (>0.10) Wiberg bond orders for each atom

     #   Z sym  total        # sym  WBO       # sym  WBO       # sym  WBO
 ---------------------------------------------------------------------------
     1   6 C    3.991 --     2 C    1.020    16 H    0.985    14 H    0.985
                            15 H    0.983
     2   6 C    3.989 --     1 C    1.020     3 C    0.986    17 H    0.973
                            18 H    0.973
     3   6 C    3.938 --     2 C    0.986     4 N    0.965    19 H    0.960
                            20 H    0.959
     4   7 N    3.604 --     5 C    1.391    13 C    0.986     3 C    0.965
                            11 N    0.134
     5   6 C    3.973 --     4 N    1.391    11 N    1.322     6 N    1.087
     6   7 N    3.223 --     5 C    1.087     8 C    0.981     7 C    0.956
     7   6 C    3.951 --    21 H    0.978    23 H    0.977    22 H    0.976
                             6 N    0.956
     8   6 C    3.935 --     6 N    0.981     9 O    0.976    24 H    0.961
                            25 H    0.960
     9   8 O    2.136 --    10 C    1.026     8 C    0.976
    10   6 C    3.934 --     9 O    1.026    27 H    0.955    26 H    0.947
                            11 N    0.946
    11   7 N    3.531 --     5 C    1.322    12 C    0.982    10 C    0.946
                             4 N    0.134
    12   6 C    3.943 --    11 N    0.982    30 H    0.973    29 H    0.971
                            28 H    0.966
    13   6 C    3.945 --     4 N    0.986    33 H    0.974    31 H    0.965
                            32 H    0.964
    14   1 H    0.998 --     1 C    0.985
    15   1 H    0.995 --     1 C    0.983
    16   1 H    0.997 --     1 C    0.985
    17   1 H    0.998 --     2 C    0.973
    18   1 H    0.995 --     2 C    0.973
    19   1 H    0.992 --     3 C    0.960
    20   1 H    0.992 --     3 C    0.959
    21   1 H    0.993 --     7 C    0.978
    22   1 H    0.995 --     7 C    0.976
    23   1 H    0.995 --     7 C    0.977
    24   1 H    0.997 --     8 C    0.961
    25   1 H    0.990 --     8 C    0.960
    26   1 H    0.996 --    10 C    0.947
    27   1 H    0.990 --    10 C    0.955
    28   1 H    0.991 --    12 C    0.966
    29   1 H    0.993 --    12 C    0.971
    30   1 H    0.992 --    12 C    0.973
    31   1 H    0.989 --    13 C    0.965
    32   1 H    0.993 --    13 C    0.964
    33   1 H    0.993 --    13 C    0.974
 ---------------------------------------------------------------------------

molecular dipole:
                 x           y           z       tot (Debye)
 q only:       -0.023      -6.281       2.565
   full:       -0.105      -6.370       2.801      17.689

           -------------------------------------------------
          | TOTAL ENERGY              -41.935506470694 Eh   |
          | GRADIENT NORM               0.000514555217 Eh/α |
          | HOMO-LUMO GAP               3.494618666634 eV   |
           -------------------------------------------------

 * finished run on 2024/12/20 at 07:06:07.891
