   * xtb version 6.7.1 (edcfbbe) compiled by 'conda@3ef47c1a292c' on 2024-11-25

   ID    Z sym.   atoms
    1    6 C      1, 2, 4-6
    2    7 N      3
    3    1 H      7-20

          program call               : xtb C0953.xyz --opt --namespace C0953 --charge +1
          :  Hamiltonian                  GFN2-xTB          :
 * total energy  :   -20.3519643 Eh     change       -0.7921841E-10 Eh
 * total energy  :   -20.3538389 Eh     change       -0.1874585E-02 Eh
 * total energy  :   -20.3542358 Eh     change       -0.3969629E-03 Eh
 * total energy  :   -20.3542525 Eh     change       -0.1670136E-04 Eh
 * total energy  :   -20.3542548 Eh     change       -0.2267411E-05 Eh
   *** GEOMETRY OPTIMIZATION CONVERGED AFTER 5 ITERATIONS ***

 final structure:
================
20
 xtb: 6.7.1 (edcfbbe)
C            0.93376163167197        0.00458026635986       -0.09577349957831
C            0.40415537236795       -1.41814729302846       -0.14355528358115
N            0.82016203374552       -2.22745124899856        1.03772121540411
C            0.32437889231563       -1.69773584769258        2.34734571519554
C           -1.18796575293363       -1.60913232061496        2.45535780484811
C            0.46762531734272       -3.64664608159332        0.84761347185627
H            0.46098549869310        0.59602804685482        0.68290909737054
H            0.72139278131188        0.48823824978108       -1.04534461522546
H            2.01206624943274        0.02128356524941        0.04834204702171
H           -0.68474721301701       -1.42498725729997       -0.19736824112596
H            0.79150666803566       -1.91935016539394       -1.03315236444071
H            1.84379180057913       -2.16687677769236        1.08371803902348
H            0.70807422741341       -2.35800603487932        3.12801706512198
H            0.76214249248052       -0.70979315701315        2.49635787233819
H           -1.66716577448181       -2.57448012376077        2.32313135530793
H           -1.43330947122332       -1.25908179141971        3.45470379442419
H           -1.60993203724883       -0.89833639136458        1.75108242523307
H            0.97636791452520       -4.04670056004094       -0.02758461630780
H            0.76143157459204       -4.22980780158483        1.71851869359728
H           -0.60545220560287       -3.74668727586773        0.69957002351699

          :  Hamiltonian                  GFN2-xTB          :
         :: total energy             -20.354254813091 Eh    ::
         :: gradient norm              0.000566404795 Eh/a0 ::
         :: HOMO-LUMO gap              9.882806438187 eV    ::
         :: SCC energy               -20.647604452321 Eh    ::
         :: -> dispersion             -0.010539890273 Eh    ::
         :: repulsion energy           0.293349639230 Eh    ::

    * Orbital Energies and Occupations

         #    Occupation            Energy/Eh            Energy/eV
      -------------------------------------------------------------
         1        2.0000           -0.8771223             -23.8677
       ...           ...                  ...                  ...
         7        2.0000           -0.7367603             -20.0483
         8        2.0000           -0.7299511             -19.8630
         9        2.0000           -0.7132195             -19.4077
        10        2.0000           -0.6874524             -18.7065
        11        2.0000           -0.6710549             -18.2603
        12        2.0000           -0.6655976             -18.1118
        13        2.0000           -0.6604456             -17.9716
        14        2.0000           -0.6435916             -17.5130
        15        2.0000           -0.6389907             -17.3878
        16        2.0000           -0.6261942             -17.0396
        17        2.0000           -0.6161255             -16.7656
        18        2.0000           -0.6132324             -16.6869
        19        2.0000           -0.6066652             -16.5082 (HOMO)
        20                         -0.2434788              -6.6254 (LUMO)
        21                         -0.1638729              -4.4592
        22                         -0.1499988              -4.0817
        23                         -0.1315742              -3.5803
        24                         -0.0582916              -1.5862
        25                         -0.0537320              -1.4621
        26                         -0.0430563              -1.1716
        27                         -0.0295333              -0.8036
        28                          0.0025559               0.0695
        29                          0.0166353               0.4527
        30                          0.0289127               0.7868
       ...                                ...                  ...
        38                          0.1327177               3.6114
      -------------------------------------------------------------
                  HL-Gap            0.3631865 Eh            9.8828 eV

     #   Z          covCN         q      C6AA      α(0)
     1   6 C        3.751    -0.134    23.133     6.859
     2   6 C        3.742    -0.033    21.238     6.575
     3   7 N        3.575     0.049    20.376     6.704
     4   6 C        3.739    -0.031    21.212     6.572
     5   6 C        3.751    -0.131    23.089     6.853
     6   6 C        3.697    -0.095    22.496     6.784
     7   1 H        0.925     0.073     2.054     2.241
     8   1 H        0.925     0.092     1.859     2.132
     9   1 H        0.925     0.064     2.151     2.294
    10   1 H        0.924     0.100     1.787     2.090
    11   1 H        0.924     0.090     1.877     2.143
    12   1 H        0.859     0.227     0.978     1.549
    13   1 H        0.924     0.089     1.889     2.149
    14   1 H        0.924     0.094     1.843     2.123
    15   1 H        0.925     0.071     2.077     2.254
    16   1 H        0.925     0.090     1.881     2.144
    17   1 H        0.925     0.072     2.068     2.249
    18   1 H        0.925     0.101     1.780     2.086
    19   1 H        0.925     0.104     1.747     2.067
    20   1 H        0.925     0.110     1.701     2.039

Wiberg/Mayer (AO) data.
largest (>0.10) Wiberg bond orders for each atom

     #   Z sym  total        # sym  WBO       # sym  WBO       # sym  WBO
 ---------------------------------------------------------------------------
     1   6 C    3.980 --     2 C    1.023     9 H    0.981     7 H    0.980
                             8 H    0.972
     2   6 C    3.923 --     1 C    1.023    11 H    0.967    10 H    0.964
                             3 N    0.928
     3   7 N    3.772 --     6 C    0.962     2 C    0.928     4 C    0.923
                            12 H    0.916
     4   6 C    3.923 --     5 C    1.025    13 H    0.968    14 H    0.966
                             3 N    0.923
     5   6 C    3.979 --     4 C    1.025    15 H    0.980    17 H    0.979
                            16 H    0.971
     6   6 C    3.919 --    18 H    0.975    19 H    0.974    20 H    0.973
                             3 N    0.962
     7   1 H    0.995 --     1 C    0.980
     8   1 H    0.991 --     1 C    0.972
     9   1 H    0.996 --     1 C    0.981
    10   1 H    0.990 --     2 C    0.964
    11   1 H    0.992 --     2 C    0.967
    12   1 H    0.948 --     3 N    0.916
    13   1 H    0.992 --     4 C    0.968
    14   1 H    0.991 --     4 C    0.966
    15   1 H    0.995 --     5 C    0.980
    16   1 H    0.992 --     5 C    0.971
    17   1 H    0.995 --     5 C    0.979
    18   1 H    0.990 --     6 C    0.975
    19   1 H    0.989 --     6 C    0.974
    20   1 H    0.988 --     6 C    0.973
 ---------------------------------------------------------------------------

molecular dipole:
                 x           y           z       tot (Debye)
 q only:        1.017      -3.899       1.979
   full:        1.242      -3.960       1.980      11.689

           -------------------------------------------------
          | TOTAL ENERGY              -20.354254813091 Eh   |
          | GRADIENT NORM               0.000566404795 Eh/α |
          | HOMO-LUMO GAP               9.882806438187 eV   |
           -------------------------------------------------

 * finished run on 2024/12/20 at 07:05:15.865
