   * xtb version 6.7.1 (edcfbbe) compiled by 'conda@3ef47c1a292c' on 2024-11-25

   ID    Z sym.   atoms
    1    8 O      1, 17, 25, 26
    2    6 C      2-9, 11, 12, 14-16, 18-23
    3    7 N      10, 13, 24
    4    1 H      27-44

          program call               : xtb C0950.xyz --opt --namespace C0950 --charge +1
          :  Hamiltonian                  GFN2-xTB          :
 * total energy  :   -74.4255027 Eh     change       -0.8053860E-09 Eh
 * total energy  :   -74.4391045 Eh     change       -0.1360181E-01 Eh
 * total energy  :   -74.4423310 Eh     change       -0.3226481E-02 Eh
 * total energy  :   -74.4429499 Eh     change       -0.6188496E-03 Eh
 * total energy  :   -74.4434319 Eh     change       -0.4820678E-03 Eh
 * total energy  :   -74.4437640 Eh     change       -0.3320959E-03 Eh
 * total energy  :   -74.4439928 Eh     change       -0.2287757E-03 Eh
 * total energy  :   -74.4442397 Eh     change       -0.2468949E-03 Eh
 * total energy  :   -74.4444786 Eh     change       -0.2389501E-03 Eh
 * total energy  :   -74.4447319 Eh     change       -0.2532305E-03 Eh
 * total energy  :   -74.4478112 Eh     change       -0.8959601E-05 Eh
 * total energy  :   -74.4478243 Eh     change       -0.1312146E-04 Eh
 * total energy  :   -74.4478380 Eh     change       -0.1371565E-04 Eh
 * total energy  :   -74.4478476 Eh     change       -0.9556770E-05 Eh
 * total energy  :   -74.4478546 Eh     change       -0.6962600E-05 Eh
 * total energy  :   -74.4478613 Eh     change       -0.6715021E-05 Eh
 * total energy  :   -74.4478699 Eh     change       -0.8602550E-05 Eh
 * total energy  :   -74.4478803 Eh     change       -0.1040074E-04 Eh
 * total energy  :   -74.4478838 Eh     change       -0.3514817E-05 Eh
   *** GEOMETRY OPTIMIZATION CONVERGED AFTER 44 ITERATIONS ***

 final structure:
================
44
 xtb: 6.7.1 (edcfbbe)
O            1.43401490965703        0.84379320996315       -1.26388662232293
C            2.49576322760806        0.44099944236969       -0.85340226120035
C            2.94111692856302       -0.96969664368778       -1.01139054743374
C            3.67006359802269       -1.58391996349274        0.00599830718585
C            4.04589388803644       -2.91043856333513       -0.09519626730920
C            3.70078929723953       -3.63901425871926       -1.22014155046078
C            2.95374614615754       -3.04555571284332       -2.22471203715232
C            2.54903134074133       -1.72192584490641       -2.13068697990107
C            1.67379256654071       -1.14437022499726       -3.22002050618101
N            2.26186951166020        0.02832852622216       -3.83456623844138
C            3.58097789556954        0.13489861135899       -4.17573152048572
C            3.76745729340752        1.38314529322478       -4.67409692413965
N            2.55946778114950        2.01982322273027       -4.63474203357019
C            1.64789115637078        1.18058743489468       -4.12726857638907
C            0.21857997839693        1.47298738879924       -3.92265772413913
C            2.32574651923233        3.37607178753254       -5.05973340222736
O            3.27997665828897        1.30653936045801       -0.18798325180374
C            4.63672532609080        1.17697949717454       -0.01017463989316
C            5.16546756280946        1.59037916979015        1.21031795990647
C            6.53122235508420        1.56195858514365        1.40650536121741
C            7.35714686699387        1.12407141308370        0.37910036454673
C            6.83624557710161        0.72458888534730       -0.84400046184196
C            5.47125387771392        0.75503044246425       -1.04205555773447
N            8.79491397661195        1.09532808033296        0.57631726510881
O            9.21168119969084        1.43930757680886        1.65539729040843
O            9.46880137728026        0.72654520867083       -0.35767858526991
H            3.91936052128027       -1.03016410376091        0.89819216895049
H            4.60300728673647       -3.37199491387858        0.70411080577605
H            3.99844832360419       -4.67139953672492       -1.31207312901772
H            2.66764882592079       -3.62857110625340       -3.08741571578588
H            1.51163467099017       -1.90369629995157       -3.99181463481658
H            0.71072677842624       -0.85906487880140       -2.79166406035083
H            4.26616284338117       -0.67968590300482       -4.05677363800871
H            4.65386446547807        1.85373635622324       -5.04660630441034
H           -0.40188521562978        0.69089234056967       -4.35688402364762
H            0.00961764500284        1.51596192944187       -2.85199248238878
H           -0.05209511303670        2.42432107825362       -4.36852707000551
H            1.60744019516648        3.40345211076879       -5.87992938629768
H            1.94489851137641        3.97390888365814       -4.23114678478780
H            3.26338254835516        3.80692647028251       -5.40282831399166
H            4.49719099741454        1.93182035474940        1.98440238539721
H            6.97037984573405        1.87531234746601        2.34137885061601
H            7.50992273852400        0.40421008455789       -1.62389776466717
H            5.05122731524668        0.46756286196942       -1.99398176303997

          :  Hamiltonian                  GFN2-xTB          :
         :: total energy             -74.447883800177 Eh    ::
         :: gradient norm              0.000254910700 Eh/a0 ::
         :: HOMO-LUMO gap              3.020247922917 eV    ::
         :: SCC energy               -75.494467569238 Eh    ::
         :: -> dispersion             -0.051482577405 Eh    ::
         :: repulsion energy           1.046583769061 Eh    ::

    * Orbital Energies and Occupations

         #    Occupation            Energy/Eh            Energy/eV
      -------------------------------------------------------------
         1        2.0000           -0.8846430             -24.0724
       ...           ...                  ...                  ...
        54        2.0000           -0.5921951             -16.1145
        55        2.0000           -0.5745522             -15.6344
        56        2.0000           -0.5657673             -15.3953
        57        2.0000           -0.5614696             -15.2784
        58        2.0000           -0.5566744             -15.1479
        59        2.0000           -0.5518129             -15.0156
        60        2.0000           -0.5484620             -14.9244
        61        2.0000           -0.5449210             -14.8281
        62        2.0000           -0.5421138             -14.7517
        63        2.0000           -0.5411546             -14.7256
        64        2.0000           -0.5318286             -14.4718
        65        2.0000           -0.5282106             -14.3733
        66        2.0000           -0.5212586             -14.1842 (HOMO)
        67                         -0.4102665             -11.1639 (LUMO)
        68                         -0.3988423             -10.8531
        69                         -0.3896205             -10.6021
        70                         -0.3651905              -9.9373
        71                         -0.3620249              -9.8512
        72                         -0.3607493              -9.8165
        73                         -0.3405545              -9.2670
        74                         -0.3216642              -8.7529
        75                         -0.2338197              -6.3626
        76                         -0.2226627              -6.0590
        77                         -0.1745650              -4.7502
       ...                                ...                  ...
       122                          0.5398537              14.6902
      -------------------------------------------------------------
                  HL-Gap            0.1109921 Eh            3.0202 eV

     #   Z          covCN         q      C6AA      α(0)
     1   8 O        0.857    -0.402    21.711     6.247
     2   6 C        2.708     0.353    21.011     7.503
     3   6 C        2.970    -0.034    28.832     8.808
     4   6 C        2.922    -0.019    28.492     8.753
     5   6 C        2.918    -0.019    28.482     8.752
     6   6 C        2.918    -0.013    28.333     8.729
     7   6 C        2.923    -0.031    28.785     8.798
     8   6 C        2.969     0.013    27.732     8.638
     9   6 C        3.746    -0.028    21.139     6.558
    10   7 N        2.875     0.038    20.582     6.738
    11   6 C        3.047    -0.013    28.292     8.724
    12   6 C        3.047    -0.013    28.294     8.724
    13   7 N        2.872     0.047    20.420     6.712
    14   6 C        3.095     0.117    25.317     8.246
    15   6 C        3.755    -0.146    23.374     6.894
    16   6 C        3.692    -0.080    22.215     6.744
    17   8 O        1.709    -0.227    17.771     5.692
    18   6 C        2.861     0.148    24.772     8.158
    19   6 C        2.919    -0.038    28.954     8.824
    20   6 C        2.919    -0.015    28.396     8.738
    21   6 C        2.917     0.004    27.944     8.668
    22   6 C        2.920    -0.021    28.536     8.760
    23   6 C        2.918    -0.052    29.295     8.876
    24   7 N        2.759     0.554    13.435     5.444
    25   8 O        0.930    -0.360    20.867     6.126
    26   8 O        0.930    -0.372    21.091     6.159
    27   1 H        0.926     0.056     2.251     2.346
    28   1 H        0.926     0.070     2.081     2.256
    29   1 H        0.926     0.073     2.055     2.242
    30   1 H        0.926     0.059     2.205     2.322
    31   1 H        0.924     0.087     1.909     2.161
    32   1 H        0.924     0.112     1.678     2.026
    33   1 H        0.926     0.094     1.845     2.124
    34   1 H        0.926     0.100     1.787     2.090
    35   1 H        0.925     0.098     1.800     2.098
    36   1 H        0.924     0.138     1.477     1.901
    37   1 H        0.925     0.095     1.829     2.115
    38   1 H        0.924     0.097     1.814     2.106
    39   1 H        0.924     0.100     1.783     2.088
    40   1 H        0.925     0.101     1.775     2.084
    41   1 H        0.926     0.088     1.899     2.155
    42   1 H        0.926     0.107     1.726     2.054
    43   1 H        0.926     0.095     1.832     2.117
    44   1 H        0.926     0.041     2.436     2.441

Wiberg/Mayer (AO) data.
largest (>0.10) Wiberg bond orders for each atom

     #   Z sym  total        # sym  WBO       # sym  WBO       # sym  WBO
 ---------------------------------------------------------------------------
     1   8 O    2.035 --     2 C    1.723    17 O    0.146
     2   6 C    3.910 --     1 O    1.723    17 O    1.093     3 C    0.999
     3   6 C    3.985 --     4 C    1.393     8 C    1.354     2 C    0.999
                             6 C    0.103
     4   6 C    3.989 --     5 C    1.444     3 C    1.393    27 H    0.964
                             7 C    0.102
     5   6 C    3.988 --     4 C    1.444     6 C    1.435    28 H    0.966
                             8 C    0.104
     6   6 C    3.985 --     5 C    1.435     7 C    1.429    29 H    0.967
                             3 C    0.103
     7   6 C    3.988 --     8 C    1.433     6 C    1.429    30 H    0.965
                             4 C    0.102
     8   6 C    3.983 --     7 C    1.433     3 C    1.354     9 C    0.996
                             5 C    0.104
     9   6 C    3.942 --     8 C    0.996    10 N    0.965    31 H    0.953
                            32 H    0.947
    10   7 N    3.689 --    14 C    1.326    11 C    1.204     9 C    0.965
    11   6 C    3.950 --    12 C    1.610    10 N    1.204    33 H    0.962
    12   6 C    3.949 --    11 C    1.610    13 N    1.206    34 H    0.962
    13   7 N    3.693 --    14 C    1.325    12 C    1.206    16 C    0.989
    14   6 C    3.949 --    10 N    1.326    13 N    1.325    15 C    1.052
    15   6 C    3.971 --    14 C    1.052    37 H    0.970    35 H    0.954
                            36 H    0.927
    16   6 C    3.937 --    13 N    0.989    40 H    0.975    39 H    0.966
                            38 H    0.965
    17   8 O    2.385 --     2 C    1.093    18 C    0.999     1 O    0.146
    18   6 C    3.920 --    19 C    1.371    23 C    1.371    17 O    0.999
    19   6 C    3.984 --    20 C    1.460    18 C    1.371    41 H    0.962
                            22 C    0.104
    20   6 C    3.979 --    19 C    1.460    21 C    1.386    42 H    0.956
                            23 C    0.102
    21   6 C    3.965 --    22 C    1.388    20 C    1.386    24 N    0.950
    22   6 C    3.983 --    23 C    1.458    21 C    1.388    43 H    0.957
                            19 C    0.104
    23   6 C    3.989 --    22 C    1.458    18 C    1.371    44 H    0.962
                            20 C    0.102
    24   7 N    3.916 --    25 O    1.469    26 O    1.458    21 C    0.950
    25   8 O    1.958 --    24 N    1.469    26 O    0.376
    26   8 O    1.947 --    24 N    1.458    25 O    0.376
    27   1 H    0.996 --     4 C    0.964
    28   1 H    0.994 --     5 C    0.966
    29   1 H    0.994 --     6 C    0.967
    30   1 H    0.996 --     7 C    0.965
    31   1 H    0.992 --     9 C    0.953
    32   1 H    0.987 --     9 C    0.947
    33   1 H    0.991 --    11 C    0.962
    34   1 H    0.990 --    12 C    0.962
    35   1 H    0.990 --    15 C    0.954
    36   1 H    0.981 --    15 C    0.927
    37   1 H    0.990 --    15 C    0.970
    38   1 H    0.990 --    16 C    0.965
    39   1 H    0.990 --    16 C    0.966
    40   1 H    0.989 --    16 C    0.975
    41   1 H    0.992 --    19 C    0.962
    42   1 H    0.988 --    20 C    0.956
    43   1 H    0.991 --    22 C    0.957
    44   1 H    0.998 --    23 C    0.962
 ---------------------------------------------------------------------------

molecular dipole:
                 x           y           z       tot (Debye)
 q only:        3.829       0.823      -7.127
   full:        3.840       0.718      -7.116      20.634

           -------------------------------------------------
          | TOTAL ENERGY              -74.447883800177 Eh   |
          | GRADIENT NORM               0.000254910700 Eh/α |
          | HOMO-LUMO GAP               3.020247922917 eV   |
           -------------------------------------------------

 * finished run on 2024/12/20 at 07:05:14.702
