   * xtb version 6.7.1 (edcfbbe) compiled by 'conda@3ef47c1a292c' on 2024-11-25

   ID    Z sym.   atoms
    1    6 C      1-10, 12-17
    2    7 N      11
    3    1 H      18-53

          program call               : xtb C0962.xyz --opt --namespace C0962 --charge +1
          :  Hamiltonian                  GFN2-xTB          :
 * total energy  :   -55.1494626 Eh     change       -0.1094307E-09 Eh
 * total energy  :   -55.1568405 Eh     change       -0.7377859E-02 Eh
 * total energy  :   -55.1587317 Eh     change       -0.1891248E-02 Eh
 * total energy  :   -55.1588943 Eh     change       -0.1625605E-03 Eh
 * total energy  :   -55.1591523 Eh     change       -0.2580218E-03 Eh
 * total energy  :   -55.1593560 Eh     change       -0.2036523E-03 Eh
 * total energy  :   -55.1596638 Eh     change       -0.3078086E-03 Eh
 * total energy  :   -55.1600578 Eh     change       -0.3940438E-03 Eh
 * total energy  :   -55.1605414 Eh     change       -0.4836044E-03 Eh
 * total energy  :   -55.1610385 Eh     change       -0.4971181E-03 Eh
 * total energy  :   -55.1646345 Eh     change       -0.2988254E-04 Eh
 * total energy  :   -55.1646616 Eh     change       -0.2707109E-04 Eh
 * total energy  :   -55.1646835 Eh     change       -0.2190275E-04 Eh
 * total energy  :   -55.1646982 Eh     change       -0.1472126E-04 Eh
 * total energy  :   -55.1647077 Eh     change       -0.9418525E-05 Eh
 * total energy  :   -55.1647142 Eh     change       -0.6550675E-05 Eh
 * total energy  :   -55.1647206 Eh     change       -0.6417139E-05 Eh
 * total energy  :   -55.1647259 Eh     change       -0.5256715E-05 Eh
 * total energy  :   -55.1647306 Eh     change       -0.4754293E-05 Eh
   *** GEOMETRY OPTIMIZATION CONVERGED AFTER 43 ITERATIONS ***

 final structure:
================
53
 xtb: 6.7.1 (edcfbbe)
C            0.42585811481774        0.96906043648054       -0.19836917843145
C            0.18544811402874       -0.49411764015920       -0.54994632438145
C            0.89445299790852       -1.46519395783634        0.39519893461931
C            0.43814244113884       -1.39479271875626        1.85416292742504
C           -1.05020554351488       -1.66905419614568        2.08065001525668
C           -1.54224953959459       -3.02086706327220        1.55949319979861
C           -0.82159971962916       -4.23829689692883        2.14210239335343
C           -0.91877852766703       -4.38371725946859        3.66292955270215
C           -2.34549793938419       -4.55557645049959        4.19943503866288
C           -3.04385326773060       -5.84204324944020        3.73506193124624
N           -3.15174082613241       -6.94455874105691        4.73585795345422
C           -3.87762085901531       -6.49542464318525        5.97321415336242
C           -5.14230396265254       -5.68163458820388        5.74463805594321
C           -3.93195678819800       -8.09671459880376        4.16172220101656
C           -3.82063106161950       -8.36165995148143        2.66585878274107
C           -1.79900322955927       -7.39514961798944        5.19282635945955
C           -0.93352168583074       -8.11263873574064        4.16968217863246
H           -0.02401067351058        1.22483763494915        0.75767050142263
H           -0.00896891240300        1.61396451478184       -0.95813484876342
H            1.49224640532580        1.17631606787691       -0.14446706169293
H           -0.88741320449746       -0.69553206471887       -0.55841834014051
H            0.55647737561114       -0.67770626879555       -1.56087274503810
H            0.75983952328077       -2.48192348317263        0.01881185524964
H            1.96576328466153       -1.25265211829147        0.36915692665184
H            1.03298764837116       -2.10469389542046        2.43395001384724
H            0.66074647369912       -0.40195889662039        2.24767390949313
H           -1.25589812116288       -1.58933146809548        3.15105990658815
H           -1.63384340517288       -0.88922050968961        1.58969139850198
H           -2.61544899366202       -3.09877814043102        1.75258418349305
H           -1.41650528403006       -3.04774970335079        0.47659764042491
H           -1.21390384823675       -5.13292982963691        1.64956039175223
H            0.23552257194146       -4.17789380656845        1.88288473791787
H           -0.29235515033894       -5.22349301366693        3.97043816914270
H           -0.49845790449033       -3.48960957453950        4.12322329024345
H           -2.31888268437809       -4.48600984232051        5.28636895463335
H           -2.93487243577008       -3.70689899610651        3.85210275453741
H           -4.05941743610284       -5.61703176073304        3.41137495498341
H           -2.50238099274023       -6.23550148762875        2.87719046311175
H           -4.12171603771472       -7.39647859488591        6.54036599140744
H           -3.18956838732518       -5.90411414885189        6.57846171333607
H           -5.85677712741098       -6.17927905937717        5.09443891384449
H           -5.62484553352505       -5.54365797699047        6.70915467946280
H           -4.92608310362110       -4.69620609584136        5.34374511058877
H           -3.62734807761395       -8.98819686813809        4.71275570560756
H           -4.98535871013154       -7.91695876061981        4.37815732084320
H           -2.80193650948541       -8.50984506799949        2.32623337919077
H           -4.36870370203729       -9.27910818905915        2.46266486909194
H           -4.28035843022511       -7.57516359025387        2.07488085424971
H           -1.26925028256158       -6.50978092282708        5.54612774167465
H           -1.95049397583829       -8.05963742637087        6.04690006289371
H           -0.76088052939448       -7.51749563469166        3.27789594062907
H            0.03490963574203       -8.29303782306452        4.63092245872246
H           -1.34121218274493       -9.07867332624986        3.88907002722671

          :  Hamiltonian                  GFN2-xTB          :
         :: total energy             -55.164730639769 Eh    ::
         :: gradient norm              0.000274700489 Eh/a0 ::
         :: HOMO-LUMO gap              6.668846304031 eV    ::
         :: SCC energy               -55.968201234136 Eh    ::
         :: -> dispersion             -0.043633783986 Eh    ::
         :: repulsion energy           0.803470594367 Eh    ::

    * Orbital Energies and Occupations

         #    Occupation            Energy/Eh            Energy/eV
      -------------------------------------------------------------
         1        2.0000           -0.8495984             -23.1187
       ...           ...                  ...                  ...
        40        2.0000           -0.5686697             -15.4743
        41        2.0000           -0.5604979             -15.2519
        42        2.0000           -0.5531078             -15.0508
        43        2.0000           -0.5501796             -14.9711
        44        2.0000           -0.5390447             -14.6682
        45        2.0000           -0.5328641             -14.5000
        46        2.0000           -0.5261873             -14.3183
        47        2.0000           -0.5145021             -14.0003
        48        2.0000           -0.5083216             -13.8321
        49        2.0000           -0.5048700             -13.7382
        50        2.0000           -0.4872776             -13.2595
        51        2.0000           -0.4837016             -13.1622
        52        2.0000           -0.4803963             -13.0722 (HOMO)
        53                         -0.2353207              -6.4034 (LUMO)
        54                         -0.1718452              -4.6761
        55                         -0.1564652              -4.2576
        56                         -0.1526939              -4.1550
        57                         -0.0637683              -1.7352
        58                         -0.0607043              -1.6518
        59                         -0.0509465              -1.3863
        60                         -0.0424024              -1.1538
        61                         -0.0348096              -0.9472
        62                         -0.0313300              -0.8525
        63                         -0.0195977              -0.5333
       ...                                ...                  ...
       104                          0.2439120               6.6372
      -------------------------------------------------------------
                  HL-Gap            0.2450756 Eh            6.6688 eV

     #   Z          covCN         q      C6AA      α(0)
     1   6 C        3.751    -0.104    22.542     6.771
     2   6 C        3.799    -0.053    21.529     6.606
     3   6 C        3.801    -0.059    21.631     6.622
     4   6 C        3.800    -0.059    21.640     6.623
     5   6 C        3.800    -0.059    21.642     6.624
     6   6 C        3.800    -0.061    21.673     6.628
     7   6 C        3.800    -0.062    21.691     6.631
     8   6 C        3.800    -0.068    21.810     6.649
     9   6 C        3.799    -0.072    21.872     6.659
    10   6 C        3.748    -0.038    21.326     6.586
    11   7 N        3.616     0.100    19.515     6.561
    12   6 C        3.764    -0.030    21.144     6.554
    13   6 C        3.751    -0.127    23.004     6.840
    14   6 C        3.754    -0.031    21.185     6.563
    15   6 C        3.750    -0.129    23.043     6.846
    16   6 C        3.758    -0.028    21.128     6.553
    17   6 C        3.751    -0.125    22.954     6.833
    18   1 H        0.925     0.034     2.534     2.489
    19   1 H        0.925     0.036     2.501     2.473
    20   1 H        0.925     0.037     2.487     2.466
    21   1 H        0.924     0.029     2.605     2.524
    22   1 H        0.924     0.031     2.569     2.506
    23   1 H        0.924     0.025     2.652     2.547
    24   1 H        0.924     0.035     2.523     2.484
    25   1 H        0.924     0.025     2.659     2.550
    26   1 H        0.924     0.040     2.454     2.450
    27   1 H        0.924     0.023     2.682     2.561
    28   1 H        0.924     0.041     2.430     2.438
    29   1 H        0.924     0.021     2.712     2.575
    30   1 H        0.924     0.045     2.379     2.412
    31   1 H        0.924     0.018     2.767     2.602
    32   1 H        0.925     0.051     2.302     2.373
    33   1 H        0.924     0.032     2.557     2.501
    34   1 H        0.925     0.058     2.221     2.330
    35   1 H        0.925     0.046     2.368     2.406
    36   1 H        0.925     0.069     2.095     2.263
    37   1 H        0.925     0.081     1.972     2.196
    38   1 H        0.925     0.096     1.819     2.109
    39   1 H        0.924     0.077     2.007     2.216
    40   1 H        0.924     0.082     1.962     2.190
    41   1 H        0.925     0.062     2.172     2.305
    42   1 H        0.925     0.084     1.943     2.180
    43   1 H        0.925     0.072     2.068     2.249
    44   1 H        0.924     0.080     1.975     2.198
    45   1 H        0.924     0.085     1.932     2.173
    46   1 H        0.925     0.069     2.095     2.264
    47   1 H        0.925     0.081     1.967     2.193
    48   1 H        0.925     0.065     2.142     2.289
    49   1 H        0.924     0.086     1.913     2.163
    50   1 H        0.924     0.074     2.041     2.234
    51   1 H        0.925     0.066     2.125     2.279
    52   1 H        0.925     0.080     1.982     2.201
    53   1 H        0.925     0.067     2.121     2.277

Wiberg/Mayer (AO) data.
largest (>0.10) Wiberg bond orders for each atom

     #   Z sym  total        # sym  WBO       # sym  WBO       # sym  WBO
 ---------------------------------------------------------------------------
     1   6 C    3.997 --     2 C    1.020    20 H    0.987    19 H    0.987
                            18 H    0.986
     2   6 C    3.998 --     1 C    1.020     3 C    1.008    22 H    0.978
                            21 H    0.976
     3   6 C    3.997 --     2 C    1.008     4 C    1.008    24 H    0.977
                            23 H    0.976
     4   6 C    3.997 --     3 C    1.008     5 C    1.008    25 H    0.975
                            26 H    0.975
     5   6 C    3.997 --     4 C    1.008     6 C    1.008    27 H    0.975
                            28 H    0.974
     6   6 C    3.996 --     5 C    1.008     7 C    1.007    29 H    0.975
                            30 H    0.973
     7   6 C    3.995 --     8 C    1.008     6 C    1.007    31 H    0.972
                            32 H    0.972
     8   6 C    3.992 --     7 C    1.008     9 C    1.005    33 H    0.973
                            34 H    0.971
     9   6 C    3.986 --     8 C    1.005    10 C    1.002    36 H    0.967
                            35 H    0.966
    10   6 C    3.927 --     9 C    1.002    37 H    0.968    38 H    0.954
                            11 N    0.930
    11   7 N    3.796 --    16 C    0.933    10 C    0.930    12 C    0.929
                            14 C    0.926
    12   6 C    3.939 --    13 C    1.023    39 H    0.969    40 H    0.964
                            11 N    0.929
    13   6 C    3.982 --    12 C    1.023    43 H    0.981    41 H    0.976
                            42 H    0.972
    14   6 C    3.936 --    15 C    1.022    44 H    0.968    45 H    0.964
                            11 N    0.926
    15   6 C    3.982 --    14 C    1.022    48 H    0.982    46 H    0.977
                            47 H    0.972
    16   6 C    3.938 --    17 C    1.022    50 H    0.969    49 H    0.962
                            11 N    0.933
    17   6 C    3.983 --    16 C    1.022    53 H    0.980    51 H    0.977
                            52 H    0.973
    18   1 H    0.999 --     1 C    0.986
    19   1 H    0.999 --     1 C    0.987
    20   1 H    0.999 --     1 C    0.987
    21   1 H    0.999 --     2 C    0.976
    22   1 H    0.999 --     2 C    0.978
    23   1 H    0.999 --     3 C    0.976
    24   1 H    0.999 --     3 C    0.977
    25   1 H    0.999 --     4 C    0.975
    26   1 H    0.998 --     4 C    0.975
    27   1 H    0.999 --     5 C    0.975
    28   1 H    0.998 --     5 C    0.974
    29   1 H    1.000 --     6 C    0.975
    30   1 H    0.998 --     6 C    0.973
    31   1 H    1.000 --     7 C    0.972
    32   1 H    0.997 --     7 C    0.972
    33   1 H    0.999 --     8 C    0.973
    34   1 H    0.996 --     8 C    0.971
    35   1 H    0.998 --     9 C    0.966
    36   1 H    0.995 --     9 C    0.967
    37   1 H    0.993 --    10 C    0.968
    38   1 H    0.991 --    10 C    0.954
    39   1 H    0.994 --    12 C    0.969
    40   1 H    0.993 --    12 C    0.964
    41   1 H    0.996 --    13 C    0.976
    42   1 H    0.993 --    13 C    0.972
    43   1 H    0.995 --    13 C    0.981
    44   1 H    0.993 --    14 C    0.968
    45   1 H    0.993 --    14 C    0.964
    46   1 H    0.995 --    15 C    0.977
    47   1 H    0.993 --    15 C    0.972
    48   1 H    0.996 --    15 C    0.982
    49   1 H    0.992 --    16 C    0.962
    50   1 H    0.994 --    16 C    0.969
    51   1 H    0.996 --    17 C    0.977
    52   1 H    0.993 --    17 C    0.973
    53   1 H    0.995 --    17 C    0.980
 ---------------------------------------------------------------------------

molecular dipole:
                 x           y           z       tot (Debye)
 q only:       -5.665     -12.613       8.426
   full:       -5.717     -12.705       8.571      41.578

           -------------------------------------------------
          | TOTAL ENERGY              -55.164730639769 Eh   |
          | GRADIENT NORM               0.000274700489 Eh/α |
          | HOMO-LUMO GAP               6.668846304031 eV   |
           -------------------------------------------------

 * finished run on 2024/12/20 at 07:06:11.128
