   * xtb version 6.7.1 (edcfbbe) compiled by 'conda@3ef47c1a292c' on 2024-11-25

   ID    Z sym.   atoms
    1    6 C      1-3, 5-13
    2    7 N      4
    3    1 H      14-31

          program call               : xtb C0964.xyz --opt --namespace C0964 --charge +1
          :  Hamiltonian                  GFN2-xTB          :
 * total energy  :   -37.1880197 Eh     change       -0.7408190E-09 Eh
 * total energy  :   -37.2157323 Eh     change       -0.2771253E-01 Eh
 * total energy  :   -37.2199524 Eh     change       -0.4220121E-02 Eh
 * total energy  :   -37.2206198 Eh     change       -0.6673871E-03 Eh
 * total energy  :   -37.2210039 Eh     change       -0.3841835E-03 Eh
 * total energy  :   -37.2211874 Eh     change       -0.1834699E-03 Eh
 * total energy  :   -37.2212848 Eh     change       -0.9735605E-04 Eh
 * total energy  :   -37.2213714 Eh     change       -0.8662359E-04 Eh
 * total energy  :   -37.2214262 Eh     change       -0.5481213E-04 Eh
 * total energy  :   -37.2214610 Eh     change       -0.3476750E-04 Eh
 * total energy  :   -37.2214950 Eh     change       -0.3400798E-04 Eh
 * total energy  :   -37.2215106 Eh     change       -0.1556957E-04 Eh
 * total energy  :   -37.2215205 Eh     change       -0.9996562E-05 Eh
 * total energy  :   -37.2215374 Eh     change       -0.1684744E-04 Eh
 * total energy  :   -37.2215504 Eh     change       -0.1298462E-04 Eh
 * total energy  :   -37.2215609 Eh     change       -0.1049967E-04 Eh
 * total energy  :   -37.2215590 Eh     change        0.1893648E-05 Eh
 * total energy  :   -37.2215666 Eh     change       -0.7647730E-05 Eh
 * total energy  :   -37.2215697 Eh     change       -0.3104187E-05 Eh
   *** GEOMETRY OPTIMIZATION CONVERGED AFTER 19 ITERATIONS ***

 final structure:
================
31
 xtb: 6.7.1 (edcfbbe)
C            1.04964648056176       -0.07985760494638        0.39373693128375
C            0.16947036485630       -1.02633863914719        0.66466230189234
C           -1.27076282035605       -0.94972119045022        0.24719058097190
N           -1.65590963175240       -1.94558711382908       -0.80209516428898
C           -1.20849672975114       -3.31726304628752       -0.40467955952725
C           -1.68682557473586       -3.69845858899884        0.90960245376406
C           -2.06774542608298       -4.01719668659819        1.99867599421701
C           -3.14612397184791       -2.00557692461434       -0.94550953661136
C           -3.87459557158526       -0.70451656731656       -1.10679250248563
C           -4.74693287389949       -0.49107594685951       -2.07594253496181
C           -0.98040307000630       -1.61306513801640       -2.09317976253545
C           -1.20425948456771       -0.21491124043230       -2.58947271227754
C           -0.21011330469723        0.59289201542732       -2.90949036742446
H            0.79086301597784        0.79665568347539       -0.17734654999395
H            2.06364961902300       -0.13682681675916        0.74823431378159
H            0.44670061700029       -1.87587995475862        1.27260432275148
H           -1.90426356952569       -1.13263146934100        1.11896171205638
H           -1.47495740028619        0.04314301520248       -0.15598445574872
H           -1.57914629530956       -4.03287418291378       -1.14534983599256
H           -0.11586907659766       -3.34929793499629       -0.41168864143389
H           -2.39521490308805       -4.31690971833115        2.95074880784752
H           -3.37251772580424       -2.64987981444458       -1.79895477853754
H           -3.52141123900059       -2.49469971508247       -0.03843255214059
H           -3.73279801862225        0.03309503540743       -0.33091359353897
H           -5.31394513266637        0.42139904790217       -2.13005140532982
H           -4.93901455590491       -1.21643642629744       -2.84961457490425
H            0.09322922004917       -1.76438935178268       -1.95436326143705
H           -1.33824640980454       -2.32338161421844       -2.84517217637008
H           -2.22984298762157        0.08769230044300       -2.73340636496917
H           -0.39155157529702        1.57304371708344       -3.31321497963486
H            0.82302803134197        0.30512487147943       -2.80082210842849

          :  Hamiltonian                  GFN2-xTB          :
         :: total energy             -37.221569737161 Eh    ::
         :: gradient norm              0.000714486301 Eh/a0 ::
         :: HOMO-LUMO gap              4.997724394969 eV    ::
         :: SCC energy               -37.915138009663 Eh    ::
         :: -> dispersion             -0.027902498488 Eh    ::
         :: repulsion energy           0.693568272502 Eh    ::

    * Orbital Energies and Occupations

         #    Occupation            Energy/Eh            Energy/eV
      -------------------------------------------------------------
         1        2.0000           -0.8565966             -23.3092
       ...           ...                  ...                  ...
        23        2.0000           -0.6297544             -17.1365
        24        2.0000           -0.6233844             -16.9632
        25        2.0000           -0.6095157             -16.5858
        26        2.0000           -0.6087091             -16.5638
        27        2.0000           -0.6023986             -16.3921
        28        2.0000           -0.5803450             -15.7920
        29        2.0000           -0.5777700             -15.7219
        30        2.0000           -0.5758764             -15.6704
        31        2.0000           -0.5717130             -15.5571
        32        2.0000           -0.5644771             -15.3602
        33        2.0000           -0.5579270             -15.1820
        34        2.0000           -0.5542504             -15.0819
        35        2.0000           -0.5492506             -14.9459 (HOMO)
        36                         -0.3655876              -9.9481 (LUMO)
        37                         -0.3557233              -9.6797
        38                         -0.3522282              -9.5846
        39                         -0.3210616              -8.7365
        40                         -0.3025857              -8.2338
        41                         -0.2078273              -5.6553
        42                         -0.1543024              -4.1988
        43                         -0.1465434              -3.9877
        44                         -0.1373893              -3.7386
        45                         -0.0798527              -2.1729
        46                         -0.0448165              -1.2195
       ...                                ...                  ...
        70                          1.2793093              34.8118
      -------------------------------------------------------------
                  HL-Gap            0.1836630 Eh            4.9977 eV

     #   Z          covCN         q      C6AA      α(0)
     1   6 C        2.838    -0.078    29.943     8.967
     2   6 C        2.884    -0.045    29.123     8.847
     3   6 C        3.758    -0.031    21.173     6.560
     4   7 N        3.621     0.110    19.345     6.533
     5   6 C        3.770    -0.015    20.877     6.511
     6   6 C        1.963    -0.028    31.807     9.108
     7   6 C        1.909    -0.071    33.041     9.283
     8   6 C        3.763    -0.031    21.176     6.560
     9   6 C        2.884    -0.042    29.033     8.834
    10   6 C        2.838    -0.078    29.942     8.967
    11   6 C        3.763    -0.030    21.149     6.555
    12   6 C        2.884    -0.045    29.124     8.847
    13   6 C        2.838    -0.079    29.954     8.969
    14   1 H        0.926     0.066     2.130     2.282
    15   1 H        0.926     0.079     1.986     2.204
    16   1 H        0.926     0.061     2.182     2.310
    17   1 H        0.924     0.088     1.897     2.154
    18   1 H        0.924     0.091     1.868     2.138
    19   1 H        0.924     0.096     1.822     2.111
    20   1 H        0.924     0.103     1.759     2.074
    21   1 H        0.928     0.125     1.570     1.960
    22   1 H        0.924     0.083     1.944     2.180
    23   1 H        0.924     0.091     1.872     2.140
    24   1 H        0.926     0.059     2.210     2.325
    25   1 H        0.926     0.080     1.982     2.202
    26   1 H        0.926     0.066     2.129     2.282
    27   1 H        0.924     0.085     1.932     2.174
    28   1 H        0.924     0.082     1.961     2.190
    29   1 H        0.926     0.063     2.168     2.302
    30   1 H        0.926     0.079     1.990     2.206
    31   1 H        0.926     0.066     2.135     2.285

Wiberg/Mayer (AO) data.
largest (>0.10) Wiberg bond orders for each atom

     #   Z sym  total        # sym  WBO       # sym  WBO       # sym  WBO
 ---------------------------------------------------------------------------
     1   6 C    3.983 --     2 C    1.981    15 H    0.972    14 H    0.971
     2   6 C    3.982 --     1 C    1.981     3 C    1.016    16 H    0.962
     3   6 C    3.932 --     2 C    1.016    18 H    0.959    17 H    0.957
                             4 N    0.920
     4   7 N    3.801 --    11 C    0.927     8 C    0.924     5 C    0.924
                             3 C    0.920
     5   6 C    3.943 --     6 C    1.048    19 H    0.948    20 H    0.944
                             4 N    0.924
     6   6 C    3.977 --     7 C    2.894     5 C    1.048
     7   6 C    3.962 --     6 C    2.894    21 H    0.961
     8   6 C    3.934 --     9 C    1.019    22 H    0.963    23 H    0.947
                             4 N    0.924
     9   6 C    3.983 --    10 C    1.972     8 C    1.019    24 H    0.961
    10   6 C    3.982 --     9 C    1.972    26 H    0.972    25 H    0.972
    11   6 C    3.936 --    12 C    1.016    27 H    0.962    28 H    0.956
                             4 N    0.927
    12   6 C    3.981 --    13 C    1.978    11 C    1.016    29 H    0.956
    13   6 C    3.983 --    12 C    1.978    30 H    0.972    31 H    0.971
    14   1 H    0.996 --     1 C    0.971
    15   1 H    0.993 --     1 C    0.972
    16   1 H    0.996 --     2 C    0.962
    17   1 H    0.992 --     3 C    0.957
    18   1 H    0.992 --     3 C    0.959
    19   1 H    0.991 --     5 C    0.948
    20   1 H    0.989 --     5 C    0.944
    21   1 H    0.984 --     7 C    0.961
    22   1 H    0.992 --     8 C    0.963
    23   1 H    0.992 --     8 C    0.947
    24   1 H    0.997 --     9 C    0.961
    25   1 H    0.993 --    10 C    0.972
    26   1 H    0.996 --    10 C    0.972
    27   1 H    0.993 --    11 C    0.962
    28   1 H    0.993 --    11 C    0.956
    29   1 H    0.996 --    12 C    0.956
    30   1 H    0.993 --    13 C    0.972
    31   1 H    0.995 --    13 C    0.971
 ---------------------------------------------------------------------------

molecular dipole:
                 x           y           z       tot (Debye)
 q only:       -3.028      -3.170      -1.491
   full:       -3.065      -3.326      -1.499      12.111

           -------------------------------------------------
          | TOTAL ENERGY              -37.221569737161 Eh   |
          | GRADIENT NORM               0.000714486301 Eh/α |
          | HOMO-LUMO GAP               4.997724394969 eV   |
           -------------------------------------------------

 * finished run on 2024/12/20 at 07:06:12.302
