   * xtb version 6.7.1 (edcfbbe) compiled by 'conda@3ef47c1a292c' on 2024-11-25

   ID    Z sym.   atoms
    1    8 O      1
    2    6 C      2-9, 11-15
    3    7 N      10
    4    1 H      16-33

          program call               : xtb C0965.xyz --opt --namespace C0965 --charge +1
          :  Hamiltonian                  GFN2-xTB          :
 * total energy  :   -43.5933148 Eh     change       -0.2464375E-09 Eh
 * total energy  :   -43.5982037 Eh     change       -0.4888898E-02 Eh
 * total energy  :   -43.5995528 Eh     change       -0.1349108E-02 Eh
 * total energy  :   -43.5998413 Eh     change       -0.2884497E-03 Eh
 * total energy  :   -43.6000143 Eh     change       -0.1730295E-03 Eh
 * total energy  :   -43.6001368 Eh     change       -0.1224871E-03 Eh
 * total energy  :   -43.6003508 Eh     change       -0.2139845E-03 Eh
 * total energy  :   -43.6006407 Eh     change       -0.2899597E-03 Eh
 * total energy  :   -43.6009816 Eh     change       -0.3408391E-03 Eh
 * total energy  :   -43.6014785 Eh     change       -0.4969556E-03 Eh
 * total energy  :   -43.6108679 Eh     change       -0.2455969E-04 Eh
 * total energy  :   -43.6108877 Eh     change       -0.1982747E-04 Eh
 * total energy  :   -43.6109016 Eh     change       -0.1381616E-04 Eh
 * total energy  :   -43.6109027 Eh     change       -0.1156898E-05 Eh
 * total energy  :   -43.6109092 Eh     change       -0.6462117E-05 Eh
 * total energy  :   -43.6109089 Eh     change        0.3053205E-06 Eh
 * total energy  :   -43.6109142 Eh     change       -0.5313286E-05 Eh
 * total energy  :   -43.6109149 Eh     change       -0.7562029E-06 Eh
 * total energy  :   -43.6109166 Eh     change       -0.1661296E-05 Eh
   *** GEOMETRY OPTIMIZATION CONVERGED AFTER 44 ITERATIONS ***

 final structure:
================
33
 xtb: 6.7.1 (edcfbbe)
O            1.42037350792204       -0.76287070558588        1.00829588142967
C            2.56990875250235       -0.42477359661676        0.98033278021641
C            3.09059331868107        0.95458203984778        1.21580022425151
C            2.21717279904504        1.98930990612703        0.49118508671580
C            2.69756950918925        3.40111492167447        0.80806757179970
C            2.66370469672339        3.65594048859070        2.31088950450003
C            3.51969658322091        2.62704041070953        3.04076281708285
C            3.03716608206597        1.21200851247101        2.73788408312046
C            3.67121953909141       -1.51307709194067        0.75327476679090
N            3.03407273326110       -2.71834679167393        0.30458492618265
C            3.17356599518623       -3.14294433092019       -0.96072367135280
C            2.42827193787921       -4.19327080311953       -1.44519133124249
C            1.49354884305530       -4.80612699071135       -0.61616808617159
C            1.35707455247155       -4.34863573796306        0.68555659988830
C            2.14120885392752       -3.29881499481424        1.12116826020082
H            4.12780276579050        1.04279182742221        0.88188332696537
H            2.25853612425087        1.81316358538207       -0.58560898876274
H            1.18278199994544        1.86586326742083        0.81443646788626
H            2.05899165379941        4.11913791539593        0.29346793224028
H            3.71608591291661        3.53382707544894        0.43676332931730
H            1.63436201587394        3.59335343670212        2.66825419491481
H            3.03184180095709        4.65921020174635        2.52462099885345
H            3.46937461720240        2.79414491429106        4.11716033704913
H            4.56221649091405        2.73186239277526        2.73337386470702
H            2.00808332310621        1.09301542685219        3.08050933047210
H            3.66284600965972        0.48621335736406        3.26276590318850
H            4.40407879381544       -1.16570601425938        0.02527930096959
H            4.16761873651385       -1.66531851480979        1.71594448140254
H            3.89541092862132       -2.63013575467417       -1.57903796014387
H            2.56874160697962       -4.52126126985471       -2.46259516708428
H            0.88843406040529       -5.62091151265061       -0.98075518128282
H            0.64641239389108       -4.79528450631539        1.36202756502188
H            2.07413306112359       -2.92920106431367        2.13254085086569

          :  Hamiltonian                  GFN2-xTB          :
         :: total energy             -43.610916595098 Eh    ::
         :: gradient norm              0.000342711208 Eh/a0 ::
         :: HOMO-LUMO gap              1.835048240317 eV    ::
         :: SCC energy               -44.269823332074 Eh    ::
         :: -> dispersion             -0.027899717855 Eh    ::
         :: repulsion energy           0.658906736977 Eh    ::

    * Orbital Energies and Occupations

         #    Occupation            Energy/Eh            Energy/eV
      -------------------------------------------------------------
         1        2.0000           -0.8775955             -23.8806
       ...           ...                  ...                  ...
        28        2.0000           -0.6155023             -16.7487
        29        2.0000           -0.6101386             -16.6027
        30        2.0000           -0.6080088             -16.5448
        31        2.0000           -0.6022762             -16.3888
        32        2.0000           -0.5857902             -15.9402
        33        2.0000           -0.5829631             -15.8632
        34        2.0000           -0.5752579             -15.6536
        35        2.0000           -0.5586327             -15.2012
        36        2.0000           -0.5555232             -15.1166
        37        2.0000           -0.5436878             -14.7945
        38        2.0000           -0.5214477             -14.1893
        39        2.0000           -0.5206483             -14.1676
        40        2.0000           -0.5194405             -14.1347 (HOMO)
        41                         -0.4520037             -12.2996 (LUMO)
        42                         -0.4198773             -11.4254
        43                         -0.4028244             -10.9614
        44                         -0.3007774              -8.1846
        45                         -0.1613340              -4.3901
        46                         -0.1128238              -3.0701
        47                         -0.0743107              -2.0221
        48                         -0.0416633              -1.1337
        49                         -0.0341916              -0.9304
        50                         -0.0237178              -0.6454
        51                         -0.0202565              -0.5512
       ...                                ...                  ...
        78                          0.4998267              13.6010
      -------------------------------------------------------------
                  HL-Gap            0.0674368 Eh            1.8350 eV

     #   Z          covCN         q      C6AA      α(0)
     1   8 O        0.857    -0.320    20.143     6.017
     2   6 C        2.820     0.236    23.068     7.870
     3   6 C        3.857    -0.038    21.205     6.549
     4   6 C        3.809    -0.055    21.559     6.609
     5   6 C        3.806    -0.061    21.667     6.626
     6   6 C        3.806    -0.064    21.728     6.636
     7   6 C        3.806    -0.059    21.638     6.622
     8   6 C        3.812    -0.051    21.473     6.596
     9   6 C        3.764    -0.062    21.731     6.645
    10   7 N        2.751     0.116    19.262     6.518
    11   6 C        2.888     0.030    27.335     8.572
    12   6 C        2.915    -0.010    28.267     8.718
    13   6 C        2.925     0.013    27.725     8.635
    14   6 C        2.915    -0.007    28.197     8.707
    15   6 C        2.896     0.042    27.052     8.528
    16   1 H        0.924     0.054     2.268     2.355
    17   1 H        0.924     0.038     2.472     2.459
    18   1 H        0.924     0.064     2.156     2.296
    19   1 H        0.925     0.053     2.279     2.361
    20   1 H        0.924     0.043     2.414     2.430
    21   1 H        0.924     0.047     2.360     2.402
    22   1 H        0.925     0.051     2.312     2.378
    23   1 H        0.924     0.054     2.269     2.356
    24   1 H        0.924     0.045     2.387     2.416
    25   1 H        0.924     0.059     2.208     2.324
    26   1 H        0.924     0.031     2.577     2.510
    27   1 H        0.925     0.103     1.761     2.075
    28   1 H        0.924     0.112     1.682     2.028
    29   1 H        0.926     0.102     1.763     2.076
    30   1 H        0.926     0.107     1.724     2.053
    31   1 H        0.926     0.106     1.727     2.055
    32   1 H        0.926     0.109     1.704     2.041
    33   1 H        0.926     0.113     1.674     2.023

Wiberg/Mayer (AO) data.
largest (>0.10) Wiberg bond orders for each atom

     #   Z sym  total        # sym  WBO       # sym  WBO       # sym  WBO
 ---------------------------------------------------------------------------
     1   8 O    2.155 --     2 C    1.880
     2   6 C    3.912 --     1 O    1.880     3 C    0.999     9 C    0.903
     3   6 C    3.980 --     2 C    0.999     4 C    0.968    16 H    0.963
                             8 C    0.938
     4   6 C    3.985 --     5 C    1.005    17 H    0.977    18 H    0.973
                             3 C    0.968
     5   6 C    3.992 --     6 C    1.009     4 C    1.005    20 H    0.976
                            19 H    0.972
     6   6 C    3.995 --     7 C    1.010     5 C    1.009    21 H    0.976
                            22 H    0.975
     7   6 C    3.991 --     6 C    1.010     8 C    1.001    24 H    0.976
                            23 H    0.969
     8   6 C    3.986 --     7 C    1.001    26 H    0.977    25 H    0.975
                             3 C    0.938
     9   6 C    3.946 --    10 N    1.000    27 H    0.956    28 H    0.937
                             2 C    0.903
    10   7 N    3.759 --    15 C    1.304    11 C    1.301     9 C    1.000
    11   6 C    3.955 --    12 C    1.482    10 N    1.301    29 H    0.955
    12   6 C    3.981 --    11 C    1.482    13 C    1.403    30 H    0.959
    13   6 C    3.963 --    14 C    1.434    12 C    1.403    31 H    0.961
    14   6 C    3.981 --    15 C    1.450    13 C    1.434    32 H    0.959
    15   6 C    3.952 --    14 C    1.450    10 N    1.304    33 H    0.955
    16   1 H    0.997 --     3 C    0.963
    17   1 H    0.998 --     4 C    0.977
    18   1 H    0.996 --     4 C    0.973
    19   1 H    0.996 --     5 C    0.972
    20   1 H    0.998 --     5 C    0.976
    21   1 H    0.998 --     6 C    0.976
    22   1 H    0.996 --     6 C    0.975
    23   1 H    0.996 --     7 C    0.969
    24   1 H    0.998 --     7 C    0.976
    25   1 H    0.996 --     8 C    0.975
    26   1 H    0.999 --     8 C    0.977
    27   1 H    0.989 --     9 C    0.956
    28   1 H    0.987 --     9 C    0.937
    29   1 H    0.989 --    11 C    0.955
    30   1 H    0.988 --    12 C    0.959
    31   1 H    0.989 --    13 C    0.961
    32   1 H    0.988 --    14 C    0.959
    33   1 H    0.987 --    15 C    0.955
 ---------------------------------------------------------------------------

molecular dipole:
                 x           y           z       tot (Debye)
 q only:        5.681      -4.237       0.707
   full:        5.910      -4.345       0.672      18.722

           -------------------------------------------------
          | TOTAL ENERGY              -43.610916595098 Eh   |
          | GRADIENT NORM               0.000342711208 Eh/α |
          | HOMO-LUMO GAP               1.835048240317 eV   |
           -------------------------------------------------

 * finished run on 2024/12/20 at 07:06:13.605
