   * xtb version 6.7.1 (edcfbbe) compiled by 'conda@3ef47c1a292c' on 2024-11-25

   ID    Z sym.   atoms
    1    6 C      1-9, 11, 12, 14-23
    2    7 N      10, 13
    3    1 H      24-48

          program call               : xtb C0967.xyz --opt --namespace C0967 --charge +1
          :  Hamiltonian                  GFN2-xTB          :
 * total energy  :   -63.2300515 Eh     change       -0.5133387E-09 Eh
 * total energy  :   -63.2366222 Eh     change       -0.6570692E-02 Eh
 * total energy  :   -63.2378765 Eh     change       -0.1254260E-02 Eh
 * total energy  :   -63.2381066 Eh     change       -0.2301429E-03 Eh
 * total energy  :   -63.2382403 Eh     change       -0.1336928E-03 Eh
 * total energy  :   -63.2382953 Eh     change       -0.5493241E-04 Eh
 * total energy  :   -63.2383732 Eh     change       -0.7791098E-04 Eh
 * total energy  :   -63.2384389 Eh     change       -0.6570579E-04 Eh
 * total energy  :   -63.2384981 Eh     change       -0.5919855E-04 Eh
 * total energy  :   -63.2385401 Eh     change       -0.4205067E-04 Eh
 * total energy  :   -63.2386612 Eh     change       -0.1221836E-04 Eh
 * total energy  :   -63.2386728 Eh     change       -0.1155705E-04 Eh
 * total energy  :   -63.2386861 Eh     change       -0.1333863E-04 Eh
 * total energy  :   -63.2387053 Eh     change       -0.1922106E-04 Eh
 * total energy  :   -63.2387286 Eh     change       -0.2322619E-04 Eh
 * total energy  :   -63.2387402 Eh     change       -0.1163635E-04 Eh
 * total energy  :   -63.2387490 Eh     change       -0.8800344E-05 Eh
 * total energy  :   -63.2387558 Eh     change       -0.6808774E-05 Eh
 * total energy  :   -63.2387600 Eh     change       -0.4202569E-05 Eh
   *** GEOMETRY OPTIMIZATION CONVERGED AFTER 25 ITERATIONS ***

 final structure:
================
48
 xtb: 6.7.1 (edcfbbe)
C            2.12857773800103        1.86465966615665        0.03306031462003
C            1.01480960838640        0.87078351606642        0.02311525761422
C           -0.30478890931851        1.29743182888583        0.12229966644990
C           -1.36224791569966        0.40302343393972        0.12981421209441
C           -2.77094778537963        0.90201847525860        0.24974358581308
C           -1.06884798422624       -0.96010173592032        0.03344388453325
C            0.24334776600387       -1.42589603306579       -0.06519789384552
C            1.26783451269680       -0.49067556454460       -0.06906994935032
C            0.56071372259283       -2.88666151296663       -0.17016112804291
N           -2.13952506180370       -1.90108499538997        0.04466584825744
C           -2.37176658325057       -2.83611939451900        1.00923457364083
C           -3.49354629925126       -3.51820484747760        0.65035880976564
N           -3.92920411613008       -2.99068480328379       -0.52883052012952
C           -3.09433536570686       -2.01415258508263       -0.87517609810016
C           -5.07083524455856       -3.42062532787383       -1.26625020362782
C           -6.33991673730274       -3.26972311546612       -0.70078100972258
C           -6.53471327092394       -2.65965362622830        0.65412184267010
C           -7.43333686421097       -3.69852137682670       -1.43506189389446
C           -7.29208132264217       -4.26564641718109       -2.69650427347393
C           -6.01584232242884       -4.40152170778175       -3.22494715560378
C           -4.88975880136967       -3.98673278422816       -2.52943733574306
C           -3.52817479610092       -4.16039989764436       -3.13225827015753
C           -8.49461484857231       -4.72672196934374       -3.45131489276341
H            1.91220879625978        2.69002847298396       -0.64160461606027
H            2.24497965970083        2.27952876953706        1.03386832828845
H            3.06861679900547        1.40552247909556       -0.25844148266118
H           -0.51307125195046        2.35369296062259        0.19945119034900
H           -2.77649163319114        1.88201306932566        0.71833822924144
H           -3.22848641655555        1.00722594526162       -0.73405170533925
H           -3.38890042017683        0.23451772007489        0.84788141369191
H            2.28687201416661       -0.83733241630860       -0.14794181732934
H            0.64623050856077       -3.33040411047393        0.82175245990102
H           -0.19981710536577       -3.43320324571393       -0.72447495780688
H            1.51479293858785       -3.02348755626068       -0.67143204780017
H           -1.74196007779805       -2.93849152156442        1.86831513012619
H           -3.99561374198650       -4.33116891623460        1.13217832453928
H           -3.17781714670241       -1.41277791440380       -1.75791379613890
H           -7.53593578309153       -2.24573668831515        0.73364422241087
H           -6.43053109636843       -3.41556502154594        1.43241605482849
H           -5.81797091365647       -1.86483513542284        0.85189936889020
H           -8.42113543666599       -3.58683989514607       -1.01456565593316
H           -5.88983778266789       -4.84362383004543       -4.20141138493686
H           -3.54709067025051       -4.96663948818182       -3.86008958655437
H           -3.22007511792266       -3.25495501150095       -3.65534384398585
H           -2.77707090746465       -4.39702066351023       -2.38066113576143
H           -8.92302475564284       -5.60352823478653       -2.96698129235400
H           -9.25863945505501       -3.95227797326524       -3.46291222595311
H           -8.24114012257200       -4.98862101970665       -4.47432654465385

          :  Hamiltonian                  GFN2-xTB          :
         :: total energy             -63.238760017177 Eh    ::
         :: gradient norm              0.000262825432 Eh/a0 ::
         :: HOMO-LUMO gap              3.211120251363 eV    ::
         :: SCC energy               -64.347040552508 Eh    ::
         :: -> dispersion             -0.050571431902 Eh    ::
         :: repulsion energy           1.108280535332 Eh    ::

    * Orbital Energies and Occupations

         #    Occupation            Energy/Eh            Energy/eV
      -------------------------------------------------------------
         1        2.0000           -0.8703515             -23.6835
       ...           ...                  ...                  ...
        47        2.0000           -0.5656849             -15.3931
        48        2.0000           -0.5572301             -15.1630
        49        2.0000           -0.5568683             -15.1532
        50        2.0000           -0.5526690             -15.0389
        51        2.0000           -0.5506475             -14.9839
        52        2.0000           -0.5419955             -14.7484
        53        2.0000           -0.5405469             -14.7090
        54        2.0000           -0.5344690             -14.5436
        55        2.0000           -0.5330950             -14.5063
        56        2.0000           -0.5078273             -13.8187
        57        2.0000           -0.5076656             -13.8143
        58        2.0000           -0.5063160             -13.7776
        59        2.0000           -0.5055495             -13.7567 (HOMO)
        60                         -0.3875430             -10.5456 (LUMO)
        61                         -0.3547585              -9.6535
        62                         -0.3357305              -9.1357
        63                         -0.3357062              -9.1350
        64                         -0.3345690              -9.1041
        65                         -0.3340570              -9.0902
        66                         -0.2141484              -5.8273
        67                         -0.2123629              -5.7787
        68                         -0.1525333              -4.1506
        69                         -0.1016772              -2.7668
        70                         -0.0377796              -1.0280
       ...                                ...                  ...
       117                          0.5336691              14.5219
      -------------------------------------------------------------
                  HL-Gap            0.1180065 Eh            3.2111 eV

     #   Z          covCN         q      C6AA      α(0)
     1   6 C        3.759    -0.121    22.860     6.816
     2   6 C        2.962     0.033    27.257     8.563
     3   6 C        2.933    -0.049    29.207     8.863
     4   6 C        2.962     0.011    27.769     8.644
     5   6 C        3.757    -0.116    22.763     6.802
     6   6 C        2.926     0.010    27.797     8.646
     7   6 C        2.963     0.014    27.707     8.634
     8   6 C        2.933    -0.048    29.198     8.862
     9   6 C        3.757    -0.116    22.765     6.802
    10   7 N        2.874     0.064    20.129     6.663
    11   6 C        3.070    -0.005    28.078     8.688
    12   6 C        3.070    -0.005    28.077     8.688
    13   7 N        2.874     0.064    20.129     6.663
    14   6 C        3.097     0.055    26.660     8.462
    15   6 C        2.926     0.010    27.797     8.646
    16   6 C        2.962     0.013    27.715     8.635
    17   6 C        3.757    -0.116    22.766     6.803
    18   6 C        2.934    -0.049    29.211     8.864
    19   6 C        2.962     0.033    27.258     8.564
    20   6 C        2.933    -0.048    29.194     8.861
    21   6 C        2.963     0.011    27.762     8.642
    22   6 C        3.757    -0.115    22.763     6.802
    23   6 C        3.759    -0.121    22.860     6.816
    24   1 H        0.925     0.066     2.135     2.285
    25   1 H        0.925     0.070     2.083     2.257
    26   1 H        0.925     0.060     2.198     2.319
    27   1 H        0.926     0.061     2.190     2.314
    28   1 H        0.925     0.069     2.096     2.264
    29   1 H        0.925     0.055     2.257     2.350
    30   1 H        0.925     0.038     2.475     2.460
    31   1 H        0.926     0.061     2.192     2.315
    32   1 H        0.925     0.062     2.181     2.310
    33   1 H        0.925     0.038     2.478     2.462
    34   1 H        0.925     0.068     2.108     2.271
    35   1 H        0.927     0.097     1.809     2.103
    36   1 H        0.927     0.097     1.810     2.104
    37   1 H        0.926     0.103     1.761     2.075
    38   1 H        0.925     0.068     2.111     2.272
    39   1 H        0.925     0.061     2.188     2.313
    40   1 H        0.925     0.038     2.474     2.460
    41   1 H        0.926     0.061     2.185     2.311
    42   1 H        0.926     0.060     2.198     2.318
    43   1 H        0.925     0.069     2.093     2.263
    44   1 H        0.925     0.056     2.250     2.346
    45   1 H        0.925     0.038     2.480     2.463
    46   1 H        0.925     0.070     2.085     2.258
    47   1 H        0.925     0.066     2.128     2.281
    48   1 H        0.925     0.060     2.203     2.321

Wiberg/Mayer (AO) data.
largest (>0.10) Wiberg bond orders for each atom

     #   Z sym  total        # sym  WBO       # sym  WBO       # sym  WBO
 ---------------------------------------------------------------------------
     1   6 C    3.991 --     2 C    1.036    26 H    0.983    24 H    0.970
                            25 H    0.959
     2   6 C    3.984 --     8 C    1.408     3 C    1.396     1 C    1.036
     3   6 C    3.988 --     4 C    1.429     2 C    1.396    27 H    0.964
                             7 C    0.100
     4   6 C    3.986 --     3 C    1.429     6 C    1.355     5 C    1.027
     5   6 C    3.993 --     4 C    1.027    30 H    0.979    28 H    0.979
                            29 H    0.965
     6   6 C    3.914 --     7 C    1.365     4 C    1.355    10 N    0.964
     7   6 C    3.986 --     8 C    1.416     6 C    1.365     9 C    1.028
                             3 C    0.100
     8   6 C    3.988 --     7 C    1.416     2 C    1.408    31 H    0.964
     9   6 C    3.993 --     7 C    1.028    33 H    0.980    34 H    0.978
                            32 H    0.963
    10   7 N    3.712 --    14 C    1.353    11 C    1.218     6 C    0.964
    11   6 C    3.951 --    12 C    1.592    10 N    1.218    35 H    0.963
    12   6 C    3.951 --    11 C    1.592    13 N    1.218    36 H    0.963
    13   7 N    3.712 --    14 C    1.353    12 C    1.218    15 C    0.964
    14   6 C    3.948 --    10 N    1.353    13 N    1.353    37 H    0.957
    15   6 C    3.914 --    21 C    1.364    16 C    1.356    13 N    0.964
    16   6 C    3.987 --    18 C    1.427    15 C    1.356    17 C    1.028
    17   6 C    3.993 --    16 C    1.028    40 H    0.979    38 H    0.979
                            39 H    0.963
    18   6 C    3.988 --    16 C    1.427    19 C    1.397    41 H    0.964
                            21 C    0.100
    19   6 C    3.984 --    20 C    1.407    18 C    1.397    23 C    1.036
    20   6 C    3.988 --    21 C    1.417    19 C    1.407    42 H    0.964
    21   6 C    3.986 --    20 C    1.417    15 C    1.364    22 C    1.027
                            18 C    0.100
    22   6 C    3.993 --    21 C    1.027    45 H    0.979    43 H    0.978
                            44 H    0.965
    23   6 C    3.991 --    19 C    1.036    48 H    0.983    47 H    0.969
                            46 H    0.960
    24   1 H    0.995 --     1 C    0.970
    25   1 H    0.994 --     1 C    0.959
    26   1 H    0.996 --     1 C    0.983
    27   1 H    0.995 --     3 C    0.964
    28   1 H    0.995 --     5 C    0.979
    29   1 H    0.997 --     5 C    0.965
    30   1 H    0.998 --     5 C    0.979
    31   1 H    0.995 --     8 C    0.964
    32   1 H    0.996 --     9 C    0.963
    33   1 H    0.998 --     9 C    0.980
    34   1 H    0.995 --     9 C    0.978
    35   1 H    0.990 --    11 C    0.963
    36   1 H    0.990 --    12 C    0.963
    37   1 H    0.989 --    14 C    0.957
    38   1 H    0.995 --    17 C    0.979
    39   1 H    0.996 --    17 C    0.963
    40   1 H    0.998 --    17 C    0.979
    41   1 H    0.995 --    18 C    0.964
    42   1 H    0.995 --    20 C    0.964
    43   1 H    0.995 --    22 C    0.978
    44   1 H    0.997 --    22 C    0.965
    45   1 H    0.998 --    22 C    0.979
    46   1 H    0.994 --    23 C    0.960
    47   1 H    0.995 --    23 C    0.969
    48   1 H    0.996 --    23 C    0.983
 ---------------------------------------------------------------------------

molecular dipole:
                 x           y           z       tot (Debye)
 q only:       -5.817      -4.161      -1.086
   full:       -5.822      -4.182      -1.037      18.408

           -------------------------------------------------
          | TOTAL ENERGY              -63.238760017177 Eh   |
          | GRADIENT NORM               0.000262825432 Eh/α |
          | HOMO-LUMO GAP               3.211120251363 eV   |
           -------------------------------------------------

 * finished run on 2024/12/20 at 07:06:18.312
