   * xtb version 6.7.1 (edcfbbe) compiled by 'conda@3ef47c1a292c' on 2024-11-25

   ID    Z sym.   atoms
    1    6 C      1-13, 15-23
    2    7 N      14
    3    1 H      24-55

          program call               : xtb C0966.xyz --opt --namespace C0966 --charge +1
          :  Hamiltonian                  GFN2-xTB          :
 * total energy  :   -65.9401008 Eh     change       -0.2098801E-09 Eh
 * total energy  :   -65.9479240 Eh     change       -0.7823135E-02 Eh
 * total energy  :   -65.9498577 Eh     change       -0.1933754E-02 Eh
 * total energy  :   -65.9501536 Eh     change       -0.2958567E-03 Eh
 * total energy  :   -65.9504355 Eh     change       -0.2819473E-03 Eh
 * total energy  :   -65.9506609 Eh     change       -0.2254154E-03 Eh
 * total energy  :   -65.9509517 Eh     change       -0.2907719E-03 Eh
 * total energy  :   -65.9512464 Eh     change       -0.2947397E-03 Eh
 * total energy  :   -65.9514346 Eh     change       -0.1881122E-03 Eh
 * total energy  :   -65.9515538 Eh     change       -0.1192199E-03 Eh
 * total energy  :   -65.9561969 Eh     change       -0.2753033E-04 Eh
 * total energy  :   -65.9562217 Eh     change       -0.2477325E-04 Eh
 * total energy  :   -65.9562410 Eh     change       -0.1929796E-04 Eh
 * total energy  :   -65.9562562 Eh     change       -0.1524142E-04 Eh
 * total energy  :   -65.9562706 Eh     change       -0.1434182E-04 Eh
 * total energy  :   -65.9562453 Eh     change        0.2527834E-04 Eh
 * total energy  :   -65.9562810 Eh     change       -0.3570448E-04 Eh
 * total energy  :   -65.9562885 Eh     change       -0.7528055E-05 Eh
 * total energy  :   -65.9562929 Eh     change       -0.4363624E-05 Eh
   *** GEOMETRY OPTIMIZATION CONVERGED AFTER 61 ITERATIONS ***

 final structure:
================
55
 xtb: 6.7.1 (edcfbbe)
C            1.74576823030911       -0.36070832017942        0.40505539623525
C            1.03469313196870        0.98697350224316        0.42862616386704
C            1.27061551139545        1.81703908150833       -0.83378818873319
C            0.78218007899366        1.17183944781583       -2.13246043532360
C           -0.70432225916845        0.81085548179319       -2.15818956410299
C           -1.66003195205557        1.98000985117658       -1.92117046070854
C           -1.58917663702243        3.06785011160362       -3.00428603547649
C           -1.91565465552781        2.52197489647733       -4.35718589934679
C           -3.19999173393948        2.07011642819618       -4.64824126686159
C           -3.50774092180245        1.53262943584366       -5.88152841177367
C           -2.53323543711564        1.43303709340476       -6.87053071097462
C           -1.25468422796135        1.89311183990064       -6.60116333359035
C           -0.95804630071168        2.42613943960734       -5.35709828753582
N           -2.90676892453181        0.85188891438041       -8.18430228430999
C           -3.92974072679926        1.73478327451749       -8.84832814775742
C           -3.41251807474975        3.12079937910007       -9.13167932141655
C           -2.91635444421366        3.43792059393069      -10.39252848909098
C           -2.45033488276661        4.71253654659004      -10.66211339182266
C           -2.47278459642131        5.68223031605090       -9.67379021429641
C           -2.97348448384089        5.37659661171324       -8.41935977213049
C           -3.44564483496076        4.10441557280709       -8.14906734620720
C           -1.75290899740008        0.70273815249791       -9.08902656198954
C           -3.47918841273457       -0.49435310075699       -7.97163090275852
H            1.33479787368630       -1.01121949508413       -0.36289767546171
H            1.63349086461710       -0.86022763682012        1.36390290780092
H            2.80795832124237       -0.22744093188782        0.21246916070645
H           -0.03512956642039        0.83215330112467        0.58044415660755
H            1.40172571296332        1.56231569465911        1.28126058465036
H            0.79216209005340        2.79063592026455       -0.70764942250000
H            2.34359232956693        1.99734043339492       -0.93404990415862
H            1.00705280723414        1.85104999614055       -2.95747296637540
H            1.35258456141768        0.25901157275943       -2.31075803255044
H           -0.93257203332348        0.35525564473355       -3.12673282594269
H           -0.89752600729099        0.05667892203476       -1.39440219585028
H           -2.67845914025519        1.58822858348877       -1.87651099157836
H           -1.44460120056722        2.43994622909121       -0.95736623080213
H           -2.30840209501533        3.84988325879132       -2.75006942466153
H           -0.59504180244328        3.51302920901579       -3.01233804645260
H           -3.97449383583852        2.14253077364745       -3.90055679026142
H           -4.52116542241750        1.20429180935953       -6.05330013192560
H           -0.46433576629246        1.85464377818256       -7.33027874906607
H            0.04586607893059        2.77506222394304       -5.17200149897636
H           -4.22640896862653        1.24830222479725       -9.78019182381508
H           -4.79973020571516        1.79355775478215       -8.19321984694958
H           -2.91128408292320        2.69326116934195      -11.17579789940060
H           -2.07602286802275        4.94832620603237      -11.64590021380459
H           -2.11282016761145        6.67669639029683       -9.88479187919133
H           -3.00761015469332        6.13238668940381       -7.65058442616414
H           -3.85145398449469        3.88333006354920       -7.17333625140669
H           -0.99910617526985        0.06375327180225       -8.63324201113885
H           -2.08430968835022        0.24169997103580      -10.01825064288581
H           -1.32558342385457        1.67610784186909       -9.32091424805985
H           -2.76152573376937       -1.11260615059366       -7.43423031023268
H           -4.39616529473538       -0.44371648818509       -7.39092400469328
H           -3.70311747063424       -0.96019278119440       -8.92993089938633

          :  Hamiltonian                  GFN2-xTB          :
         :: total energy             -65.956292890724 Eh    ::
         :: gradient norm              0.000494701046 Eh/a0 ::
         :: HOMO-LUMO gap              3.232446723486 eV    ::
         :: SCC energy               -67.068346896212 Eh    ::
         :: -> dispersion             -0.055350101119 Eh    ::
         :: repulsion energy           1.112054005488 Eh    ::

    * Orbital Energies and Occupations

         #    Occupation            Energy/Eh            Energy/eV
      -------------------------------------------------------------
         1        2.0000           -0.8484461             -23.0874
       ...           ...                  ...                  ...
        50        2.0000           -0.5407411             -14.7143
        51        2.0000           -0.5384800             -14.6528
        52        2.0000           -0.5358826             -14.5821
        53        2.0000           -0.5292617             -14.4019
        54        2.0000           -0.5245805             -14.2746
        55        2.0000           -0.5227460             -14.2246
        56        2.0000           -0.5216166             -14.1939
        57        2.0000           -0.5157483             -14.0342
        58        2.0000           -0.5097525             -13.8711
        59        2.0000           -0.5072521             -13.8030
        60        2.0000           -0.4889909             -13.3061
        61        2.0000           -0.4856815             -13.2161
        62        2.0000           -0.4822557             -13.1228 (HOMO)
        63                         -0.3634655              -9.8904 (LUMO)
        64                         -0.3575159              -9.7285
        65                         -0.3496382              -9.5141
        66                         -0.3400443              -9.2531
        67                         -0.2336403              -6.3577
        68                         -0.2268209              -6.1721
        69                         -0.1982228              -5.3939
        70                         -0.1421905              -3.8692
        71                         -0.1250850              -3.4037
        72                         -0.1153073              -3.1377
        73                         -0.0553497              -1.5061
       ...                                ...                  ...
       124                          0.5456172              14.8470
      -------------------------------------------------------------
                  HL-Gap            0.1187902 Eh            3.2324 eV

     #   Z          covCN         q      C6AA      α(0)
     1   6 C        3.751    -0.103    22.537     6.770
     2   6 C        3.800    -0.054    21.546     6.609
     3   6 C        3.801    -0.059    21.637     6.623
     4   6 C        3.800    -0.058    21.615     6.619
     5   6 C        3.800    -0.058    21.613     6.619
     6   6 C        3.802    -0.057    21.598     6.617
     7   6 C        3.808    -0.069    21.812     6.648
     8   6 C        2.967     0.037    27.164     8.549
     9   6 C        2.927    -0.029    28.728     8.790
    10   6 C        2.920    -0.041    29.009     8.832
    11   6 C        2.928     0.026    27.413     8.586
    12   6 C        2.918    -0.042    29.039     8.837
    13   6 C        2.928    -0.029    28.725     8.789
    14   7 N        3.624     0.122    19.156     6.501
    15   6 C        3.767    -0.034    21.215     6.565
    16   6 C        2.968    -0.006    28.163     8.705
    17   6 C        2.923    -0.039    28.960     8.825
    18   6 C        2.919    -0.023    28.579     8.767
    19   6 C        2.920    -0.019    28.483     8.752
    20   6 C        2.919    -0.022    28.565     8.764
    21   6 C        2.923    -0.036    28.887     8.814
    22   6 C        3.721    -0.085    22.236     6.735
    23   6 C        3.726    -0.085    22.225     6.731
    24   1 H        0.925     0.032     2.562     2.503
    25   1 H        0.925     0.037     2.490     2.468
    26   1 H        0.925     0.037     2.494     2.469
    27   1 H        0.924     0.030     2.583     2.513
    28   1 H        0.924     0.034     2.535     2.490
    29   1 H        0.924     0.029     2.606     2.525
    30   1 H        0.924     0.035     2.519     2.482
    31   1 H        0.924     0.022     2.698     2.569
    32   1 H        0.924     0.037     2.490     2.468
    33   1 H        0.924     0.015     2.804     2.619
    34   1 H        0.924     0.045     2.388     2.417
    35   1 H        0.924     0.034     2.529     2.487
    36   1 H        0.925     0.054     2.266     2.354
    37   1 H        0.924     0.057     2.234     2.338
    38   1 H        0.925     0.057     2.233     2.337
    39   1 H        0.926     0.065     2.136     2.286
    40   1 H        0.926     0.046     2.365     2.405
    41   1 H        0.926     0.056     2.252     2.346
    42   1 H        0.926     0.064     2.153     2.294
    43   1 H        0.924     0.078     1.999     2.211
    44   1 H        0.924     0.082     1.954     2.186
    45   1 H        0.926     0.041     2.440     2.443
    46   1 H        0.926     0.058     2.226     2.333
    47   1 H        0.926     0.060     2.196     2.317
    48   1 H        0.926     0.055     2.258     2.350
    49   1 H        0.926     0.037     2.483     2.464
    50   1 H        0.925     0.094     1.843     2.123
    51   1 H        0.925     0.090     1.879     2.143
    52   1 H        0.925     0.099     1.790     2.092
    53   1 H        0.925     0.094     1.842     2.122
    54   1 H        0.925     0.095     1.830     2.116
    55   1 H        0.925     0.091     1.871     2.139

Wiberg/Mayer (AO) data.
largest (>0.10) Wiberg bond orders for each atom

     #   Z sym  total        # sym  WBO       # sym  WBO       # sym  WBO
 ---------------------------------------------------------------------------
     1   6 C    3.997 --     2 C    1.020    26 H    0.987    25 H    0.987
                            24 H    0.986
     2   6 C    3.998 --     1 C    1.020     3 C    1.008    28 H    0.978
                            27 H    0.976
     3   6 C    3.997 --     2 C    1.008     4 C    1.007    30 H    0.977
                            29 H    0.976
     4   6 C    3.997 --     3 C    1.007     5 C    1.007    32 H    0.975
                            31 H    0.975
     5   6 C    3.997 --     6 C    1.009     4 C    1.007    33 H    0.977
                            34 H    0.973
     6   6 C    3.993 --     5 C    1.009     7 C    0.980    35 H    0.976
                            36 H    0.971
     7   6 C    3.992 --     8 C    1.025     6 C    0.980    38 H    0.972
                            37 H    0.959
     8   6 C    3.982 --    13 C    1.411     9 C    1.386     7 C    1.025
                            11 C    0.102
     9   6 C    3.989 --    10 C    1.464     8 C    1.386    39 H    0.965
                            12 C    0.103
    10   6 C    3.990 --     9 C    1.464    11 C    1.392    40 H    0.961
                            13 C    0.104
    11   6 C    3.917 --    12 C    1.423    10 C    1.392    14 N    0.907
                             8 C    0.102
    12   6 C    3.989 --    13 C    1.433    11 C    1.423    41 H    0.962
                             9 C    0.103
    13   6 C    3.988 --    12 C    1.433     8 C    1.411    42 H    0.965
                            10 C    0.104
    14   7 N    3.803 --    22 C    0.963    23 C    0.957    11 C    0.907
                            15 C    0.906
    15   6 C    3.930 --    16 C    1.005    43 H    0.966    44 H    0.963
                            14 N    0.906
    16   6 C    3.979 --    21 C    1.411    17 C    1.408    15 C    1.005
                            19 C    0.109
    17   6 C    3.991 --    18 C    1.445    16 C    1.408    45 H    0.968
                            20 C    0.110
    18   6 C    3.990 --    17 C    1.445    19 C    1.438    46 H    0.969
                            21 C    0.110
    19   6 C    3.989 --    20 C    1.438    18 C    1.438    47 H    0.969
                            16 C    0.109
    20   6 C    3.990 --    21 C    1.445    19 C    1.438    48 H    0.969
                            17 C    0.110
    21   6 C    3.992 --    20 C    1.445    16 C    1.411    49 H    0.967
                            18 C    0.110
    22   6 C    3.932 --    50 H    0.975    51 H    0.974    52 H    0.969
                            14 N    0.963
    23   6 C    3.932 --    53 H    0.976    55 H    0.975    54 H    0.972
                            14 N    0.957
    24   1 H    0.999 --     1 C    0.986
    25   1 H    0.999 --     1 C    0.987
    26   1 H    0.999 --     1 C    0.987
    27   1 H    0.999 --     2 C    0.976
    28   1 H    0.999 --     2 C    0.978
    29   1 H    0.999 --     3 C    0.976
    30   1 H    0.999 --     3 C    0.977
    31   1 H    0.999 --     4 C    0.975
    32   1 H    0.999 --     4 C    0.975
    33   1 H    1.000 --     5 C    0.977
    34   1 H    0.998 --     5 C    0.973
    35   1 H    0.999 --     6 C    0.976
    36   1 H    0.996 --     6 C    0.971
    37   1 H    0.996 --     7 C    0.959
    38   1 H    0.996 --     7 C    0.972
    39   1 H    0.995 --     9 C    0.965
    40   1 H    0.998 --    10 C    0.961
    41   1 H    0.997 --    12 C    0.962
    42   1 H    0.995 --    13 C    0.965
    43   1 H    0.993 --    15 C    0.966
    44   1 H    0.993 --    15 C    0.963
    45   1 H    0.998 --    17 C    0.968
    46   1 H    0.996 --    18 C    0.969
    47   1 H    0.996 --    19 C    0.969
    48   1 H    0.997 --    20 C    0.969
    49   1 H    0.999 --    21 C    0.967
    50   1 H    0.991 --    22 C    0.975
    51   1 H    0.991 --    22 C    0.974
    52   1 H    0.990 --    22 C    0.969
    53   1 H    0.990 --    23 C    0.976
    54   1 H    0.991 --    23 C    0.972
    55   1 H    0.991 --    23 C    0.975
 ---------------------------------------------------------------------------

molecular dipole:
                 x           y           z       tot (Debye)
 q only:       -4.855       2.787     -14.187
   full:       -4.977       2.669     -14.323      39.134

           -------------------------------------------------
          | TOTAL ENERGY              -65.956292890724 Eh   |
          | GRADIENT NORM               0.000494701046 Eh/α |
          | HOMO-LUMO GAP               3.232446723486 eV   |
           -------------------------------------------------

 * finished run on 2024/12/20 at 07:06:16.623
