   * xtb version 6.7.1 (edcfbbe) compiled by 'conda@3ef47c1a292c' on 2024-11-25

   ID    Z sym.   atoms
    1    6 C      1-4, 6
    2    7 N      5
    3    1 H      7-20

          program call               : xtb C0960.xyz --opt --namespace C0960 --charge +1
          :  Hamiltonian                  GFN2-xTB          :
 * total energy  :   -20.3364145 Eh     change       -0.1020730E-09 Eh
 * total energy  :   -20.3379945 Eh     change       -0.1580038E-02 Eh
 * total energy  :   -20.3383446 Eh     change       -0.3500113E-03 Eh
 * total energy  :   -20.3384666 Eh     change       -0.1220122E-03 Eh
 * total energy  :   -20.3384955 Eh     change       -0.2897890E-04 Eh
 * total energy  :   -20.3385052 Eh     change       -0.9648936E-05 Eh
 * total energy  :   -20.3385106 Eh     change       -0.5421046E-05 Eh
 * total energy  :   -20.3385157 Eh     change       -0.5087235E-05 Eh
 * total energy  :   -20.3385183 Eh     change       -0.2560333E-05 Eh
   *** GEOMETRY OPTIMIZATION CONVERGED AFTER 9 ITERATIONS ***

 final structure:
================
20
 xtb: 6.7.1 (edcfbbe)
C            0.94021872790511       -0.10712527955084       -0.09968177936467
C            0.48472582887142       -1.19294650230360        0.87040123229211
C            0.94304133209772       -0.96948524855599        2.31849022832854
C            0.49658367598939        0.38560905402747        2.87300980277872
N           -0.99318646130322        0.48278315851028        2.85012954629402
C            0.46846878604947       -2.10919025506386        3.22026122241387
H            0.44722832758203        0.84829783208233        0.07094737057969
H            0.71676486958257       -0.41087650391723       -1.11818418165626
H            2.01409370357626        0.04130574887747       -0.02646800862833
H           -0.60241419509092       -1.31085332166023        0.81970658894288
H            0.90754538217629       -2.14218686085914        0.54130288110801
H            2.03600489126866       -0.95592584713410        2.32880224000283
H            0.83605036072027        0.49906069458519        3.90319961223530
H            0.90975015250627        1.19941688416935        2.27772053936578
H           -1.37801841514661       -0.29659147742158        3.40158523866849
H           -1.32896989237174        1.37360509271750        3.23158585034726
H           -1.31053168088362        0.38068505019374        1.87606791738838
H            0.94486538380558       -3.03703697853670        2.91883548424084
H            0.73666272951805       -1.92704041466255        4.25802500698010
H           -0.60689350685299       -2.27049482549753        3.15046320768243

          :  Hamiltonian                  GFN2-xTB          :
         :: total energy             -20.338518266668 Eh    ::
         :: gradient norm              0.000323944233 Eh/a0 ::
         :: HOMO-LUMO gap              8.583614401188 eV    ::
         :: SCC energy               -20.636377285261 Eh    ::
         :: -> dispersion             -0.010660892591 Eh    ::
         :: repulsion energy           0.297859018594 Eh    ::

    * Orbital Energies and Occupations

         #    Occupation            Energy/Eh            Energy/eV
      -------------------------------------------------------------
         1        2.0000           -0.8904384             -24.2301
       ...           ...                  ...                  ...
         7        2.0000           -0.7433347             -20.2272
         8        2.0000           -0.7164280             -19.4950
         9        2.0000           -0.6970342             -18.9673
        10        2.0000           -0.6778264             -18.4446
        11        2.0000           -0.6720723             -18.2880
        12        2.0000           -0.6419545             -17.4685
        13        2.0000           -0.6313811             -17.1808
        14        2.0000           -0.6239214             -16.9778
        15        2.0000           -0.6041714             -16.4403
        16        2.0000           -0.5944609             -16.1761
        17        2.0000           -0.5878975             -15.9975
        18        2.0000           -0.5737037             -15.6113
        19        2.0000           -0.5719407             -15.5633 (HOMO)
        20                         -0.2564987              -6.9797 (LUMO)
        21                         -0.1549272              -4.2158
        22                         -0.1023058              -2.7839
        23                         -0.0985793              -2.6825
        24                         -0.0827407              -2.2515
        25                         -0.0659674              -1.7951
        26                         -0.0584180              -1.5896
        27                         -0.0070921              -0.1930
        28                         -0.0047148              -0.1283
        29                          0.0153391               0.4174
        30                          0.0478807               1.3029
       ...                                ...                  ...
        38                          0.1549409               4.2162
      -------------------------------------------------------------
                  HL-Gap            0.3154420 Eh            8.5836 eV

     #   Z          covCN         q      C6AA      α(0)
     1   6 C        3.751    -0.121    22.879     6.821
     2   6 C        3.802    -0.075    21.941     6.669
     3   6 C        3.851    -0.034    21.150     6.541
     4   6 C        3.733    -0.039    21.361     6.597
     5   7 N        3.483    -0.129    23.780     7.243
     6   6 C        3.755    -0.132    23.103     6.854
     7   1 H        0.925     0.028     2.620     2.531
     8   1 H        0.925     0.064     2.152     2.294
     9   1 H        0.925     0.056     2.242     2.342
    10   1 H        0.924     0.030     2.586     2.515
    11   1 H        0.925     0.073     2.053     2.241
    12   1 H        0.924     0.085     1.931     2.173
    13   1 H        0.924     0.102     1.769     2.080
    14   1 H        0.925     0.107     1.722     2.052
    15   1 H        0.859     0.274     0.797     1.399
    16   1 H        0.859     0.264     0.831     1.428
    17   1 H        0.859     0.275     0.792     1.394
    18   1 H        0.925     0.078     2.001     2.212
    19   1 H        0.925     0.057     2.239     2.340
    20   1 H        0.925     0.038     2.473     2.459

Wiberg/Mayer (AO) data.
largest (>0.10) Wiberg bond orders for each atom

     #   Z sym  total        # sym  WBO       # sym  WBO       # sym  WBO
 ---------------------------------------------------------------------------
     1   6 C    3.991 --     2 C    1.019     9 H    0.985     7 H    0.985
                             8 H    0.983
     2   6 C    3.992 --     1 C    1.019     3 C    0.994    11 H    0.971
                            10 H    0.970
     3   6 C    3.980 --     6 C    1.008     2 C    0.994     4 C    0.992
                            12 H    0.955
     4   6 C    3.888 --     3 C    0.992    13 H    0.967    14 H    0.964
                             5 N    0.926
     5   7 N    3.675 --     4 C    0.926    16 H    0.916    15 H    0.901
                            17 H    0.899
     6   6 C    3.989 --     3 C    1.008    19 H    0.983    18 H    0.980
                            20 H    0.979
     7   1 H    0.999 --     1 C    0.985
     8   1 H    0.996 --     1 C    0.983
     9   1 H    0.997 --     1 C    0.985
    10   1 H    0.999 --     2 C    0.970
    11   1 H    0.995 --     2 C    0.971
    12   1 H    0.993 --     3 C    0.955
    13   1 H    0.990 --     4 C    0.967
    14   1 H    0.989 --     4 C    0.964
    15   1 H    0.925 --     5 N    0.901
    16   1 H    0.930 --     5 N    0.916
    17   1 H    0.924 --     5 N    0.899
    18   1 H    0.994 --     6 C    0.980
    19   1 H    0.997 --     6 C    0.983
    20   1 H    0.999 --     6 C    0.979
 ---------------------------------------------------------------------------

molecular dipole:
                 x           y           z       tot (Debye)
 q only:       -1.055       0.368       5.071
   full:       -1.297       0.459       5.116      13.465

           -------------------------------------------------
          | TOTAL ENERGY              -20.338518266668 Eh   |
          | GRADIENT NORM               0.000323944233 Eh/α |
          | HOMO-LUMO GAP               8.583614401188 eV   |
           -------------------------------------------------

 * finished run on 2024/12/20 at 07:06:08.165
