   * xtb version 6.7.1 (edcfbbe) compiled by 'conda@3ef47c1a292c' on 2024-11-25

   ID    Z sym.   atoms
    1    6 C      1-12, 14, 15, 17, 18, 20, 21
    2    7 N      13
    3    8 O      16, 19
    4    1 H      22-61

          program call               : xtb C0968.xyz --opt --namespace C0968 --charge +1
          :  Hamiltonian                  GFN2-xTB          :
 * total energy  :   -69.5841914 Eh     change       -0.1229665E-09 Eh
 * total energy  :   -69.5950747 Eh     change       -0.1088328E-01 Eh
 * total energy  :   -69.5983711 Eh     change       -0.3296402E-02 Eh
 * total energy  :   -69.5986734 Eh     change       -0.3023485E-03 Eh
 * total energy  :   -69.5990728 Eh     change       -0.3993606E-03 Eh
 * total energy  :   -69.5993490 Eh     change       -0.2762719E-03 Eh
 * total energy  :   -69.5997461 Eh     change       -0.3970772E-03 Eh
 * total energy  :   -69.6001170 Eh     change       -0.3708321E-03 Eh
 * total energy  :   -69.6003181 Eh     change       -0.2011891E-03 Eh
 * total energy  :   -69.6004700 Eh     change       -0.1518950E-03 Eh
 * total energy  :   -69.6039045 Eh     change       -0.1251531E-04 Eh
 * total energy  :   -69.6039194 Eh     change       -0.1492509E-04 Eh
 * total energy  :   -69.6039349 Eh     change       -0.1554634E-04 Eh
 * total energy  :   -69.6039501 Eh     change       -0.1518240E-04 Eh
 * total energy  :   -69.6039651 Eh     change       -0.1502807E-04 Eh
 * total energy  :   -69.6039796 Eh     change       -0.1440907E-04 Eh
 * total energy  :   -69.6039926 Eh     change       -0.1301447E-04 Eh
 * total energy  :   -69.6040029 Eh     change       -0.1033141E-04 Eh
 * total energy  :   -69.6040060 Eh     change       -0.3089654E-05 Eh
   *** GEOMETRY OPTIMIZATION CONVERGED AFTER 94 ITERATIONS ***

 final structure:
================
61
 xtb: 6.7.1 (edcfbbe)
C            2.21398219016402        1.16138662728430        0.39759417936365
C            1.64183918173093        2.35138174572320       -0.36334846334006
C            1.76867588590966        2.21412708824086       -1.88135278849672
C            1.01636814705489        1.02720330048367       -2.48678056829489
C           -0.49419335451063        1.02697523182346       -2.24409543744065
C           -1.23357232660570        2.25742917214097       -2.77349537098511
C           -1.07800047779724        2.50696941887563       -4.27508998467986
C           -1.54448451192473        1.35671237492643       -5.16967811538749
C           -3.01208421076499        0.96023625086978       -4.99681106290966
C           -4.02103831118218        2.08397709303488       -5.24619961873768
C           -3.94695839342784        2.72175045125818       -6.63966453030898
C           -4.23379156477899        1.76139840269466       -7.80449181712985
N           -5.57795572129048        1.86969900724683       -8.44283343376065
C           -5.82805453004182        3.25902778488582       -8.95551591978690
C           -4.65099267983116        3.98768548190393       -9.61604676651743
O           -4.13271223076294        3.24313230018776      -10.69524338363451
C           -5.64188857182322        0.97974606294395       -9.65286707754897
C           -5.23694821020633       -0.49898564385628       -9.56490732710665
O           -6.41317548100275       -1.27325462213058       -9.49298187557672
C           -6.67902033834951        1.58672707251874       -7.46645152331205
C           -6.72563137599218        0.19102927689596       -6.86912771513918
H            1.64023720373468        0.25818391630156        0.20620228391936
H            2.19156690367131        1.35371098702637        1.46755507063144
H            3.24615656460094        0.98310330966609        0.10423076492156
H            0.59511673540614        2.49146936657755       -0.08726510989605
H            2.17939805501884        3.25321217733780       -0.06078008813767
H            1.42207220841446        3.13969539243528       -2.34646915586962
H            2.82679727873540        2.10436900977204       -2.13189278102343
H            1.21168960589210        1.01091306139787       -3.56160281198791
H            1.42484833908980        0.10169666528758       -2.07755850309519
H           -0.91415111195990        0.12594926574270       -2.69778320103290
H           -0.68278391193317        0.95680817114151       -1.17162667142084
H           -2.29331718613377        2.15318628315690       -2.52823114552713
H           -0.87322510376082        3.14248816058455       -2.24689953234345
H           -1.62460487360418        3.41828287790624       -4.53090318874802
H           -0.02678815610063        2.69739602904122       -4.49571566278520
H           -1.35619661158731        1.62642853999952       -6.21240400299755
H           -0.93525969129457        0.47710569615482       -4.95902247299716
H           -3.21480924991955        0.11212074696335       -5.65766596343170
H           -3.16351468655405        0.60184838944896       -3.97838121178402
H           -5.02434001703942        1.69884877330771       -5.05635989611039
H           -3.84361467354274        2.87475108367226       -4.51701245863670
H           -4.61938242522221        3.57890013394419       -6.65745653081480
H           -2.93837714947801        3.11480904659483       -6.76865619305205
H           -3.50559496744786        1.89992169632146       -8.60421989930432
H           -4.12576736237265        0.74368163650145       -7.43659532968292
H           -6.64191108619273        3.19320996054973       -9.67958985479468
H           -6.16369777091203        3.88686931652613       -8.12941007722327
H           -5.05304408583630        4.94775955455414       -9.96290177186017
H           -3.85996631085282        4.19986248074586       -8.88614239384379
H           -3.59815654295189        3.81098901177610      -11.25995002747859
H           -6.67724688226898        0.97668937529197      -10.00193731658772
H           -5.01910199823574        1.46065329281611      -10.40607376548083
H           -4.68583039028342       -0.74125162220905      -10.48096577138007
H           -4.58097960408326       -0.71879804529273       -8.71519914215793
H           -6.21977589106956       -2.19730079860580       -9.68173985254976
H           -6.58317687201299        2.31609878148519       -6.66038037728609
H           -7.62152943373686        1.77255467797549       -7.98556199300823
H           -6.92721118713819       -0.56129595847712       -7.62346440967231
H           -5.81986804357728       -0.06468029917760       -6.32847485097910
H           -7.54714273155503        0.16970597850256       -6.15725610380274

          :  Hamiltonian                  GFN2-xTB          :
         :: total energy             -69.604005987837 Eh    ::
         :: gradient norm              0.000305497378 Eh/a0 ::
         :: HOMO-LUMO gap              6.405641589565 eV    ::
         :: SCC energy               -70.505311451503 Eh    ::
         :: -> dispersion             -0.052399289605 Eh    ::
         :: repulsion energy           0.901305463666 Eh    ::

    * Orbital Energies and Occupations

         #    Occupation            Energy/Eh            Energy/eV
      -------------------------------------------------------------
         1        2.0000           -0.8451832             -22.9986
       ...           ...                  ...                  ...
        52        2.0000           -0.5420512             -14.7500
        53        2.0000           -0.5388165             -14.6619
        54        2.0000           -0.5311918             -14.4545
        55        2.0000           -0.5287960             -14.3893
        56        2.0000           -0.5183944             -14.1062
        57        2.0000           -0.5145551             -14.0018
        58        2.0000           -0.5074075             -13.8073
        59        2.0000           -0.4975255             -13.5384
        60        2.0000           -0.4934057             -13.4263
        61        2.0000           -0.4893378             -13.3156
        62        2.0000           -0.4752319             -12.9317
        63        2.0000           -0.4711043             -12.8194
        64        2.0000           -0.4687344             -12.7549 (HOMO)
        65                         -0.2333314              -6.3493 (LUMO)
        66                         -0.1720865              -4.6827
        67                         -0.1561673              -4.2495
        68                         -0.1502193              -4.0877
        69                         -0.1049877              -2.8569
        70                         -0.0855235              -2.3272
        71                         -0.0636273              -1.7314
        72                         -0.0612205              -1.6659
        73                         -0.0471909              -1.2841
        74                         -0.0442233              -1.2034
        75                         -0.0317699              -0.8645
       ...                                ...                  ...
       124                          0.2540202               6.9122
      -------------------------------------------------------------
                  HL-Gap            0.2354030 Eh            6.4056 eV

     #   Z          covCN         q      C6AA      α(0)
     1   6 C        3.751    -0.103    22.524     6.768
     2   6 C        3.799    -0.053    21.520     6.605
     3   6 C        3.800    -0.058    21.613     6.619
     4   6 C        3.800    -0.058    21.615     6.620
     5   6 C        3.800    -0.058    21.615     6.619
     6   6 C        3.800    -0.059    21.630     6.622
     7   6 C        3.800    -0.059    21.639     6.623
     8   6 C        3.800    -0.061    21.675     6.629
     9   6 C        3.800    -0.061    21.672     6.628
    10   6 C        3.800    -0.068    21.809     6.649
    11   6 C        3.799    -0.071    21.859     6.657
    12   6 C        3.749    -0.041    21.369     6.593
    13   7 N        3.616     0.110    19.347     6.533
    14   6 C        3.769    -0.040    21.326     6.581
    15   6 C        3.672     0.070    19.636     6.351
    16   8 O        1.655    -0.442    21.674     6.285
    17   6 C        3.758    -0.054    21.595     6.625
    18   6 C        3.672     0.074    19.568     6.340
    19   8 O        1.656    -0.435    21.537     6.265
    20   6 C        3.756    -0.027    21.116     6.552
    21   6 C        3.751    -0.135    23.165     6.864
    22   1 H        0.925     0.034     2.533     2.489
    23   1 H        0.925     0.034     2.526     2.485
    24   1 H        0.925     0.035     2.510     2.477
    25   1 H        0.924     0.030     2.593     2.518
    26   1 H        0.924     0.029     2.596     2.520
    27   1 H        0.924     0.026     2.638     2.540
    28   1 H        0.924     0.031     2.567     2.506
    29   1 H        0.924     0.025     2.655     2.548
    30   1 H        0.924     0.036     2.507     2.476
    31   1 H        0.924     0.024     2.667     2.554
    32   1 H        0.924     0.037     2.486     2.466
    33   1 H        0.924     0.025     2.663     2.552
    34   1 H        0.924     0.038     2.470     2.458
    35   1 H        0.924     0.022     2.701     2.570
    36   1 H        0.924     0.041     2.441     2.444
    37   1 H        0.924     0.020     2.726     2.582
    38   1 H        0.924     0.045     2.380     2.412
    39   1 H        0.924     0.016     2.787     2.611
    40   1 H        0.924     0.052     2.297     2.370
    41   1 H        0.924     0.036     2.503     2.474
    42   1 H        0.925     0.058     2.228     2.334
    43   1 H        0.925     0.043     2.407     2.426
    44   1 H        0.925     0.068     2.103     2.268
    45   1 H        0.924     0.087     1.911     2.162
    46   1 H        0.925     0.093     1.851     2.127
    47   1 H        0.924     0.095     1.832     2.117
    48   1 H        0.924     0.085     1.926     2.170
    49   1 H        0.924     0.062     2.181     2.309
    50   1 H        0.924     0.055     2.260     2.351
    51   1 H        0.805     0.315     0.677     1.293
    52   1 H        0.924     0.106     1.729     2.056
    53   1 H        0.925     0.121     1.604     1.980
    54   1 H        0.924     0.056     2.245     2.343
    55   1 H        0.924     0.047     2.359     2.402
    56   1 H        0.805     0.310     0.692     1.307
    57   1 H        0.924     0.079     1.987     2.205
    58   1 H        0.924     0.078     2.004     2.214
    59   1 H        0.925     0.097     1.815     2.107
    60   1 H        0.925     0.060     2.195     2.317
    61   1 H        0.925     0.074     2.045     2.236

Wiberg/Mayer (AO) data.
largest (>0.10) Wiberg bond orders for each atom

     #   Z sym  total        # sym  WBO       # sym  WBO       # sym  WBO
 ---------------------------------------------------------------------------
     1   6 C    3.997 --     2 C    1.020    24 H    0.988    23 H    0.987
                            22 H    0.986
     2   6 C    3.998 --     1 C    1.020     3 C    1.008    26 H    0.978
                            25 H    0.976
     3   6 C    3.997 --     2 C    1.008     4 C    1.008    28 H    0.977
                            27 H    0.976
     4   6 C    3.997 --     5 C    1.008     3 C    1.008    29 H    0.975
                            30 H    0.975
     5   6 C    3.997 --     4 C    1.008     6 C    1.008    31 H    0.975
                            32 H    0.974
     6   6 C    3.997 --     5 C    1.008     7 C    1.007    33 H    0.975
                            34 H    0.974
     7   6 C    3.997 --     6 C    1.007     8 C    1.007    35 H    0.975
                            36 H    0.974
     8   6 C    3.996 --     7 C    1.007     9 C    1.007    37 H    0.975
                            38 H    0.973
     9   6 C    3.995 --    10 C    1.008     8 C    1.007    40 H    0.972
                            39 H    0.971
    10   6 C    3.992 --     9 C    1.008    11 C    1.004    41 H    0.973
                            42 H    0.971
    11   6 C    3.986 --    10 C    1.004    12 C    1.001    43 H    0.968
                            44 H    0.967
    12   6 C    3.927 --    11 C    1.001    45 H    0.967    46 H    0.950
                            13 N    0.931
    13   7 N    3.800 --    14 C    0.940    12 C    0.931    17 C    0.930
                            20 C    0.925
    14   6 C    3.946 --    15 C    1.004    47 H    0.965    48 H    0.963
                            13 N    0.940
    15   6 C    3.957 --    14 C    1.004    16 O    1.002    49 H    0.964
                            50 H    0.963
    16   8 O    1.961 --    15 C    1.002    51 H    0.883
    17   6 C    3.926 --    18 C    1.004    52 H    0.961    53 H    0.950
                            13 N    0.930
    18   6 C    3.960 --    17 C    1.004    19 O    1.003    54 H    0.967
                            55 H    0.958
    19   8 O    1.967 --    18 C    1.003    56 H    0.888
    20   6 C    3.933 --    21 C    1.021    58 H    0.969    57 H    0.964
                            13 N    0.925
    21   6 C    3.976 --    20 C    1.021    60 H    0.977    61 H    0.974
                            59 H    0.966
    22   1 H    0.999 --     1 C    0.986
    23   1 H    0.999 --     1 C    0.987
    24   1 H    0.999 --     1 C    0.988
    25   1 H    0.999 --     2 C    0.976
    26   1 H    0.999 --     2 C    0.978
    27   1 H    0.999 --     3 C    0.976
    28   1 H    0.999 --     3 C    0.977
    29   1 H    0.999 --     4 C    0.975
    30   1 H    0.999 --     4 C    0.975
    31   1 H    0.999 --     5 C    0.975
    32   1 H    0.999 --     5 C    0.974
    33   1 H    0.999 --     6 C    0.975
    34   1 H    0.999 --     6 C    0.974
    35   1 H    0.999 --     7 C    0.975
    36   1 H    0.998 --     7 C    0.974
    37   1 H    1.000 --     8 C    0.975
    38   1 H    0.998 --     8 C    0.973
    39   1 H    1.000 --     9 C    0.971
    40   1 H    0.997 --     9 C    0.972
    41   1 H    0.999 --    10 C    0.973
    42   1 H    0.996 --    10 C    0.971
    43   1 H    0.998 --    11 C    0.968
    44   1 H    0.995 --    11 C    0.967
    45   1 H    0.992 --    12 C    0.967
    46   1 H    0.991 --    12 C    0.950
    47   1 H    0.991 --    14 C    0.965
    48   1 H    0.992 --    14 C    0.963
    49   1 H    0.996 --    15 C    0.964
    50   1 H    0.997 --    15 C    0.963
    51   1 H    0.900 --    16 O    0.883
    52   1 H    0.988 --    17 C    0.961
    53   1 H    0.985 --    17 C    0.950
    54   1 H    0.997 --    18 C    0.967
    55   1 H    0.998 --    18 C    0.958
    56   1 H    0.904 --    19 O    0.888
    57   1 H    0.994 --    20 C    0.964
    58   1 H    0.994 --    20 C    0.969
    59   1 H    0.991 --    21 C    0.966
    60   1 H    0.996 --    21 C    0.977
    61   1 H    0.994 --    21 C    0.974
 ---------------------------------------------------------------------------

molecular dipole:
                 x           y           z       tot (Debye)
 q only:       -9.510       3.628     -15.620
   full:       -9.343       3.794     -15.784      47.607

           -------------------------------------------------
          | TOTAL ENERGY              -69.604005987837 Eh   |
          | GRADIENT NORM               0.000305497378 Eh/α |
          | HOMO-LUMO GAP               6.405641589565 eV   |
           -------------------------------------------------

 * finished run on 2024/12/20 at 07:06:22.677
