   * xtb version 6.7.1 (edcfbbe) compiled by 'conda@3ef47c1a292c' on 2024-11-25

   ID    Z sym.   atoms
    1    8 O      1
    2    6 C      2, 3, 5-15
    3    7 N      4
    4    1 H      16-37

          program call               : xtb C0969.xyz --opt --namespace C0969 --charge +1
          :  Hamiltonian                  GFN2-xTB          :
 * total energy  :   -45.6148791 Eh     change       -0.7435190E-09 Eh
 * total energy  :   -45.6253138 Eh     change       -0.1043469E-01 Eh
 * total energy  :   -45.6287134 Eh     change       -0.3399642E-02 Eh
 * total energy  :   -45.6291766 Eh     change       -0.4632145E-03 Eh
 * total energy  :   -45.6294495 Eh     change       -0.2728387E-03 Eh
 * total energy  :   -45.6295925 Eh     change       -0.1430311E-03 Eh
 * total energy  :   -45.6297715 Eh     change       -0.1790182E-03 Eh
 * total energy  :   -45.6299208 Eh     change       -0.1493101E-03 Eh
 * total energy  :   -45.6300064 Eh     change       -0.8556213E-04 Eh
 * total energy  :   -45.6300634 Eh     change       -0.5696676E-04 Eh
 * total energy  :   -45.6303530 Eh     change       -0.1116717E-04 Eh
 * total energy  :   -45.6303644 Eh     change       -0.1139429E-04 Eh
 * total energy  :   -45.6303765 Eh     change       -0.1211213E-04 Eh
 * total energy  :   -45.6303825 Eh     change       -0.6018861E-05 Eh
 * total energy  :   -45.6303894 Eh     change       -0.6905602E-05 Eh
 * total energy  :   -45.6303968 Eh     change       -0.7389484E-05 Eh
 * total energy  :   -45.6304035 Eh     change       -0.6649732E-05 Eh
 * total energy  :   -45.6304087 Eh     change       -0.5229489E-05 Eh
 * total energy  :   -45.6304128 Eh     change       -0.4044892E-05 Eh
   *** GEOMETRY OPTIMIZATION CONVERGED AFTER 27 ITERATIONS ***

 final structure:
================
37
 xtb: 6.7.1 (edcfbbe)
O            0.38678436999188       -0.40646632507803       -0.34586261879869
C            0.39154439181540       -0.85008971805598        0.98981114485646
C            1.07290380236978       -2.22765075634222        1.04769201373742
N            2.59333647477029       -2.16915483916789        0.99464369383366
C            3.20510912929474       -1.64584941976348        2.26319193403773
C            3.48254052157444       -2.64175883041187        3.38252614699132
C            3.14243983874408       -3.53117393086418        0.70903336333415
C            2.88741274617699       -4.08026665328378       -0.68772114649400
C            3.00313589229748       -1.25572576127163       -0.09307217915546
C            0.53927649623063       -3.05600372345914        2.19555767494252
C            0.26470259063105       -2.49925053043154        3.44283827931298
C           -0.26517370436587       -3.27643849180401        4.45806596497627
C           -0.53463660685663       -4.61803485452171        4.24365094797733
C           -0.28367274072142       -5.17688709934342        3.00261016854525
C            0.24346346067365       -4.40019184196054        1.98512946187437
H           -0.25421199826977        0.30295546636934       -0.45797831811799
H            0.88080358286715       -0.11124009456835        1.63983128426165
H           -0.63329146228769       -0.99023560822825        1.35364829250229
H            0.78122504790473       -2.71607548368228        0.11303901684783
H            4.15550860912856       -1.18261283163503        1.98953928873703
H            2.54915489671625       -0.86088315511308        2.63856795953271
H            4.28453261202996       -3.32988638546310        3.13389125614915
H            3.80557113818745       -2.06938370839865        4.24908192108083
H            2.60446415705400       -3.20857435560334        3.67136012256375
H            4.22218502360652       -3.47284956056147        0.85805139705611
H            2.72461190438191       -4.21419631818692        1.44918119815159
H            3.40727001452851       -3.51619917689222       -1.45586560458021
H            3.27178813332533       -5.09729505308611       -0.71329535132391
H            1.83280488875286       -4.12698216496236       -0.94237742182316
H            2.42757282263691       -1.45458318845180       -0.99297759862424
H            2.82404854718752       -0.22214489156699        0.19059047693335
H            4.06406322687027       -1.38580019684436       -0.29862777953422
H            0.45698252714650       -1.45453781287537        3.63253179964071
H           -0.47217011120339       -2.82918980059743        5.41744860122485
H           -0.94948590953801       -5.22038415039264        5.03588330963875
H           -0.50713164704758       -6.21596291251356        2.81919909414305
H            0.40405733339793       -4.84563584098159        1.01429220557122

          :  Hamiltonian                  GFN2-xTB          :
         :: total energy             -45.630412755011 Eh    ::
         :: gradient norm              0.000159179292 Eh/a0 ::
         :: HOMO-LUMO gap              4.625379357962 eV    ::
         :: SCC energy               -46.309582255089 Eh    ::
         :: -> dispersion             -0.035408554382 Eh    ::
         :: repulsion energy           0.679169500078 Eh    ::

    * Orbital Energies and Occupations

         #    Occupation            Energy/Eh            Energy/eV
      -------------------------------------------------------------
         1        2.0000           -0.8447042             -22.9856
       ...           ...                  ...                  ...
        30        2.0000           -0.6109306             -16.6243
        31        2.0000           -0.6027458             -16.4015
        32        2.0000           -0.6010459             -16.3553
        33        2.0000           -0.5990160             -16.3001
        34        2.0000           -0.5976898             -16.2640
        35        2.0000           -0.5943486             -16.1730
        36        2.0000           -0.5883541             -16.0099
        37        2.0000           -0.5842501             -15.8983
        38        2.0000           -0.5540091             -15.0754
        39        2.0000           -0.5469101             -14.8822
        40        2.0000           -0.5428200             -14.7709
        41        2.0000           -0.5296917             -14.4136
        42        2.0000           -0.5278932             -14.3647 (HOMO)
        43                         -0.3579137              -9.7393 (LUMO)
        44                         -0.3479109              -9.4671
        45                         -0.2395025              -6.5172
        46                         -0.2113429              -5.7509
        47                         -0.1629060              -4.4329
        48                         -0.1513104              -4.1174
        49                         -0.1373784              -3.7383
        50                         -0.1026626              -2.7936
        51                         -0.0603626              -1.6425
        52                         -0.0475912              -1.2950
        53                         -0.0437085              -1.1894
       ...                                ...                  ...
        82                          0.5370202              14.6131
      -------------------------------------------------------------
                  HL-Gap            0.1699796 Eh            4.6254 eV

     #   Z          covCN         q      C6AA      α(0)
     1   8 O        1.656    -0.441    21.661     6.283
     2   6 C        3.674     0.077    19.513     6.330
     3   6 C        3.799     0.000    20.578     6.459
     4   7 N        3.616     0.106    19.409     6.543
     5   6 C        3.757    -0.031    21.179     6.562
     6   6 C        3.750    -0.130    23.068     6.850
     7   6 C        3.757    -0.032    21.200     6.565
     8   6 C        3.751    -0.127    23.008     6.841
     9   6 C        3.720    -0.092    22.386     6.758
    10   6 C        2.968    -0.012    28.312     8.728
    11   6 C        2.922    -0.039    28.961     8.825
    12   6 C        2.919    -0.023    28.587     8.768
    13   6 C        2.920    -0.019    28.487     8.753
    14   6 C        2.918    -0.023    28.568     8.765
    15   6 C        2.924    -0.039    28.970     8.827
    16   1 H        0.805     0.312     0.687     1.302
    17   1 H        0.923     0.035     2.523     2.484
    18   1 H        0.924     0.058     2.228     2.335
    19   1 H        0.924     0.098     1.808     2.103
    20   1 H        0.924     0.083     1.946     2.182
    21   1 H        0.925     0.080     1.976     2.199
    22   1 H        0.925     0.064     2.153     2.294
    23   1 H        0.925     0.081     1.967     2.193
    24   1 H        0.925     0.066     2.125     2.280
    25   1 H        0.924     0.083     1.949     2.183
    26   1 H        0.924     0.090     1.884     2.146
    27   1 H        0.925     0.069     2.095     2.263
    28   1 H        0.925     0.082     1.963     2.191
    29   1 H        0.925     0.062     2.176     2.307
    30   1 H        0.925     0.117     1.641     2.003
    31   1 H        0.925     0.099     1.790     2.092
    32   1 H        0.925     0.087     1.906     2.159
    33   1 H        0.926     0.037     2.488     2.467
    34   1 H        0.926     0.059     2.216     2.328
    35   1 H        0.926     0.062     2.171     2.304
    36   1 H        0.926     0.059     2.205     2.322
    37   1 H        0.926     0.043     2.410     2.427

Wiberg/Mayer (AO) data.
largest (>0.10) Wiberg bond orders for each atom

     #   Z sym  total        # sym  WBO       # sym  WBO       # sym  WBO
 ---------------------------------------------------------------------------
     1   8 O    1.952 --     2 C    1.005    16 H    0.887
     2   6 C    3.961 --     1 O    1.005     3 C    0.991    18 H    0.964
                            17 H    0.958
     3   6 C    3.935 --    10 C    0.993     2 C    0.991    19 H    0.946
                             4 N    0.899
     4   7 N    3.798 --     9 C    0.958     7 C    0.930     5 C    0.929
                             3 C    0.899
     5   6 C    3.938 --     6 C    1.022    20 H    0.968    21 H    0.962
                             4 N    0.929
     6   6 C    3.982 --     5 C    1.022    22 H    0.982    24 H    0.975
                            23 H    0.973
     7   6 C    3.935 --     8 C    1.022    25 H    0.966    26 H    0.962
                             4 N    0.930
     8   6 C    3.983 --     7 C    1.022    27 H    0.982    29 H    0.976
                            28 H    0.974
     9   6 C    3.924 --    32 H    0.975    31 H    0.974    30 H    0.968
                             4 N    0.958
    10   6 C    3.979 --    15 C    1.411    11 C    1.403     3 C    0.993
                            13 C    0.110
    11   6 C    3.992 --    12 C    1.447    10 C    1.403    33 H    0.967
                            14 C    0.110
    12   6 C    3.990 --    11 C    1.447    13 C    1.434    34 H    0.969
                            15 C    0.108
    13   6 C    3.988 --    14 C    1.441    12 C    1.434    35 H    0.968
                            10 C    0.110
    14   6 C    3.990 --    15 C    1.441    13 C    1.441    36 H    0.968
                            11 C    0.110
    15   6 C    3.991 --    14 C    1.441    10 C    1.411    37 H    0.966
                            12 C    0.108
    16   1 H    0.902 --     1 O    0.887
    17   1 H    0.999 --     2 C    0.958
    18   1 H    0.996 --     2 C    0.964
    19   1 H    0.990 --     3 C    0.946
    20   1 H    0.993 --     5 C    0.968
    21   1 H    0.993 --     5 C    0.962
    22   1 H    0.996 --     6 C    0.982
    23   1 H    0.993 --     6 C    0.973
    24   1 H    0.996 --     6 C    0.975
    25   1 H    0.993 --     7 C    0.966
    26   1 H    0.992 --     7 C    0.962
    27   1 H    0.995 --     8 C    0.982
    28   1 H    0.993 --     8 C    0.974
    29   1 H    0.996 --     8 C    0.976
    30   1 H    0.986 --     9 C    0.968
    31   1 H    0.990 --     9 C    0.974
    32   1 H    0.992 --     9 C    0.975
    33   1 H    0.999 --    11 C    0.967
    34   1 H    0.996 --    12 C    0.969
    35   1 H    0.996 --    13 C    0.968
    36   1 H    0.996 --    14 C    0.968
    37   1 H    0.998 --    15 C    0.966
 ---------------------------------------------------------------------------

molecular dipole:
                 x           y           z       tot (Debye)
 q only:        4.112      -4.525       2.673
   full:        3.946      -4.280       2.763      16.378

           -------------------------------------------------
          | TOTAL ENERGY              -45.630412755011 Eh   |
          | GRADIENT NORM               0.000159179292 Eh/α |
          | HOMO-LUMO GAP               4.625379357962 eV   |
           -------------------------------------------------

 * finished run on 2024/12/20 at 07:06:23.835
