   * xtb version 6.7.1 (edcfbbe) compiled by 'conda@3ef47c1a292c' on 2024-11-25

   ID    Z sym.   atoms
    1    6 C      1, 3-6
    2    7 N      2
    3    1 H      7-18

          program call               : xtb C0963.xyz --opt --namespace C0963 --charge +1
          :  Hamiltonian                  GFN2-xTB          :
 * total energy  :   -19.3393851 Eh     change       -0.1055263E-09 Eh
 * total energy  :   -19.3409871 Eh     change       -0.1601983E-02 Eh
 * total energy  :   -19.3412660 Eh     change       -0.2788453E-03 Eh
 * total energy  :   -19.3412869 Eh     change       -0.2089752E-04 Eh
 * total energy  :   -19.3413075 Eh     change       -0.2058697E-04 Eh
 * total energy  :   -19.3413312 Eh     change       -0.2374078E-04 Eh
 * total energy  :   -19.3413560 Eh     change       -0.2478427E-04 Eh
 * total energy  :   -19.3414077 Eh     change       -0.5173998E-04 Eh
 * total energy  :   -19.3414625 Eh     change       -0.5472952E-04 Eh
 * total energy  :   -19.3415038 Eh     change       -0.4139243E-04 Eh
 * total energy  :   -19.3418444 Eh     change       -0.3854540E-04 Eh
 * total energy  :   -19.3418439 Eh     change        0.4794691E-06 Eh
 * total energy  :   -19.3419057 Eh     change       -0.6181925E-04 Eh
 * total energy  :   -19.3419241 Eh     change       -0.1840244E-04 Eh
 * total energy  :   -19.3420027 Eh     change       -0.7856246E-04 Eh
 * total energy  :   -19.3420285 Eh     change       -0.2577739E-04 Eh
 * total energy  :   -19.3420544 Eh     change       -0.2591777E-04 Eh
 * total energy  :   -19.3420628 Eh     change       -0.8403920E-05 Eh
 * total energy  :   -19.3420669 Eh     change       -0.4076825E-05 Eh
   *** GEOMETRY OPTIMIZATION CONVERGED AFTER 23 ITERATIONS ***

 final structure:
================
18
 xtb: 6.7.1 (edcfbbe)
C           -2.15542626907263        0.00763983805345        0.13018506684292
N           -0.74948392877274        0.01972724711221       -0.29029739066689
C            0.04687612228213        1.15400806993580        0.23954819106950
C            1.47494866936863        0.76640959454393       -0.12068321730561
C            1.49924806958249       -0.76235895900085        0.05583050358686
C            0.02332066768645       -1.18269916781783        0.12120042591820
H           -2.66599646672757       -0.86080553875915       -0.28251363278596
H           -2.21345612915435       -0.03327721394941        1.21691318591020
H           -2.65920123541713        0.90924417017768       -0.21414729005547
H           -0.71434633573158        0.07607664575726       -1.31360483089332
H           -0.27479511287071        2.09940513592536       -0.19495692664384
H           -0.09038439136889        1.18999668956532        1.32190300869592
H            1.69519726715457        1.04137329466708       -1.15215450457827
H            2.19988723393317        1.26537699035858        0.51617333438736
H            2.01787374957413       -1.24237174854102       -0.77053031413514
H            2.01281177418972       -1.04433811770497        0.97164708473507
H           -0.26773407363580       -1.43647349214261        1.14167499849839
H           -0.21066961101993       -2.02688343818087       -0.52604769257994

          :  Hamiltonian                  GFN2-xTB          :
         :: total energy             -19.342066850877 Eh    ::
         :: gradient norm              0.000550761376 Eh/a0 ::
         :: HOMO-LUMO gap              9.703946415997 eV    ::
         :: SCC energy               -19.612348246547 Eh    ::
         :: -> dispersion             -0.009404566414 Eh    ::
         :: repulsion energy           0.270281395670 Eh    ::

    * Orbital Energies and Occupations

         #    Occupation            Energy/Eh            Energy/eV
      -------------------------------------------------------------
         1        2.0000           -0.8839735             -24.0541
       ...           ...                  ...                  ...
         6        2.0000           -0.7623023             -20.7433
         7        2.0000           -0.7501976             -20.4139
         8        2.0000           -0.7358311             -20.0230
         9        2.0000           -0.7070449             -19.2397
        10        2.0000           -0.6933124             -18.8660
        11        2.0000           -0.6769633             -18.4211
        12        2.0000           -0.6692748             -18.2119
        13        2.0000           -0.6588471             -17.9281
        14        2.0000           -0.6580997             -17.9078
        15        2.0000           -0.6375900             -17.3497
        16        2.0000           -0.6304792             -17.1562
        17        2.0000           -0.6262251             -17.0405
        18        2.0000           -0.5935296             -16.1508 (HOMO)
        19                         -0.2369161              -6.4468 (LUMO)
        20                         -0.1882303              -5.1220
        21                         -0.1573016              -4.2804
        22                         -0.1353427              -3.6829
        23                         -0.0806204              -2.1938
        24                         -0.0602107              -1.6384
        25                         -0.0412189              -1.1216
        26                         -0.0364294              -0.9913
        27                         -0.0182888              -0.4977
        28                         -0.0053793              -0.1464
        29                         -0.0010202              -0.0278
       ...                                ...                  ...
        36                          0.1741033               4.7376
      -------------------------------------------------------------
                  HL-Gap            0.3566135 Eh            9.7039 eV

     #   Z          covCN         q      C6AA      α(0)
     1   6 C        3.690    -0.095    22.513     6.790
     2   7 N        3.594     0.054    20.289     6.690
     3   6 C        3.784    -0.034    21.201     6.559
     4   6 C        3.820    -0.079    21.983     6.672
     5   6 C        3.817    -0.080    22.015     6.678
     6   6 C        3.777    -0.036    21.241     6.566
     7   1 H        0.925     0.106     1.731     2.058
     8   1 H        0.925     0.107     1.720     2.051
     9   1 H        0.925     0.106     1.733     2.059
    10   1 H        0.859     0.231     0.959     1.534
    11   1 H        0.925     0.093     1.848     2.126
    12   1 H        0.924     0.101     1.778     2.085
    13   1 H        0.925     0.071     2.070     2.250
    14   1 H        0.925     0.094     1.841     2.122
    15   1 H        0.925     0.081     1.968     2.194
    16   1 H        0.925     0.088     1.902     2.157
    17   1 H        0.924     0.099     1.799     2.097
    18   1 H        0.925     0.092     1.857     2.131

Wiberg/Mayer (AO) data.
largest (>0.10) Wiberg bond orders for each atom

     #   Z sym  total        # sym  WBO       # sym  WBO       # sym  WBO
 ---------------------------------------------------------------------------
     1   6 C    3.919 --     7 H    0.974     9 H    0.974     8 H    0.974
                             2 N    0.965
     2   7 N    3.775 --     1 C    0.965     3 C    0.932     6 C    0.932
                            10 H    0.915
     3   6 C    3.922 --     4 C    1.009    11 H    0.970    12 H    0.967
                             2 N    0.932
     4   6 C    3.983 --     3 C    1.009     5 C    0.999    13 H    0.977
                            14 H    0.970
     5   6 C    3.981 --     6 C    1.002     4 C    0.999    15 H    0.977
                            16 H    0.975
     6   6 C    3.921 --     5 C    1.002    18 H    0.973    17 H    0.970
                             2 N    0.932
     7   1 H    0.988 --     1 C    0.974
     8   1 H    0.988 --     1 C    0.974
     9   1 H    0.989 --     1 C    0.974
    10   1 H    0.946 --     2 N    0.915
    11   1 H    0.991 --     3 C    0.970
    12   1 H    0.990 --     3 C    0.967
    13   1 H    0.995 --     4 C    0.977
    14   1 H    0.991 --     4 C    0.970
    15   1 H    0.993 --     5 C    0.977
    16   1 H    0.992 --     5 C    0.975
    17   1 H    0.990 --     6 C    0.970
    18   1 H    0.991 --     6 C    0.973
 ---------------------------------------------------------------------------

molecular dipole:
                 x           y           z       tot (Debye)
 q only:       -0.858       0.022      -0.178
   full:       -1.015       0.033      -0.356       2.736

           -------------------------------------------------
          | TOTAL ENERGY              -19.342066850877 Eh   |
          | GRADIENT NORM               0.000550761376 Eh/α |
          | HOMO-LUMO GAP               9.703946415997 eV   |
           -------------------------------------------------

 * finished run on 2024/12/20 at 07:06:11.524
