   * xtb version 6.7.1 (edcfbbe) compiled by 'conda@3ef47c1a292c' on 2024-11-25

   ID    Z sym.   atoms
    1    6 C      1-4, 6, 8, 9, 11
    2    7 N      5, 7
    3   53 I      10, 12
    4    1 H      13-25

          program call               : xtb C0961.xyz --opt --namespace C0961 --charge +1
          :  Hamiltonian                  GFN2-xTB          :
 * total energy  :   -36.8416441 Eh     change       -0.5547705E-09 Eh
 * total energy  :   -36.8455386 Eh     change       -0.3894504E-02 Eh
 * total energy  :   -36.8462063 Eh     change       -0.6676259E-03 Eh
 * total energy  :   -36.8463236 Eh     change       -0.1173728E-03 Eh
 * total energy  :   -36.8464240 Eh     change       -0.1003647E-03 Eh
 * total energy  :   -36.8464595 Eh     change       -0.3546849E-04 Eh
 * total energy  :   -36.8465107 Eh     change       -0.5118618E-04 Eh
 * total energy  :   -36.8466119 Eh     change       -0.1012529E-03 Eh
 * total energy  :   -36.8466536 Eh     change       -0.4168517E-04 Eh
 * total energy  :   -36.8466949 Eh     change       -0.4129619E-04 Eh
 * total energy  :   -36.8467903 Eh     change       -0.3056526E-04 Eh
 * total energy  :   -36.8468198 Eh     change       -0.2945504E-04 Eh
 * total energy  :   -36.8468276 Eh     change       -0.7824119E-05 Eh
 * total energy  :   -36.8468372 Eh     change       -0.9580838E-05 Eh
 * total energy  :   -36.8468483 Eh     change       -0.1105965E-04 Eh
 * total energy  :   -36.8468540 Eh     change       -0.5768925E-05 Eh
 * total energy  :   -36.8468611 Eh     change       -0.7062026E-05 Eh
 * total energy  :   -36.8468663 Eh     change       -0.5162324E-05 Eh
 * total energy  :   -36.8468700 Eh     change       -0.3749047E-05 Eh
   *** GEOMETRY OPTIMIZATION CONVERGED AFTER 22 ITERATIONS ***

 final structure:
================
25
 xtb: 6.7.1 (edcfbbe)
C            1.31808348573582        0.09120870579237       -0.22001575638724
C            0.41703181800022       -1.12801514965959       -0.37159314823487
C            0.77336744501526       -2.25611470605872        0.59906526161463
C            0.31214309910849       -1.99758603158853        2.03784035296994
N           -1.13355865484411       -1.99996912162927        2.13243550348644
C           -1.89874189993383       -3.08270464436061        1.99271266706518
N           -3.18521258989733       -2.74984687452321        2.06770859885822
C           -4.31003692814806       -3.63904125634087        1.96286400605744
C           -3.25525109562278       -1.39766504899351        2.26251916096941
I           -5.02711468157945       -0.33367745528703        2.44861721688044
C           -1.96167875966703       -0.92398052289467        2.30154815622797
I           -1.36423138084957        1.04083728005092        2.59931405228001
H            1.25179826922116        0.52653243829650        0.77403877388387
H            1.03263594674669        0.85435564664878       -0.93817068861389
H            2.35377303018130       -0.17938319718124       -0.40702110578489
H           -0.62930105819770       -0.83643353421561       -0.24271285978840
H            0.52071129601724       -1.51021845050099       -1.38771628743007
H            0.33922887616338       -3.19549638470902        0.25102706589329
H            1.85633652494307       -2.37952594246458        0.61754149531949
H            0.69796075914595       -2.77709478388279        2.69877510090862
H            0.67678600508543       -1.03017782342880        2.38507202147370
H           -1.52791453691348       -4.07957142186089        1.84973013938287
H           -3.95806252264400       -4.65879190052812        1.82598110683466
H           -4.91698537687796       -3.58378182765890        2.86803421360285
H           -4.93354707018876       -3.35410799302108        1.11354495253070

          :  Hamiltonian                  GFN2-xTB          :
         :: total energy             -36.846870005776 Eh    ::
         :: gradient norm              0.000299888878 Eh/a0 ::
         :: HOMO-LUMO gap              3.296187472971 eV    ::
         :: SCC energy               -37.286791044793 Eh    ::
         :: -> dispersion             -0.026274461398 Eh    ::
         :: repulsion energy           0.439921039018 Eh    ::

    * Orbital Energies and Occupations

         #    Occupation            Energy/Eh            Energy/eV
      -------------------------------------------------------------
         1        2.0000           -0.9158355             -24.9212
       ...           ...                  ...                  ...
        22        2.0000           -0.6467152             -17.5980
        23        2.0000           -0.6272248             -17.0677
        24        2.0000           -0.6230824             -16.9549
        25        2.0000           -0.6180443             -16.8178
        26        2.0000           -0.6021576             -16.3855
        27        2.0000           -0.5946972             -16.1825
        28        2.0000           -0.5696320             -15.5005
        29        2.0000           -0.5675094             -15.4427
        30        2.0000           -0.5652375             -15.3809
        31        2.0000           -0.5603231             -15.2472
        32        2.0000           -0.5540996             -15.0778
        33        2.0000           -0.5492615             -14.9462
        34        2.0000           -0.5464767             -14.8704 (HOMO)
        35                         -0.4253441             -11.5742 (LUMO)
        36                         -0.4011678             -10.9163
        37                         -0.3882091             -10.5637
        38                         -0.3872971             -10.5389
        39                         -0.2123150              -5.7774
        40                         -0.1647663              -4.4835
        41                         -0.1538739              -4.1871
        42                         -0.1492321              -4.0608
        43                         -0.1402878              -3.8174
        44                         -0.1356249              -3.6905
        45                         -0.1280975              -3.4857
       ...                                ...                  ...
        71                          0.3601168               9.7993
      -------------------------------------------------------------
                  HL-Gap            0.1211327 Eh            3.2962 eV

     #   Z          covCN         q      C6AA      α(0)
     1   6 C        3.752    -0.117    22.806     6.810
     2   6 C        3.800    -0.059    21.631     6.622
     3   6 C        3.802    -0.073    21.885     6.660
     4   6 C        3.743    -0.027    21.134     6.558
     5   7 N        2.913     0.049    20.374     6.704
     6   6 C        3.090     0.047    26.845     8.493
     7   7 N        2.922     0.056    20.254     6.684
     8   6 C        3.697    -0.085    22.298     6.754
     9   6 C        3.181     0.058    26.278     8.368
    10  53 I        1.234     0.027   369.971    33.204
    11   6 C        3.164     0.063    26.267     8.376
    12  53 I        1.231     0.028   369.907    33.201
    13   1 H        0.925     0.042     2.417     2.431
    14   1 H        0.925     0.058     2.228     2.334
    15   1 H        0.925     0.054     2.271     2.357
    16   1 H        0.924     0.025     2.656     2.549
    17   1 H        0.924     0.059     2.212     2.326
    18   1 H        0.924     0.049     2.334     2.389
    19   1 H        0.925     0.084     1.942     2.179
    20   1 H        0.924     0.089     1.887     2.148
    21   1 H        0.925     0.107     1.721     2.052
    22   1 H        0.926     0.125     1.575     1.962
    23   1 H        0.925     0.107     1.726     2.054
    24   1 H        0.924     0.117     1.638     2.002
    25   1 H        0.924     0.117     1.639     2.002

Wiberg/Mayer (AO) data.
largest (>0.10) Wiberg bond orders for each atom

     #   Z sym  total        # sym  WBO       # sym  WBO       # sym  WBO
 ---------------------------------------------------------------------------
     1   6 C    3.992 --     2 C    1.021    15 H    0.985    14 H    0.984
                            13 H    0.980
     2   6 C    3.994 --     1 C    1.021     3 C    1.007    16 H    0.975
                            17 H    0.973
     3   6 C    3.981 --     2 C    1.007     4 C    0.982    18 H    0.974
                            19 H    0.965
     4   6 C    3.920 --     3 C    0.982    20 H    0.958     5 N    0.957
                            21 H    0.953
     5   7 N    3.701 --     6 C    1.345    11 C    1.204     4 C    0.957
     6   6 C    3.940 --     7 N    1.347     5 N    1.345    22 H    0.949
     7   7 N    3.706 --     6 C    1.347     9 C    1.200     8 C    0.986
     8   6 C    3.921 --     7 N    0.986    23 H    0.972    24 H    0.957
                            25 H    0.957
     9   6 C    3.941 --    11 C    1.472     7 N    1.200    10 I    1.057
    10  53 I    1.230 --     9 C    1.057
    11   6 C    3.945 --     9 C    1.472     5 N    1.204    12 I    1.056
    12  53 I    1.254 --    11 C    1.056
    13   1 H    0.998 --     1 C    0.980
    14   1 H    0.997 --     1 C    0.984
    15   1 H    0.997 --     1 C    0.985
    16   1 H    0.999 --     2 C    0.975
    17   1 H    0.997 --     2 C    0.973
    18   1 H    0.998 --     3 C    0.974
    19   1 H    0.992 --     3 C    0.965
    20   1 H    0.991 --     4 C    0.958
    21   1 H    0.988 --     4 C    0.953
    22   1 H    0.984 --     6 C    0.949
    23   1 H    0.988 --     8 C    0.972
    24   1 H    0.986 --     8 C    0.957
    25   1 H    0.986 --     8 C    0.957
 ---------------------------------------------------------------------------

molecular dipole:
                 x           y           z       tot (Debye)
 q only:       -3.575      -4.750       3.463
   full:       -3.675      -4.874       3.576      17.981

           -------------------------------------------------
          | TOTAL ENERGY              -36.846870005776 Eh   |
          | GRADIENT NORM               0.000299888878 Eh/α |
          | HOMO-LUMO GAP               3.296187472971 eV   |
           -------------------------------------------------

 * finished run on 2024/12/20 at 07:06:08.841
