   * xtb version 6.7.1 (edcfbbe) compiled by 'conda@3ef47c1a292c' on 2024-11-25

   ID    Z sym.   atoms
    1    6 C      1, 2, 4, 6, 8-16
    2    8 O      3, 5
    3    7 N      7
    4    1 H      17-44

          program call               : xtb C0976.xyz --opt --namespace C0976 --charge +1
          :  Hamiltonian                  GFN2-xTB          :
 * total energy  :   -52.7667443 Eh     change       -0.6597816E-09 Eh
 * total energy  :   -52.7788717 Eh     change       -0.1212748E-01 Eh
 * total energy  :   -52.7821153 Eh     change       -0.3243516E-02 Eh
 * total energy  :   -52.7825006 Eh     change       -0.3852978E-03 Eh
 * total energy  :   -52.7828133 Eh     change       -0.3127422E-03 Eh
 * total energy  :   -52.7832044 Eh     change       -0.3910479E-03 Eh
 * total energy  :   -52.7837724 Eh     change       -0.5680370E-03 Eh
 * total energy  :   -52.7843720 Eh     change       -0.5996479E-03 Eh
 * total energy  :   -52.7849365 Eh     change       -0.5644972E-03 Eh
 * total energy  :   -52.7853158 Eh     change       -0.3792285E-03 Eh
 * total energy  :   -52.7867687 Eh     change       -0.1643433E-04 Eh
 * total energy  :   -52.7867866 Eh     change       -0.1786925E-04 Eh
 * total energy  :   -52.7868022 Eh     change       -0.1557514E-04 Eh
 * total energy  :   -52.7868123 Eh     change       -0.1013004E-04 Eh
 * total energy  :   -52.7868273 Eh     change       -0.1496466E-04 Eh
 * total energy  :   -52.7868323 Eh     change       -0.5031404E-05 Eh
 * total energy  :   -52.7868381 Eh     change       -0.5827926E-05 Eh
 * total energy  :   -52.7868432 Eh     change       -0.5081578E-05 Eh
 * total energy  :   -52.7868462 Eh     change       -0.2951519E-05 Eh
   *** GEOMETRY OPTIMIZATION CONVERGED AFTER 29 ITERATIONS ***

 final structure:
================
44
 xtb: 6.7.1 (edcfbbe)
C            0.86121311638199       -0.71472010564139       -0.35048147253468
C            0.42696571316012       -1.67610188226824        0.74235745873404
O            1.01368202602142       -1.32292947222870        2.01434351190880
C            2.22774378915451       -1.78789128896288        2.27225317677059
O            2.87799097970471       -2.48530177471565        1.55124399055589
C            2.76121558163961       -1.40432530866346        3.66466284867808
N            2.39282695423413       -0.08857658294678        4.22896167934354
C            0.91492399506532        0.00077417022088        4.52445063410591
C            0.19986168065255       -1.23805798472940        5.07067219271212
C            0.59214736309101       -1.72597041744365        6.46227841651452
C            3.12803643369113        0.16462401736591        5.52080800171629
C            4.50913776605956       -0.46042752371235        5.72050423003760
C            5.09527737029147        0.06369389619166        7.03065317551917
C            2.67574247195148        1.01333464130205        3.24474926155954
C            4.12481320235873        1.38497275888269        2.92026171818127
C            4.87730008539681        0.43447371761528        1.99321808942307
H            0.59457644256979        0.30896290586160       -0.09606275293913
H            0.36053350668982       -0.98224196121336       -1.27550075427229
H            1.93482854806835       -0.78062172956007       -0.51124150075673
H           -0.64909797539222       -1.62674825756288        0.91376963035388
H            0.72364130771020       -2.69818189865613        0.49442437523406
H            2.44209044873122       -2.19083394434023        4.35239980952276
H            3.84455800384546       -1.46465317401865        3.57312549561208
H            0.78291550312881        0.83086321158359        5.22173526825224
H            0.41421636770502        0.25693217836251        3.59077713242912
H           -0.85262820606800       -0.94732411583279        5.10859248338793
H            0.26198101034977       -2.05799042577244        4.35556357131717
H            0.53782370385156       -0.92001238730596        7.19114644993426
H           -0.11327425973758       -2.49161195297770        6.77475814289075
H            1.58273293238906       -2.17454428312283        6.49373691543772
H            3.21281064583182        1.24853119230905        5.62512105966406
H            2.49877856368293       -0.19555960162389        6.33225901834276
H            4.43485372948278       -1.54624171999520        5.78825685939238
H            5.19512514907508       -0.21288106196764        4.91222908294438
H            4.45286774134392       -0.18394988683014        7.87142159248828
H            6.06809898266696       -0.38535314679560        7.20453532788949
H            5.22121295215130        1.14278813857960        6.99896017515502
H            2.17301223508634        0.75031514818212        2.31278392706321
H            2.18991635514151        1.90520996899837        3.64844234614590
H            4.04803608445635        2.34689409042550        2.40732701985497
H            4.70070139338370        1.56682472436394        3.82627808752373
H            4.25272053439355        0.12374493314438        1.15995851989749
H            5.74223191756614        0.94899847449054        1.58374865750681
H            5.24584785303924       -0.45559627900736        2.49516714650576

          :  Hamiltonian                  GFN2-xTB          :
         :: total energy             -52.786846162028 Eh    ::
         :: gradient norm              0.000495723251 Eh/a0 ::
         :: HOMO-LUMO gap              5.089860820937 eV    ::
         :: SCC energy               -53.463031503689 Eh    ::
         :: -> dispersion             -0.037729357070 Eh    ::
         :: repulsion energy           0.676185341661 Eh    ::

    * Orbital Energies and Occupations

         #    Occupation            Energy/Eh            Energy/eV
      -------------------------------------------------------------
         1        2.0000           -0.8885077             -24.1775
       ...           ...                  ...                  ...
        36        2.0000           -0.5976778             -16.2636
        37        2.0000           -0.5922473             -16.1159
        38        2.0000           -0.5898979             -16.0519
        39        2.0000           -0.5821745             -15.8418
        40        2.0000           -0.5800581             -15.7842
        41        2.0000           -0.5772432             -15.7076
        42        2.0000           -0.5744764             -15.6323
        43        2.0000           -0.5726540             -15.5827
        44        2.0000           -0.5719460             -15.5634
        45        2.0000           -0.5676899             -15.4476
        46        2.0000           -0.5659219             -15.3995
        47        2.0000           -0.5634894             -15.3333
        48        2.0000           -0.5582608             -15.1911 (HOMO)
        49                         -0.3712119             -10.1012 (LUMO)
        50                         -0.2428511              -6.6083
        51                         -0.1867481              -5.0817
        52                         -0.1651518              -4.4940
        53                         -0.1528133              -4.1583
        54                         -0.1426306              -3.8812
        55                         -0.0754681              -2.0536
        56                         -0.0558000              -1.5184
        57                         -0.0509765              -1.3871
        58                         -0.0435351              -1.1846
        59                         -0.0349416              -0.9508
       ...                                ...                  ...
        92                          0.5285334              14.3821
      -------------------------------------------------------------
                  HL-Gap            0.1870489 Eh            5.0899 eV

     #   Z          covCN         q      C6AA      α(0)
     1   6 C        3.750    -0.120    22.864     6.819
     2   6 C        3.696     0.069    19.583     6.330
     3   8 O        1.701    -0.266    18.404     5.792
     4   6 C        2.710     0.359    20.911     7.485
     5   8 O        0.857    -0.366    21.014     6.146
     6   6 C        3.751    -0.066    21.833     6.664
     7   7 N        3.615     0.109    19.368     6.536
     8   6 C        3.759    -0.043    21.386     6.593
     9   6 C        3.798    -0.070    21.835     6.653
    10   6 C        3.750    -0.118    22.815     6.812
    11   6 C        3.756    -0.044    21.422     6.599
    12   6 C        3.799    -0.067    21.781     6.645
    13   6 C        3.755    -0.118    22.807     6.810
    14   6 C        3.757    -0.037    21.288     6.578
    15   6 C        3.798    -0.069    21.828     6.652
    16   6 C        3.751    -0.117    22.807     6.811
    17   1 H        0.925     0.055     2.263     2.353
    18   1 H        0.925     0.074     2.040     2.233
    19   1 H        0.925     0.063     2.164     2.300
    20   1 H        0.924     0.074     2.038     2.232
    21   1 H        0.924     0.076     2.019     2.222
    22   1 H        0.924     0.112     1.679     2.026
    23   1 H        0.925     0.120     1.613     1.986
    24   1 H        0.924     0.080     1.977     2.199
    25   1 H        0.925     0.094     1.842     2.122
    26   1 H        0.924     0.076     2.016     2.221
    27   1 H        0.925     0.060     2.196     2.317
    28   1 H        0.925     0.050     2.317     2.380
    29   1 H        0.925     0.068     2.111     2.272
    30   1 H        0.925     0.041     2.436     2.441
    31   1 H        0.924     0.083     1.949     2.183
    32   1 H        0.925     0.097     1.816     2.107
    33   1 H        0.924     0.053     2.277     2.360
    34   1 H        0.925     0.059     2.216     2.328
    35   1 H        0.925     0.052     2.292     2.367
    36   1 H        0.925     0.068     2.103     2.268
    37   1 H        0.925     0.051     2.305     2.374
    38   1 H        0.924     0.084     1.934     2.175
    39   1 H        0.924     0.075     2.030     2.228
    40   1 H        0.924     0.073     2.052     2.240
    41   1 H        0.925     0.062     2.171     2.304
    42   1 H        0.925     0.050     2.326     2.385
    43   1 H        0.925     0.067     2.121     2.278
    44   1 H        0.925     0.044     2.395     2.420

Wiberg/Mayer (AO) data.
largest (>0.10) Wiberg bond orders for each atom

     #   Z sym  total        # sym  WBO       # sym  WBO       # sym  WBO
 ---------------------------------------------------------------------------
     1   6 C    3.987 --     2 C    1.016    17 H    0.985    19 H    0.984
                            18 H    0.978
     2   6 C    3.901 --     1 C    1.016    20 H    0.970    21 H    0.969
                             3 O    0.906
     3   8 O    2.324 --     4 C    1.161     2 C    0.906     5 O    0.188
     4   6 C    3.937 --     5 O    1.780     3 O    1.161     6 C    0.940
     5   8 O    2.085 --     4 C    1.780     3 O    0.188
     6   6 C    3.940 --     7 N    0.958    23 H    0.945     4 C    0.940
                            22 H    0.939
     7   7 N    3.799 --     6 C    0.958    14 C    0.925     8 C    0.920
                            11 C    0.919
     8   6 C    3.928 --     9 C    1.007    24 H    0.968    25 H    0.963
                             7 N    0.920
     9   6 C    3.985 --    10 C    1.019     8 C    1.007    27 H    0.970
                            26 H    0.963
    10   6 C    3.991 --     9 C    1.019    28 H    0.983    30 H    0.981
                            29 H    0.980
    11   6 C    3.924 --    12 C    1.007    31 H    0.966    32 H    0.959
                             7 N    0.919
    12   6 C    3.988 --    13 C    1.010    11 C    1.007    33 H    0.975
                            34 H    0.968
    13   6 C    3.988 --    12 C    1.010    35 H    0.986    37 H    0.986
                            36 H    0.982
    14   6 C    3.931 --    15 C    1.006    39 H    0.969    38 H    0.963
                             7 N    0.925
    15   6 C    3.985 --    16 C    1.020    14 C    1.006    41 H    0.967
                            40 H    0.964
    16   6 C    3.990 --    15 C    1.020    42 H    0.984    43 H    0.982
                            44 H    0.978
    17   1 H    0.997 --     1 C    0.985
    18   1 H    0.994 --     1 C    0.978
    19   1 H    0.996 --     1 C    0.984
    20   1 H    0.994 --     2 C    0.970
    21   1 H    0.994 --     2 C    0.969
    22   1 H    0.987 --     6 C    0.939
    23   1 H    0.986 --     6 C    0.945
    24   1 H    0.993 --     8 C    0.968
    25   1 H    0.991 --     8 C    0.963
    26   1 H    0.994 --     9 C    0.963
    27   1 H    0.996 --     9 C    0.970
    28   1 H    0.997 --    10 C    0.983
    29   1 H    0.995 --    10 C    0.980
    30   1 H    0.998 --    10 C    0.981
    31   1 H    0.993 --    11 C    0.966
    32   1 H    0.991 --    11 C    0.959
    33   1 H    0.997 --    12 C    0.975
    34   1 H    0.997 --    12 C    0.968
    35   1 H    0.997 --    13 C    0.986
    36   1 H    0.995 --    13 C    0.982
    37   1 H    0.997 --    13 C    0.986
    38   1 H    0.993 --    14 C    0.963
    39   1 H    0.994 --    14 C    0.969
    40   1 H    0.994 --    15 C    0.964
    41   1 H    0.996 --    15 C    0.967
    42   1 H    0.998 --    16 C    0.984
    43   1 H    0.995 --    16 C    0.982
    44   1 H    0.998 --    16 C    0.978
 ---------------------------------------------------------------------------

molecular dipole:
                 x           y           z       tot (Debye)
 q only:        4.061       0.128       7.915
   full:        3.901       0.179       7.980      22.582

           -------------------------------------------------
          | TOTAL ENERGY              -52.786846162028 Eh   |
          | GRADIENT NORM               0.000495723251 Eh/α |
          | HOMO-LUMO GAP               5.089860820937 eV   |
           -------------------------------------------------

 * finished run on 2024/12/20 at 07:06:32.310
