   * xtb version 6.7.1 (edcfbbe) compiled by 'conda@3ef47c1a292c' on 2024-11-25

   ID    Z sym.   atoms
    1    6 C      1-3, 5, 7, 9-13
    2    8 O      4, 6
    3    7 N      8
    4    1 H      14-27

          program call               : xtb C0973.xyz --opt --namespace C0973 --charge +1
          :  Hamiltonian                  GFN2-xTB          :
 * total energy  :   -39.1956081 Eh     change       -0.2967795E-09 Eh
 * total energy  :   -39.2009111 Eh     change       -0.5303017E-02 Eh
 * total energy  :   -39.2020712 Eh     change       -0.1160075E-02 Eh
 * total energy  :   -39.2023455 Eh     change       -0.2742975E-03 Eh
 * total energy  :   -39.2024754 Eh     change       -0.1299122E-03 Eh
 * total energy  :   -39.2025352 Eh     change       -0.5977905E-04 Eh
 * total energy  :   -39.2025967 Eh     change       -0.6155695E-04 Eh
 * total energy  :   -39.2026740 Eh     change       -0.7727872E-04 Eh
 * total energy  :   -39.2027578 Eh     change       -0.8377430E-04 Eh
 * total energy  :   -39.2028311 Eh     change       -0.7325463E-04 Eh
 * total energy  :   -39.2029517 Eh     change       -0.1564080E-04 Eh
 * total energy  :   -39.2029632 Eh     change       -0.1149709E-04 Eh
 * total energy  :   -39.2029776 Eh     change       -0.1448264E-04 Eh
 * total energy  :   -39.2029898 Eh     change       -0.1217928E-04 Eh
 * total energy  :   -39.2030031 Eh     change       -0.1332510E-04 Eh
 * total energy  :   -39.2030132 Eh     change       -0.1008697E-04 Eh
 * total energy  :   -39.2030204 Eh     change       -0.7145395E-05 Eh
 * total energy  :   -39.2030267 Eh     change       -0.6342963E-05 Eh
 * total energy  :   -39.2030292 Eh     change       -0.2469488E-05 Eh
   *** GEOMETRY OPTIMIZATION CONVERGED AFTER 22 ITERATIONS ***

 final structure:
================
27
 xtb: 6.7.1 (edcfbbe)
C            0.92578280724589        0.30597130453748       -0.34921491804686
C            0.24991380452588       -0.48737109567252       -1.46101188109634
C            0.67998323742530       -1.94980570256888       -1.47675109374724
O            0.17509909298483       -2.63069997121080       -0.30650736336442
C            1.03327135759713       -2.96685323915818        0.63596710918960
O            2.21598750246537       -2.83722922490023        0.63980542003035
C            0.28308942913356       -3.61749174702128        1.84042213765013
N           -1.14165797553171       -3.64766643057831        1.63968702329713
C           -1.72280491069648       -4.73236132675598        1.11205700995487
C           -3.07336682384980       -4.75325726476323        0.83281289797279
C           -3.84038254359134       -3.62528085587641        1.09509685697409
C           -3.21737122630350       -2.50741571487139        1.63646445648876
C           -1.86434736228014       -2.54878878281192        1.89637020375269
H            0.66891230631657       -0.09019088435402        0.63193207325138
H            0.61027086441566        1.34448690712408       -0.38714363914358
H            2.00659537012006        0.27135469594412       -0.45815675702511
H           -0.83595941227362       -0.43589241419173       -1.35592982214657
H            0.51542274040983       -0.05937165558497       -2.42742671526763
H            0.24990667820040       -2.47712870603337       -2.33039781626716
H            1.76891571069820       -2.03810013367695       -1.49164192439852
H            0.68474018362970       -4.62551462761008        1.96501976964870
H            0.54230230240154       -3.03561399778103        2.72850993335104
H           -1.09371238732336       -5.58858692285635        0.91734981301016
H           -3.51647312371293       -5.64253919015117        0.41364954165303
H           -4.89791632692034       -3.61695086637470        0.88248480369290
H           -3.77499752272243       -1.61085893265757        1.85582620248752
H           -1.34415377236481       -1.70049322014505        2.31653667809788

          :  Hamiltonian                  GFN2-xTB          :
         :: total energy             -39.203029183235 Eh    ::
         :: gradient norm              0.000247885685 Eh/a0 ::
         :: HOMO-LUMO gap              2.225280469262 eV    ::
         :: SCC energy               -39.750831116787 Eh    ::
         :: -> dispersion             -0.021123300745 Eh    ::
         :: repulsion energy           0.547801933552 Eh    ::

    * Orbital Energies and Occupations

         #    Occupation            Energy/Eh            Energy/eV
      -------------------------------------------------------------
         1        2.0000           -0.8997492             -24.4834
       ...           ...                  ...                  ...
        23        2.0000           -0.6486853             -17.6516
        24        2.0000           -0.6405211             -17.4295
        25        2.0000           -0.6341102             -17.2550
        26        2.0000           -0.6303450             -17.1526
        27        2.0000           -0.6297565             -17.1365
        28        2.0000           -0.6230403             -16.9538
        29        2.0000           -0.6220851             -16.9278
        30        2.0000           -0.5997695             -16.3206
        31        2.0000           -0.5913411             -16.0912
        32        2.0000           -0.5732424             -15.5987
        33        2.0000           -0.5644874             -15.3605
        34        2.0000           -0.5537892             -15.0694
        35        2.0000           -0.5491678             -14.9436 (HOMO)
        36                         -0.4673903             -12.7183 (LUMO)
        37                         -0.4353758             -11.8472
        38                         -0.3749447             -10.2028
        39                         -0.3154333              -8.5834
        40                         -0.1782109              -4.8494
        41                         -0.1607964              -4.3755
        42                         -0.0832860              -2.2663
        43                         -0.0522221              -1.4210
        44                         -0.0479542              -1.3049
        45                         -0.0350265              -0.9531
        46                         -0.0225986              -0.6149
       ...                                ...                  ...
        66                          0.5525618              15.0360
      -------------------------------------------------------------
                  HL-Gap            0.0817776 Eh            2.2253 eV

     #   Z          covCN         q      C6AA      α(0)
     1   6 C        3.752    -0.108    22.617     6.782
     2   6 C        3.799    -0.065    21.746     6.640
     3   6 C        3.696     0.063    19.689     6.347
     4   8 O        1.702    -0.260    18.308     5.777
     5   6 C        2.707     0.365    20.808     7.467
     6   8 O        0.856    -0.341    20.535     6.076
     7   6 C        3.761    -0.070    21.892     6.670
     8   7 N        2.749     0.127    19.081     6.488
     9   6 C        2.892     0.034    27.242     8.557
    10   6 C        2.915    -0.007    28.194     8.707
    11   6 C        2.925     0.015    27.673     8.627
    12   6 C        2.915    -0.007    28.197     8.708
    13   6 C        2.894     0.035    27.214     8.553
    14   1 H        0.925     0.026     2.645     2.543
    15   1 H        0.925     0.058     2.222     2.331
    16   1 H        0.925     0.059     2.215     2.327
    17   1 H        0.924     0.050     2.319     2.381
    18   1 H        0.925     0.069     2.100     2.266
    19   1 H        0.924     0.071     2.075     2.253
    20   1 H        0.924     0.082     1.955     2.186
    21   1 H        0.924     0.121     1.602     1.979
    22   1 H        0.924     0.123     1.592     1.973
    23   1 H        0.926     0.112     1.678     2.026
    24   1 H        0.926     0.113     1.671     2.021
    25   1 H        0.926     0.111     1.684     2.029
    26   1 H        0.926     0.112     1.675     2.024
    27   1 H        0.926     0.111     1.688     2.032

Wiberg/Mayer (AO) data.
largest (>0.10) Wiberg bond orders for each atom

     #   Z sym  total        # sym  WBO       # sym  WBO       # sym  WBO
 ---------------------------------------------------------------------------
     1   6 C    3.993 --     2 C    1.021    14 H    0.988    16 H    0.985
                            15 H    0.984
     2   6 C    3.990 --     1 C    1.021     3 C    1.000    17 H    0.975
                            18 H    0.968
     3   6 C    3.892 --     2 C    1.000    19 H    0.967    20 H    0.967
                             4 O    0.900
     4   8 O    2.332 --     5 C    1.181     3 C    0.900     6 O    0.193
     5   6 C    3.941 --     6 O    1.792     4 O    1.181     7 C    0.892
     6   8 O    2.124 --     5 C    1.792     4 O    0.193
     7   6 C    3.939 --     8 N    0.994    21 H    0.948    22 H    0.945
                             5 C    0.892
     8   7 N    3.773 --     9 C    1.318    13 C    1.314     7 C    0.994
     9   6 C    3.955 --    10 C    1.464     8 N    1.318    23 H    0.954
    10   6 C    3.979 --     9 C    1.464    11 C    1.421    24 H    0.958
    11   6 C    3.961 --    10 C    1.421    12 C    1.417    25 H    0.960
    12   6 C    3.980 --    13 C    1.469    11 C    1.417    26 H    0.958
    13   6 C    3.956 --    12 C    1.469     8 N    1.314    27 H    0.955
    14   1 H    0.999 --     1 C    0.988
    15   1 H    0.997 --     1 C    0.984
    16   1 H    0.997 --     1 C    0.985
    17   1 H    0.997 --     2 C    0.975
    18   1 H    0.994 --     2 C    0.968
    19   1 H    0.995 --     3 C    0.967
    20   1 H    0.993 --     3 C    0.967
    21   1 H    0.985 --     7 C    0.948
    22   1 H    0.985 --     7 C    0.945
    23   1 H    0.987 --     9 C    0.954
    24   1 H    0.987 --    10 C    0.958
    25   1 H    0.988 --    11 C    0.960
    26   1 H    0.987 --    12 C    0.958
    27   1 H    0.988 --    13 C    0.955
 ---------------------------------------------------------------------------

molecular dipole:
                 x           y           z       tot (Debye)
 q only:       -3.708      -6.175       1.978
   full:       -3.761      -6.292       2.024      19.330

           -------------------------------------------------
          | TOTAL ENERGY              -39.203029183235 Eh   |
          | GRADIENT NORM               0.000247885685 Eh/α |
          | HOMO-LUMO GAP               2.225280469262 eV   |
           -------------------------------------------------

 * finished run on 2024/12/20 at 07:06:28.776
