   * xtb version 6.7.1 (edcfbbe) compiled by 'conda@3ef47c1a292c' on 2024-11-25

   ID    Z sym.   atoms
    1    6 C      1, 2, 4-7
    2    7 N      3
    3    1 H      8-23

          program call               : xtb C0978.xyz --opt --namespace C0978 --charge +1
          :  Hamiltonian                  GFN2-xTB          :
 * total energy  :   -23.5194841 Eh     change       -0.2198171E-09 Eh
 * total energy  :   -23.5207230 Eh     change       -0.1238943E-02 Eh
 * total energy  :   -23.5208714 Eh     change       -0.1484142E-03 Eh
 * total energy  :   -23.5208996 Eh     change       -0.2818053E-04 Eh
 * total energy  :   -23.5209263 Eh     change       -0.2665541E-04 Eh
 * total energy  :   -23.5209392 Eh     change       -0.1298922E-04 Eh
 * total energy  :   -23.5209661 Eh     change       -0.2685002E-04 Eh
 * total energy  :   -23.5209754 Eh     change       -0.9337229E-05 Eh
 * total energy  :   -23.5209820 Eh     change       -0.6570929E-05 Eh
 * total energy  :   -23.5209875 Eh     change       -0.5492173E-05 Eh
 * total energy  :   -23.5209917 Eh     change       -0.4192691E-05 Eh
   *** GEOMETRY OPTIMIZATION CONVERGED AFTER 11 ITERATIONS ***

 final structure:
================
23
 xtb: 6.7.1 (edcfbbe)
C            0.92843547250183       -0.04691476616082        0.01825481483265
C            0.44944621390680       -0.36356338774836        1.42405460488367
N            0.68966793742727        0.80692614110450        2.36123290266618
C            0.40262343848311        2.22548839226508        1.93548256469578
C           -1.08845982971523        2.51169440478127        1.94683869789743
C            1.14613737074532        3.14074667143729        2.89929277109690
C           -1.00391324323448       -0.80536856887085        1.45808185401306
H            0.27480078016600        0.66391472899352       -0.47934599897713
H            0.92007708492185       -0.96180086606432       -0.56752740910530
H            1.94714261682065        0.33334835312376        0.01755461074937
H            1.06265952594609       -1.17441367069869        1.83274642256647
H            0.14937485811310        0.63264554421610        3.21822309388449
H            1.68277669860943        0.79080578312585        2.61809397893089
H            0.80660276591630        2.35343506696157        0.92952756979450
H           -1.53026345420183        2.26225860814361        2.90922927498170
H           -1.24645379769485        3.57297428286366        1.77682161356680
H           -1.61635195764583        1.97748802850889        1.16419464323151
H            2.21555367286568        2.93897287949442        2.90264521053466
H            1.01325025502260        4.17498698009471        2.59632663668167
H            0.76253177122451        3.04200195326352        3.91248703348628
H           -1.08754603389171       -1.76978370111290        0.96447922968967
H           -1.36083994766450       -0.92902223098291        2.47814708720270
H           -1.65623219862196       -0.11475062673892        0.93432879269597

          :  Hamiltonian                  GFN2-xTB          :
         :: total energy             -23.520991689558 Eh    ::
         :: gradient norm              0.000364065021 Eh/a0 ::
         :: HOMO-LUMO gap              9.199563403577 eV    ::
         :: SCC energy               -23.866326246421 Eh    ::
         :: -> dispersion             -0.013220321978 Eh    ::
         :: repulsion energy           0.345334556863 Eh    ::

    * Orbital Energies and Occupations

         #    Occupation            Energy/Eh            Energy/eV
      -------------------------------------------------------------
         1        2.0000           -0.8683619             -23.6293
       ...           ...                  ...                  ...
        10        2.0000           -0.7061191             -19.2145
        11        2.0000           -0.6717828             -18.2801
        12        2.0000           -0.6683380             -18.1864
        13        2.0000           -0.6488607             -17.6564
        14        2.0000           -0.6422397             -17.4762
        15        2.0000           -0.6321084             -17.2005
        16        2.0000           -0.6231108             -16.9557
        17        2.0000           -0.6207961             -16.8927
        18        2.0000           -0.6186953             -16.8356
        19        2.0000           -0.6125533             -16.6684
        20        2.0000           -0.6093748             -16.5819
        21        2.0000           -0.6036967             -16.4274
        22        2.0000           -0.5964888             -16.2313 (HOMO)
        23                         -0.2584110              -7.0317 (LUMO)
        24                         -0.1604161              -4.3651
        25                         -0.1503280              -4.0906
        26                         -0.1034928              -2.8162
        27                         -0.0692544              -1.8845
        28                         -0.0684347              -1.8622
        29                         -0.0421696              -1.1475
        30                         -0.0370711              -1.0088
        31                         -0.0175601              -0.4778
        32                          0.0020894               0.0569
        33                          0.0278216               0.7571
       ...                                ...                  ...
        44                          0.1631501               4.4395
      -------------------------------------------------------------
                  HL-Gap            0.3380777 Eh            9.1996 eV

     #   Z          covCN         q      C6AA      α(0)
     1   6 C        3.754    -0.136    23.168     6.863
     2   6 C        3.777     0.033    20.051     6.380
     3   7 N        3.529    -0.069    22.574     7.057
     4   6 C        3.778     0.029    20.117     6.390
     5   6 C        3.755    -0.136    23.174     6.864
     6   6 C        3.757    -0.142    23.294     6.881
     7   6 C        3.754    -0.137    23.202     6.868
     8   1 H        0.925     0.074     2.043     2.235
     9   1 H        0.925     0.091     1.869     2.138
    10   1 H        0.925     0.065     2.145     2.291
    11   1 H        0.924     0.079     1.994     2.208
    12   1 H        0.859     0.243     0.913     1.496
    13   1 H        0.859     0.240     0.923     1.505
    14   1 H        0.924     0.094     1.838     2.120
    15   1 H        0.925     0.065     2.143     2.289
    16   1 H        0.925     0.089     1.885     2.147
    17   1 H        0.925     0.071     2.075     2.252
    18   1 H        0.925     0.061     2.192     2.315
    19   1 H        0.925     0.093     1.848     2.126
    20   1 H        0.925     0.068     2.109     2.271
    21   1 H        0.925     0.090     1.883     2.146
    22   1 H        0.925     0.062     2.177     2.307
    23   1 H        0.925     0.076     2.022     2.224

Wiberg/Mayer (AO) data.
largest (>0.10) Wiberg bond orders for each atom

     #   Z sym  total        # sym  WBO       # sym  WBO       # sym  WBO
 ---------------------------------------------------------------------------
     1   6 C    3.981 --     2 C    1.015    10 H    0.980     8 H    0.979
                             9 H    0.971
     2   6 C    3.919 --     7 C    1.016     1 C    1.015    11 H    0.961
                             3 N    0.894
     3   7 N    3.706 --    13 H    0.916    12 H    0.910     4 C    0.903
                             2 C    0.894
     4   6 C    3.917 --     5 C    1.016     6 C    1.010    14 H    0.956
                             3 N    0.903
     5   6 C    3.981 --     4 C    1.016    15 H    0.980    17 H    0.976
                            16 H    0.972
     6   6 C    3.982 --     4 C    1.010    20 H    0.982    18 H    0.980
                            19 H    0.972
     7   6 C    3.981 --     2 C    1.016    22 H    0.979    23 H    0.975
                            21 H    0.972
     8   1 H    0.995 --     1 C    0.979
     9   1 H    0.991 --     1 C    0.971
    10   1 H    0.996 --     1 C    0.980
    11   1 H    0.994 --     2 C    0.961
    12   1 H    0.941 --     3 N    0.910
    13   1 H    0.942 --     3 N    0.916
    14   1 H    0.991 --     4 C    0.956
    15   1 H    0.996 --     5 C    0.980
    16   1 H    0.992 --     5 C    0.972
    17   1 H    0.995 --     5 C    0.976
    18   1 H    0.996 --     6 C    0.980
    19   1 H    0.991 --     6 C    0.972
    20   1 H    0.995 --     6 C    0.982
    21   1 H    0.991 --     7 C    0.972
    22   1 H    0.996 --     7 C    0.979
    23   1 H    0.994 --     7 C    0.975
 ---------------------------------------------------------------------------

molecular dipole:
                 x           y           z       tot (Debye)
 q only:        0.856       1.769       3.851
   full:        1.013       1.689       4.082      11.520

           -------------------------------------------------
          | TOTAL ENERGY              -23.520991689558 Eh   |
          | GRADIENT NORM               0.000364065021 Eh/α |
          | HOMO-LUMO GAP               9.199563403577 eV   |
           -------------------------------------------------

 * finished run on 2024/12/20 at 07:06:34.098
