   * xtb version 6.7.1 (edcfbbe) compiled by 'conda@3ef47c1a292c' on 2024-11-25

   ID    Z sym.   atoms
    1    6 C      1, 2, 4, 6, 8-12
    2    8 O      3, 5
    3    7 N      7
    4    1 H      13-30

          program call               : xtb C0977.xyz --opt --namespace C0977 --charge +1
          :  Hamiltonian                  GFN2-xTB          :
 * total energy  :   -39.0648937 Eh     change       -0.3680256E-09 Eh
 * total energy  :   -39.0744729 Eh     change       -0.9579182E-02 Eh
 * total energy  :   -39.0767818 Eh     change       -0.2308956E-02 Eh
 * total energy  :   -39.0772141 Eh     change       -0.4322365E-03 Eh
 * total energy  :   -39.0773442 Eh     change       -0.1301272E-03 Eh
 * total energy  :   -39.0774142 Eh     change       -0.7003581E-04 Eh
 * total energy  :   -39.0774715 Eh     change       -0.5723528E-04 Eh
 * total energy  :   -39.0775397 Eh     change       -0.6822645E-04 Eh
 * total energy  :   -39.0776346 Eh     change       -0.9484790E-04 Eh
 * total energy  :   -39.0777702 Eh     change       -0.1356047E-03 Eh
 * total energy  :   -39.0829717 Eh     change       -0.2491740E-04 Eh
 * total energy  :   -39.0829848 Eh     change       -0.1311363E-04 Eh
 * total energy  :   -39.0829928 Eh     change       -0.8035178E-05 Eh
 * total energy  :   -39.0830136 Eh     change       -0.2078670E-04 Eh
 * total energy  :   -39.0830241 Eh     change       -0.1041749E-04 Eh
 * total energy  :   -39.0830367 Eh     change       -0.1268314E-04 Eh
 * total energy  :   -39.0830142 Eh     change        0.2250441E-04 Eh
 * total energy  :   -39.0830547 Eh     change       -0.4046974E-04 Eh
 * total energy  :   -39.0830583 Eh     change       -0.3616002E-05 Eh
   *** GEOMETRY OPTIMIZATION CONVERGED AFTER 69 ITERATIONS ***

 final structure:
================
30
 xtb: 6.7.1 (edcfbbe)
C           -0.05646798305937        1.07855426835790       -0.80149349674449
C            1.46084369064465        1.04197917208203       -0.84788830587956
O            1.92710933888809        0.31151864094645       -2.00400478106389
C            2.00558132772173       -0.99198262022369       -1.92018060556234
O            1.74105160531784       -1.67573351294726       -0.96879438058709
C            2.53342303354176       -1.54511111506472       -3.26163320028671
N            2.46711090345993       -3.01806651626520       -3.40146577783984
C            1.07320178603790       -3.52903185600447       -3.16769943594305
C            0.03477292409544       -2.85073681023913       -4.01165089365849
C           -0.56796505324918       -3.43669420564965       -5.03084523917043
C            2.88655989454742       -3.37474389038397       -4.76981164348280
C            3.37893068088713       -3.65929498061403       -2.43344037052076
H           -0.45534009307698        1.49534122011760       -1.72250019158237
H           -0.37032233367645        1.70361368923380        0.02830946756213
H           -0.46024978467051        0.08013832753951       -0.65339423710604
H            1.87906694884090        2.04075761850283       -0.97178815084094
H            1.86580185458781        0.57094319815709        0.05134285753123
H            1.96511037840867       -1.07290923232556       -4.06543343879269
H            3.57393651189847       -1.22186592102467       -3.35487198403025
H            1.08028529002394       -4.59950398478998       -3.38042284589092
H            0.84123276591836       -3.38036707774662       -2.11089657081657
H           -0.24981203873710       -1.85261932393566       -3.70997446593201
H           -1.33929455871635       -2.93907660743821       -5.59114839346535
H           -0.33365625617124       -4.44326332881644       -5.33738944011035
H            3.87416481430721       -2.96970523864325       -4.98150868520188
H            2.92465962131842       -4.45721204115468       -4.87489561437199
H            2.17568479310615       -2.97897160471561       -5.49328353326874
H            4.40481361859808       -3.34879972767043       -2.62334561573759
H            3.10088928499997       -3.37672720658674       -1.41945563469872
H            3.31750703420151       -4.74166933268095       -2.52626539251841

          :  Hamiltonian                  GFN2-xTB          :
         :: total energy             -39.083058314603 Eh    ::
         :: gradient norm              0.000847152191 Eh/a0 ::
         :: HOMO-LUMO gap              4.889048017881 eV    ::
         :: SCC energy               -39.584205400152 Eh    ::
         :: -> dispersion             -0.022238540178 Eh    ::
         :: repulsion energy           0.501147085549 Eh    ::

    * Orbital Energies and Occupations

         #    Occupation            Energy/Eh            Energy/eV
      -------------------------------------------------------------
         1        2.0000           -0.8936798             -24.3183
       ...           ...                  ...                  ...
        23        2.0000           -0.6491867             -17.6653
        24        2.0000           -0.6449222             -17.5492
        25        2.0000           -0.6402199             -17.4213
        26        2.0000           -0.6366674             -17.3246
        27        2.0000           -0.6333995             -17.2357
        28        2.0000           -0.6158191             -16.7573
        29        2.0000           -0.6076073             -16.5338
        30        2.0000           -0.5822439             -15.8437
        31        2.0000           -0.5810942             -15.8124
        32        2.0000           -0.5753935             -15.6573
        33        2.0000           -0.5695755             -15.4989
        34        2.0000           -0.5623793             -15.3031
        35        2.0000           -0.5587831             -15.2053 (HOMO)
        36                         -0.3791139             -10.3162 (LUMO)
        37                         -0.3659473              -9.9579
        38                         -0.2282334              -6.2105
        39                         -0.1768757              -4.8130
        40                         -0.1509403              -4.1073
        41                         -0.1457974              -3.9673
        42                         -0.1168942              -3.1809
        43                         -0.0566492              -1.5415
        44                         -0.0398089              -1.0833
        45                         -0.0367145              -0.9991
        46                         -0.0145312              -0.3954
       ...                                ...                  ...
        66                          0.5214568              14.1896
      -------------------------------------------------------------
                  HL-Gap            0.1796692 Eh            4.8890 eV

     #   Z          covCN         q      C6AA      α(0)
     1   6 C        3.751    -0.122    22.896     6.824
     2   6 C        3.697     0.069    19.587     6.331
     3   8 O        1.703    -0.238    17.939     5.719
     4   6 C        2.710     0.364    20.825     7.470
     5   8 O        0.856    -0.396    21.598     6.231
     6   6 C        3.766    -0.068    21.850     6.662
     7   7 N        3.622     0.141    18.853     6.449
     8   6 C        3.765    -0.046    21.446     6.601
     9   6 C        2.884    -0.044    29.093     8.843
    10   6 C        2.838    -0.077    29.924     8.965
    11   6 C        3.725    -0.098    22.484     6.771
    12   6 C        3.720    -0.103    22.586     6.788
    13   1 H        0.925     0.064     2.149     2.293
    14   1 H        0.925     0.075     2.026     2.226
    15   1 H        0.925     0.063     2.169     2.303
    16   1 H        0.925     0.084     1.937     2.177
    17   1 H        0.924     0.074     2.041     2.234
    18   1 H        0.924     0.114     1.663     2.017
    19   1 H        0.924     0.109     1.702     2.040
    20   1 H        0.924     0.092     1.862     2.134
    21   1 H        0.924     0.114     1.659     2.014
    22   1 H        0.926     0.057     2.235     2.338
    23   1 H        0.926     0.082     1.961     2.190
    24   1 H        0.926     0.069     2.096     2.264
    25   1 H        0.925     0.098     1.805     2.101
    26   1 H        0.925     0.104     1.753     2.071
    27   1 H        0.925     0.101     1.777     2.084
    28   1 H        0.925     0.096     1.826     2.113
    29   1 H        0.925     0.123     1.587     1.970
    30   1 H        0.925     0.100     1.786     2.090

Wiberg/Mayer (AO) data.
largest (>0.10) Wiberg bond orders for each atom

     #   Z sym  total        # sym  WBO       # sym  WBO       # sym  WBO
 ---------------------------------------------------------------------------
     1   6 C    3.986 --     2 C    1.014    13 H    0.984    15 H    0.984
                            14 H    0.977
     2   6 C    3.893 --     1 C    1.014    17 H    0.969    16 H    0.968
                             3 O    0.900
     3   8 O    2.363 --     4 C    1.213     2 C    0.900     5 O    0.194
     4   6 C    3.938 --     5 O    1.733     3 O    1.213     6 C    0.935
     5   8 O    2.061 --     4 C    1.733     3 O    0.194
     6   6 C    3.942 --     7 N    0.955    18 H    0.952    19 H    0.949
                             4 C    0.935
     7   7 N    3.813 --    11 C    0.957     6 C    0.955    12 C    0.953
                             8 C    0.908
     8   6 C    3.921 --     9 C    1.019    20 H    0.964    21 H    0.951
                             7 N    0.908
     9   6 C    3.983 --    10 C    1.978     8 C    1.019    22 H    0.963
    10   6 C    3.981 --     9 C    1.978    23 H    0.971    24 H    0.971
    11   6 C    3.925 --    25 H    0.975    26 H    0.973    27 H    0.972
                             7 N    0.957
    12   6 C    3.917 --    28 H    0.975    30 H    0.975    29 H    0.965
                             7 N    0.953
    13   1 H    0.996 --     1 C    0.984
    14   1 H    0.994 --     1 C    0.977
    15   1 H    0.996 --     1 C    0.984
    16   1 H    0.993 --     2 C    0.968
    17   1 H    0.994 --     2 C    0.969
    18   1 H    0.987 --     6 C    0.952
    19   1 H    0.988 --     6 C    0.949
    20   1 H    0.992 --     8 C    0.964
    21   1 H    0.987 --     8 C    0.951
    22   1 H    0.997 --     9 C    0.963
    23   1 H    0.993 --    10 C    0.971
    24   1 H    0.995 --    10 C    0.971
    25   1 H    0.990 --    11 C    0.975
    26   1 H    0.989 --    11 C    0.973
    27   1 H    0.990 --    11 C    0.972
    28   1 H    0.990 --    12 C    0.975
    29   1 H    0.985 --    12 C    0.965
    30   1 H    0.990 --    12 C    0.975
 ---------------------------------------------------------------------------

molecular dipole:
                 x           y           z       tot (Debye)
 q only:        4.036      -4.579      -6.603
   full:        4.190      -4.543      -6.698      23.164

           -------------------------------------------------
          | TOTAL ENERGY              -39.083058314603 Eh   |
          | GRADIENT NORM               0.000847152191 Eh/α |
          | HOMO-LUMO GAP               4.889048017881 eV   |
           -------------------------------------------------

 * finished run on 2024/12/20 at 07:06:33.667
