   * xtb version 6.7.1 (edcfbbe) compiled by 'conda@3ef47c1a292c' on 2024-11-25

   ID    Z sym.   atoms
    1    6 C      1-5, 7-12
    2   15 P      6
    3    1 H      13-38

          program call               : xtb C0975.xyz --opt --namespace C0975 --charge +1
          :  Hamiltonian                  GFN2-xTB          :
 * total energy  :   -38.9430670 Eh     change       -0.2198632E-09 Eh
 * total energy  :   -38.9479825 Eh     change       -0.4915519E-02 Eh
 * total energy  :   -38.9492866 Eh     change       -0.1304101E-02 Eh
 * total energy  :   -38.9494206 Eh     change       -0.1339258E-03 Eh
 * total energy  :   -38.9494704 Eh     change       -0.4988935E-04 Eh
 * total energy  :   -38.9495240 Eh     change       -0.5359299E-04 Eh
 * total energy  :   -38.9495603 Eh     change       -0.3628485E-04 Eh
 * total energy  :   -38.9496218 Eh     change       -0.6152128E-04 Eh
 * total energy  :   -38.9496456 Eh     change       -0.2370877E-04 Eh
 * total energy  :   -38.9496830 Eh     change       -0.3744629E-04 Eh
 * total energy  :   -38.9499831 Eh     change       -0.1405768E-04 Eh
 * total energy  :   -38.9499971 Eh     change       -0.1397320E-04 Eh
 * total energy  :   -38.9500101 Eh     change       -0.1303541E-04 Eh
 * total energy  :   -38.9500168 Eh     change       -0.6737010E-05 Eh
 * total energy  :   -38.9500254 Eh     change       -0.8509800E-05 Eh
 * total energy  :   -38.9500324 Eh     change       -0.7013662E-05 Eh
 * total energy  :   -38.9500383 Eh     change       -0.5960279E-05 Eh
 * total energy  :   -38.9500441 Eh     change       -0.5743569E-05 Eh
 * total energy  :   -38.9500462 Eh     change       -0.2134882E-05 Eh
   *** GEOMETRY OPTIMIZATION CONVERGED AFTER 40 ITERATIONS ***

 final structure:
================
38
 xtb: 6.7.1 (edcfbbe)
C            1.34975215088919        0.36792553024773       -0.67896241887808
C            0.84556563609128       -0.19855370334864        0.64278221403112
C            1.11355696195871        0.71795815702086        1.83932814822539
C            0.44222619711647        2.09139982590620        1.76263564546849
C           -1.09121520676781        2.04168325766721        1.77877862858787
P           -1.83936360727813        2.15037269951195        3.43717416730947
C           -1.32640538782176        3.69200293028776        4.27575938444376
C           -1.40627033773355        4.92147650522279        3.37666027391676
C           -3.66342711999277        2.18724241849565        3.27280012829041
C           -4.21259326856547        1.36886175534372        2.10728489173645
C           -1.35229282790978        0.78775264163278        4.55309352236156
C           -1.80926344928868       -0.58835250736618        4.08141076358680
H            0.77809602140469        1.24022623225896       -0.98644436113089
H            1.25921039668499       -0.38060843362097       -1.46107744471545
H            2.39678574684890        0.64877950913889       -0.59845915942756
H           -0.22068345234964       -0.42339400387314        0.55637065372327
H            1.35389798621312       -1.14495367999791        0.83445231999963
H            0.80671874404353        0.20355614318491        2.75198366892829
H            2.19070713107582        0.88205607995666        1.90566920180223
H            0.80628135081914        2.70563132179364        2.58996330539282
H            0.76148329533801        2.57707754509876        0.84061622402988
H           -1.51040342837983        2.88643153886823        1.22226894164778
H           -1.45061237796213        1.12724676034306        1.30271643587706
H           -1.98366279569387        3.80827405764600        5.14335037315390
H           -0.30802040977601        3.55513738798064        4.64950161854337
H           -2.39914831288718        5.04035535967432        2.94832034669820
H           -1.18793953767896        5.81246485250272        3.95982011714171
H           -0.68220629474839        4.86727197727263        2.56782815681941
H           -4.07160338682612        1.82646594208438        4.22188000939473
H           -3.96057601154533        3.23378081468580        3.16235422326890
H           -3.89224613816562        0.33133508559271        2.15442437774345
H           -5.29931387472049        1.38442196195569        2.14016295651192
H           -3.90460429141281        1.78645635183068        1.15216131554457
H           -0.26413537494162        0.82191577910012        4.65581881522195
H           -1.78474512294244        1.01842418332542        5.53209092375672
H           -1.42674711737589       -0.81620332587683        3.08897710656632
H           -1.43747546847352       -1.34796935654213        4.76481149885020
H           -2.89402701724792       -0.65911959500383        4.06635302556993

          :  Hamiltonian                  GFN2-xTB          :
         :: total energy             -38.950046211274 Eh    ::
         :: gradient norm              0.000336136813 Eh/a0 ::
         :: HOMO-LUMO gap              6.525110784196 eV    ::
         :: SCC energy               -39.528564613124 Eh    ::
         :: -> dispersion             -0.030654458817 Eh    ::
         :: repulsion energy           0.578518401850 Eh    ::

    * Orbital Energies and Occupations

         #    Occupation            Energy/Eh            Energy/eV
      -------------------------------------------------------------
         1        2.0000           -0.8519512             -23.1828
       ...           ...                  ...                  ...
        25        2.0000           -0.6063548             -16.4998
        26        2.0000           -0.6024915             -16.3946
        27        2.0000           -0.5922438             -16.1158
        28        2.0000           -0.5909206             -16.0798
        29        2.0000           -0.5892918             -16.0354
        30        2.0000           -0.5826366             -15.8543
        31        2.0000           -0.5785674             -15.7436
        32        2.0000           -0.5748448             -15.6423
        33        2.0000           -0.5695556             -15.4984
        34        2.0000           -0.5650385             -15.3755
        35        2.0000           -0.5420423             -14.7497
        36        2.0000           -0.5354437             -14.5702
        37        2.0000           -0.5304576             -14.4345 (HOMO)
        38                         -0.2906642              -7.9094 (LUMO)
        39                         -0.2815804              -7.6622
        40                         -0.2732763              -7.4362
        41                         -0.1944013              -5.2899
        42                         -0.1242509              -3.3810
        43                         -0.0780701              -2.1244
        44                         -0.0471211              -1.2822
        45                         -0.0383226              -1.0428
        46                         -0.0367256              -0.9994
        47                         -0.0291136              -0.7922
        48                         -0.0262694              -0.7148
       ...                                ...                  ...
        79                          0.7565626              20.5871
      -------------------------------------------------------------
                  HL-Gap            0.2397934 Eh            6.5251 eV

     #   Z          covCN         q      C6AA      α(0)
     1   6 C        3.751    -0.111    22.677     6.791
     2   6 C        3.799    -0.057    21.592     6.616
     3   6 C        3.801    -0.067    21.783     6.645
     4   6 C        3.853    -0.064    21.694     6.625
     5   6 C        3.750    -0.071    21.915     6.676
     6  15 P        3.966     0.180   152.477    22.182
     7   6 C        3.749    -0.073    21.957     6.683
     8   6 C        3.817    -0.117    22.717     6.783
     9   6 C        3.749    -0.071    21.919     6.677
    10   6 C        3.804    -0.118    22.750     6.790
    11   6 C        3.749    -0.068    21.877     6.671
    12   6 C        3.813    -0.115    22.688     6.780
    13   1 H        0.925     0.035     2.522     2.484
    14   1 H        0.925     0.049     2.334     2.389
    15   1 H        0.925     0.046     2.370     2.408
    16   1 H        0.924     0.023     2.683     2.561
    17   1 H        0.924     0.047     2.361     2.403
    18   1 H        0.924     0.034     2.533     2.489
    19   1 H        0.924     0.056     2.251     2.347
    20   1 H        0.924     0.048     2.347     2.396
    21   1 H        0.925     0.071     2.078     2.254
    22   1 H        0.928     0.092     1.855     2.130
    23   1 H        0.927     0.103     1.759     2.074
    24   1 H        0.927     0.089     1.884     2.146
    25   1 H        0.926     0.089     1.891     2.150
    26   1 H        0.925     0.060     2.203     2.321
    27   1 H        0.925     0.078     2.002     2.213
    28   1 H        0.925     0.066     2.134     2.284
    29   1 H        0.927     0.090     1.876     2.142
    30   1 H        0.926     0.090     1.879     2.143
    31   1 H        0.925     0.063     2.165     2.301
    32   1 H        0.925     0.077     2.014     2.219
    33   1 H        0.925     0.063     2.169     2.303
    34   1 H        0.927     0.092     1.860     2.133
    35   1 H        0.927     0.089     1.887     2.148
    36   1 H        0.925     0.064     2.153     2.294
    37   1 H        0.925     0.076     2.024     2.225
    38   1 H        0.925     0.063     2.163     2.300

Wiberg/Mayer (AO) data.
largest (>0.10) Wiberg bond orders for each atom

     #   Z sym  total        # sym  WBO       # sym  WBO       # sym  WBO
 ---------------------------------------------------------------------------
     1   6 C    3.994 --     2 C    1.020    15 H    0.986    13 H    0.986
                            14 H    0.985
     2   6 C    3.996 --     1 C    1.020     3 C    1.007    17 H    0.976
                            16 H    0.973
     3   6 C    3.994 --     2 C    1.007     4 C    1.007    19 H    0.973
                            18 H    0.970
     4   6 C    3.987 --     3 C    1.007     5 C    0.983    21 H    0.968
                            20 H    0.965
     5   6 C    3.984 --     6 P    1.015     4 C    0.983    22 H    0.927
                            23 H    0.924
     6  15 P    4.569 --     5 C    1.015     7 C    1.010    11 C    1.007
                             9 C    1.006
     7   6 C    3.990 --     6 P    1.010     8 C    1.003    25 H    0.937
                            24 H    0.934
     8   6 C    3.983 --     7 C    1.003    28 H    0.980    27 H    0.977
                            26 H    0.977
     9   6 C    3.989 --     6 P    1.006    10 C    1.002    30 H    0.936
                            29 H    0.935
    10   6 C    3.985 --     9 C    1.002    33 H    0.981    31 H    0.978
                            32 H    0.978
    11   6 C    3.989 --     6 P    1.007    12 C    1.002    35 H    0.933
                            34 H    0.933
    12   6 C    3.983 --    11 C    1.002    38 H    0.979    37 H    0.978
                            36 H    0.977
    13   1 H    0.999 --     1 C    0.986
    14   1 H    0.998 --     1 C    0.985
    15   1 H    0.998 --     1 C    0.986
    16   1 H    0.999 --     2 C    0.973
    17   1 H    0.998 --     2 C    0.976
    18   1 H    0.999 --     3 C    0.970
    19   1 H    0.997 --     3 C    0.973
    20   1 H    0.998 --     4 C    0.965
    21   1 H    0.995 --     4 C    0.968
    22   1 H    0.991 --     5 C    0.927
    23   1 H    0.989 --     5 C    0.924
    24   1 H    0.992 --     7 C    0.934
    25   1 H    0.992 --     7 C    0.937
    26   1 H    0.996 --     8 C    0.977
    27   1 H    0.993 --     8 C    0.977
    28   1 H    0.996 --     8 C    0.980
    29   1 H    0.992 --     9 C    0.935
    30   1 H    0.992 --     9 C    0.936
    31   1 H    0.996 --    10 C    0.978
    32   1 H    0.994 --    10 C    0.978
    33   1 H    0.996 --    10 C    0.981
    34   1 H    0.991 --    11 C    0.933
    35   1 H    0.992 --    11 C    0.933
    36   1 H    0.996 --    12 C    0.977
    37   1 H    0.994 --    12 C    0.978
    38   1 H    0.996 --    12 C    0.979
 ---------------------------------------------------------------------------

molecular dipole:
                 x           y           z       tot (Debye)
 q only:       -3.210       3.819       6.002
   full:       -3.261       3.893       6.140      20.253

           -------------------------------------------------
          | TOTAL ENERGY              -38.950046211274 Eh   |
          | GRADIENT NORM               0.000336136813 Eh/α |
          | HOMO-LUMO GAP               6.525110784196 eV   |
           -------------------------------------------------

 * finished run on 2024/12/20 at 07:06:30.868
