   * xtb version 6.7.1 (edcfbbe) compiled by 'conda@3ef47c1a292c' on 2024-11-25

   ID    Z sym.   atoms
    1    6 C      1-12, 14-19
    2    7 N      13
    3    1 H      20-59

          program call               : xtb C0972.xyz --opt --namespace C0972 --charge +1
          :  Hamiltonian                  GFN2-xTB          :
 * total energy  :   -61.4815534 Eh     change       -0.4494893E-10 Eh
 * total energy  :   -61.4881664 Eh     change       -0.6612975E-02 Eh
 * total energy  :   -61.4896643 Eh     change       -0.1497886E-02 Eh
 * total energy  :   -61.4897558 Eh     change       -0.9150994E-04 Eh
 * total energy  :   -61.4898742 Eh     change       -0.1183630E-03 Eh
 * total energy  :   -61.4899319 Eh     change       -0.5768897E-04 Eh
 * total energy  :   -61.4900523 Eh     change       -0.1204970E-03 Eh
 * total energy  :   -61.4901212 Eh     change       -0.6885974E-04 Eh
 * total energy  :   -61.4901519 Eh     change       -0.3073759E-04 Eh
 * total energy  :   -61.4902858 Eh     change       -0.1338604E-03 Eh
 * total energy  :   -61.4920669 Eh     change       -0.1014984E-04 Eh
 * total energy  :   -61.4920816 Eh     change       -0.1471476E-04 Eh
 * total energy  :   -61.4920998 Eh     change       -0.1827388E-04 Eh
 * total energy  :   -61.4921151 Eh     change       -0.1528500E-04 Eh
 * total energy  :   -61.4921255 Eh     change       -0.1034588E-04 Eh
 * total energy  :   -61.4921333 Eh     change       -0.7792158E-05 Eh
 * total energy  :   -61.4921407 Eh     change       -0.7461630E-05 Eh
 * total energy  :   -61.4921495 Eh     change       -0.8810269E-05 Eh
 * total energy  :   -61.4921523 Eh     change       -0.2737839E-05 Eh
   *** GEOMETRY OPTIMIZATION CONVERGED AFTER 68 ITERATIONS ***

 final structure:
================
59
 xtb: 6.7.1 (edcfbbe)
C            1.90303855903853       -0.80141376619794        0.27586471914334
C            1.40557106163332       -1.17740046280486        1.66638686453083
C            1.62895166551000       -0.07821335027287        2.70623694970285
C            0.90859717813092        1.24076055280778        2.41802608389352
C           -0.61125205796331        1.13214287262076        2.28108194428327
C           -1.33198005218501        0.56397985609557        3.50514178558438
C           -1.12800257991659        1.35242671835960        4.80059440662025
C           -1.54545211051551        2.82303620950981        4.73320717852388
C           -3.00711469468049        3.05882817248238        4.34790306266959
C           -4.03792901785417        2.41405804615595        5.27828140789138
C           -3.91297456398073        2.80032064290967        6.75814428030818
C           -3.96678823477056        4.30105222360331        7.06629983727441
N           -5.29994185521268        4.88059060825103        7.42515405215490
C           -5.78790275337859        4.38231558791039        8.74971109293005
C           -4.99932947750459        4.82675705076972        9.98839387472903
C           -5.63962126152359        5.98313536856915       10.76590963170197
C           -6.92938819574315        5.57757289673162       11.46985179496626
C           -5.17152589096951        6.34986002778897        7.44431464175933
C           -6.30621044127642        4.52818179964309        6.40653736677536
H            1.32664436304457        0.02111977810329       -0.14006875086854
H            1.81216995243446       -1.65043959027540       -0.39751648231889
H            2.94909403997821       -0.50549816459022        0.31308798788334
H            0.34589342647736       -1.43452264091307        1.61682957083473
H            1.93918294896910       -2.07021055217189        2.00090600769300
H            1.32101413769345       -0.45464770318347        3.68433173962657
H            2.69995788445993        0.13113184314220        2.76455627442124
H            1.15286917060705        1.94478806024621        3.21710494610282
H            1.30116329664554        1.66461507500872        1.49210760596197
H           -1.00637916114550        2.12504918682004        2.05263197349361
H           -0.84703169946623        0.49529312950234        1.42700814954927
H           -2.39929282257665        0.50420378333123        3.27788444424832
H           -0.98848224871090       -0.45709043190100        3.67748459048247
H           -1.67949424139191        0.84875467867283        5.59869874155418
H           -0.07273578000115        1.31733343040138        5.07491244038870
H           -1.33736548871242        3.28843453119817        5.70056351087774
H           -0.92133199076752        3.33286135873810        3.99842707066311
H           -3.17761578669512        4.13775053711797        4.28066115655027
H           -3.17580922082781        2.66005870375450        3.34756113715562
H           -5.03376349033854        2.64157062865899        4.89505474999563
H           -3.92156811216003        1.33148262796162        5.22340328147800
H           -4.66396043560126        2.25333985417572        7.32932863797265
H           -2.94482792627378        2.44132571182633        7.10830506114434
H           -3.29651832338889        4.51681340102939        7.89862327503692
H           -3.59877796368940        4.84762645672168        6.19706156002514
H           -6.82207959140933        4.71383127420118        8.85664866483059
H           -5.79537297866593        3.29366897678918        8.69405281551572
H           -4.93446809559050        3.97357621251377       10.66546548990939
H           -3.97406066223462        5.09088669151977        9.72948036126207
H           -4.92473961653305        6.31131480237028       11.52139638429939
H           -5.83338165209774        6.83524263424640       10.11320981322745
H           -6.74862445404704        4.74935604962463       12.14988255467784
H           -7.31195760905526        6.41273576210091       12.04906575541274
H           -7.70417107465870        5.27900891924877       10.76702513410482
H           -4.92266643903960        6.71523529546686        6.44923892428699
H           -6.11347134029050        6.79983721157921        7.75221773241009
H           -4.38949072724128        6.66011772806584        8.13275482595350
H           -5.94458820312680        4.80434982475126        5.41795380071267
H           -6.51139511913020        3.46087678424469        6.42518523061218
H           -7.23550224207530        5.06242708475673        6.59859285762705

          :  Hamiltonian                  GFN2-xTB          :
         :: total energy             -61.492152280162 Eh    ::
         :: gradient norm              0.000189347643 Eh/a0 ::
         :: HOMO-LUMO gap              6.593029837310 eV    ::
         :: SCC energy               -62.388022455373 Eh    ::
         :: -> dispersion             -0.047658640655 Eh    ::
         :: repulsion energy           0.895870175211 Eh    ::

    * Orbital Energies and Occupations

         #    Occupation            Energy/Eh            Energy/eV
      -------------------------------------------------------------
         1        2.0000           -0.8591570             -23.3789
       ...           ...                  ...                  ...
        46        2.0000           -0.5456732             -14.8485
        47        2.0000           -0.5409135             -14.7190
        48        2.0000           -0.5333539             -14.5133
        49        2.0000           -0.5306697             -14.4403
        50        2.0000           -0.5200336             -14.1508
        51        2.0000           -0.5165649             -14.0564
        52        2.0000           -0.5086035             -13.8398
        53        2.0000           -0.4987553             -13.5718
        54        2.0000           -0.4946115             -13.4591
        55        2.0000           -0.4907035             -13.3527
        56        2.0000           -0.4757221             -12.9451
        57        2.0000           -0.4720030             -12.8439
        58        2.0000           -0.4696262             -12.7792 (HOMO)
        59                         -0.2273368              -6.1862 (LUMO)
        60                         -0.1687796              -4.5927
        61                         -0.1452840              -3.9534
        62                         -0.1395546              -3.7975
        63                         -0.0796689              -2.1679
        64                         -0.0695153              -1.8916
        65                         -0.0572241              -1.5571
        66                         -0.0354599              -0.9649
        67                         -0.0317561              -0.8641
        68                         -0.0258420              -0.7032
        69                         -0.0091929              -0.2502
       ...                                ...                  ...
       116                          0.2526331               6.8745
      -------------------------------------------------------------
                  HL-Gap            0.2422894 Eh            6.5930 eV

     #   Z          covCN         q      C6AA      α(0)
     1   6 C        3.751    -0.103    22.523     6.768
     2   6 C        3.799    -0.053    21.520     6.605
     3   6 C        3.800    -0.058    21.614     6.619
     4   6 C        3.800    -0.058    21.613     6.619
     5   6 C        3.800    -0.058    21.615     6.619
     6   6 C        3.800    -0.059    21.632     6.622
     7   6 C        3.800    -0.059    21.642     6.624
     8   6 C        3.800    -0.061    21.679     6.629
     9   6 C        3.800    -0.062    21.693     6.632
    10   6 C        3.799    -0.070    21.848     6.655
    11   6 C        3.799    -0.072    21.872     6.659
    12   6 C        3.758    -0.041    21.355     6.588
    13   7 N        3.620     0.129    19.040     6.481
    14   6 C        3.759    -0.040    21.347     6.587
    15   6 C        3.800    -0.073    21.895     6.662
    16   6 C        3.799    -0.065    21.752     6.641
    17   6 C        3.752    -0.114    22.750     6.802
    18   6 C        3.725    -0.092    22.363     6.752
    19   6 C        3.726    -0.092    22.360     6.752
    20   1 H        0.925     0.034     2.536     2.490
    21   1 H        0.925     0.034     2.526     2.485
    22   1 H        0.925     0.036     2.507     2.476
    23   1 H        0.924     0.029     2.596     2.520
    24   1 H        0.924     0.030     2.591     2.517
    25   1 H        0.924     0.026     2.638     2.540
    26   1 H        0.924     0.032     2.561     2.503
    27   1 H        0.924     0.025     2.657     2.549
    28   1 H        0.924     0.036     2.508     2.477
    29   1 H        0.924     0.024     2.674     2.557
    30   1 H        0.924     0.038     2.481     2.463
    31   1 H        0.924     0.024     2.671     2.556
    32   1 H        0.924     0.040     2.455     2.450
    33   1 H        0.924     0.023     2.692     2.566
    34   1 H        0.924     0.041     2.433     2.439
    35   1 H        0.924     0.020     2.737     2.587
    36   1 H        0.924     0.046     2.374     2.409
    37   1 H        0.924     0.016     2.793     2.613
    38   1 H        0.925     0.054     2.272     2.357
    39   1 H        0.924     0.032     2.555     2.500
    40   1 H        0.925     0.061     2.188     2.313
    41   1 H        0.924     0.046     2.365     2.405
    42   1 H        0.924     0.076     2.019     2.222
    43   1 H        0.924     0.079     1.995     2.209
    44   1 H        0.924     0.091     1.868     2.138
    45   1 H        0.924     0.089     1.886     2.148
    46   1 H        0.925     0.081     1.966     2.193
    47   1 H        0.924     0.073     2.053     2.241
    48   1 H        0.925     0.049     2.329     2.386
    49   1 H        0.924     0.057     2.237     2.339
    50   1 H        0.924     0.037     2.485     2.465
    51   1 H        0.925     0.050     2.319     2.382
    52   1 H        0.925     0.057     2.236     2.338
    53   1 H        0.925     0.033     2.542     2.493
    54   1 H        0.925     0.093     1.850     2.127
    55   1 H        0.925     0.097     1.815     2.107
    56   1 H        0.925     0.100     1.783     2.088
    57   1 H        0.925     0.099     1.793     2.094
    58   1 H        0.925     0.100     1.781     2.087
    59   1 H        0.925     0.092     1.859     2.132

Wiberg/Mayer (AO) data.
largest (>0.10) Wiberg bond orders for each atom

     #   Z sym  total        # sym  WBO       # sym  WBO       # sym  WBO
 ---------------------------------------------------------------------------
     1   6 C    3.997 --     2 C    1.020    22 H    0.988    21 H    0.987
                            20 H    0.986
     2   6 C    3.998 --     1 C    1.020     3 C    1.008    24 H    0.978
                            23 H    0.976
     3   6 C    3.997 --     2 C    1.008     4 C    1.008    26 H    0.977
                            25 H    0.976
     4   6 C    3.997 --     5 C    1.008     3 C    1.008    27 H    0.975
                            28 H    0.975
     5   6 C    3.997 --     4 C    1.008     6 C    1.008    29 H    0.975
                            30 H    0.974
     6   6 C    3.997 --     5 C    1.008     7 C    1.007    31 H    0.975
                            32 H    0.974
     7   6 C    3.997 --     6 C    1.007     8 C    1.007    33 H    0.975
                            34 H    0.974
     8   6 C    3.996 --     9 C    1.007     7 C    1.007    35 H    0.976
                            36 H    0.973
     9   6 C    3.994 --     8 C    1.007    10 C    1.007    37 H    0.972
                            38 H    0.971
    10   6 C    3.992 --     9 C    1.007    11 C    1.004    39 H    0.974
                            40 H    0.971
    11   6 C    3.984 --    10 C    1.004    12 C    1.004    41 H    0.965
                            42 H    0.965
    12   6 C    3.926 --    11 C    1.004    43 H    0.964    44 H    0.959
                            13 N    0.923
    13   7 N    3.808 --    18 C    0.961    19 C    0.960    14 C    0.926
                            12 C    0.923
    14   6 C    3.929 --    15 C    1.004    46 H    0.964    45 H    0.962
                            13 N    0.926
    15   6 C    3.985 --    16 C    1.005    14 C    1.004    47 H    0.969
                            48 H    0.964
    16   6 C    3.993 --    17 C    1.021    15 C    1.005    50 H    0.975
                            49 H    0.975
    17   6 C    3.993 --    16 C    1.021    51 H    0.986    52 H    0.984
                            53 H    0.983
    18   6 C    3.931 --    54 H    0.975    55 H    0.973    56 H    0.972
                            13 N    0.961
    19   6 C    3.930 --    59 H    0.975    57 H    0.973    58 H    0.972
                            13 N    0.960
    20   1 H    0.999 --     1 C    0.986
    21   1 H    0.999 --     1 C    0.987
    22   1 H    0.999 --     1 C    0.988
    23   1 H    0.999 --     2 C    0.976
    24   1 H    0.999 --     2 C    0.978
    25   1 H    0.999 --     3 C    0.976
    26   1 H    0.999 --     3 C    0.977
    27   1 H    0.999 --     4 C    0.975
    28   1 H    0.999 --     4 C    0.975
    29   1 H    0.999 --     5 C    0.975
    30   1 H    0.999 --     5 C    0.974
    31   1 H    0.999 --     6 C    0.975
    32   1 H    0.998 --     6 C    0.974
    33   1 H    0.999 --     7 C    0.975
    34   1 H    0.998 --     7 C    0.974
    35   1 H    1.000 --     8 C    0.976
    36   1 H    0.998 --     8 C    0.973
    37   1 H    1.000 --     9 C    0.972
    38   1 H    0.997 --     9 C    0.971
    39   1 H    0.999 --    10 C    0.974
    40   1 H    0.996 --    10 C    0.971
    41   1 H    0.998 --    11 C    0.965
    42   1 H    0.994 --    11 C    0.965
    43   1 H    0.994 --    12 C    0.964
    44   1 H    0.992 --    12 C    0.959
    45   1 H    0.992 --    14 C    0.962
    46   1 H    0.993 --    14 C    0.964
    47   1 H    0.994 --    15 C    0.969
    48   1 H    0.998 --    15 C    0.964
    49   1 H    0.997 --    16 C    0.975
    50   1 H    0.999 --    16 C    0.975
    51   1 H    0.997 --    17 C    0.986
    52   1 H    0.997 --    17 C    0.984
    53   1 H    0.999 --    17 C    0.983
    54   1 H    0.991 --    18 C    0.975
    55   1 H    0.990 --    18 C    0.973
    56   1 H    0.990 --    18 C    0.972
    57   1 H    0.990 --    19 C    0.973
    58   1 H    0.990 --    19 C    0.972
    59   1 H    0.992 --    19 C    0.975
 ---------------------------------------------------------------------------

molecular dipole:
                 x           y           z       tot (Debye)
 q only:       -9.595       8.813      14.010
   full:       -9.639       8.863      14.010      48.742

           -------------------------------------------------
          | TOTAL ENERGY              -61.492152280162 Eh   |
          | GRADIENT NORM               0.000189347643 Eh/α |
          | HOMO-LUMO GAP               6.593029837310 eV   |
           -------------------------------------------------

 * finished run on 2024/12/20 at 07:06:28.073
