   * xtb version 6.7.1 (edcfbbe) compiled by 'conda@3ef47c1a292c' on 2024-11-25

   ID    Z sym.   atoms
    1    8 O      1
    2    6 C      2, 3, 5-9
    3    7 N      4
    4    1 H      10-25

          program call               : xtb C0974.xyz --opt --namespace C0974 --charge +1
          :  Hamiltonian                  GFN2-xTB          :
 * total energy  :   -29.7334396 Eh     change       -0.1957545E-10 Eh
 * total energy  :   -29.7397489 Eh     change       -0.6309326E-02 Eh
 * total energy  :   -29.7413357 Eh     change       -0.1586802E-02 Eh
 * total energy  :   -29.7414303 Eh     change       -0.9460943E-04 Eh
 * total energy  :   -29.7414994 Eh     change       -0.6908393E-04 Eh
 * total energy  :   -29.7415423 Eh     change       -0.4285738E-04 Eh
 * total energy  :   -29.7416301 Eh     change       -0.8780450E-04 Eh
 * total energy  :   -29.7416924 Eh     change       -0.6231374E-04 Eh
 * total energy  :   -29.7417376 Eh     change       -0.4524421E-04 Eh
 * total energy  :   -29.7417629 Eh     change       -0.2522814E-04 Eh
 * total energy  :   -29.7423334 Eh     change       -0.4488719E-04 Eh
 * total energy  :   -29.7423721 Eh     change       -0.3867876E-04 Eh
 * total energy  :   -29.7424123 Eh     change       -0.4021229E-04 Eh
 * total energy  :   -29.7424473 Eh     change       -0.3504057E-04 Eh
 * total energy  :   -29.7424593 Eh     change       -0.1195852E-04 Eh
 * total energy  :   -29.7424698 Eh     change       -0.1052783E-04 Eh
 * total energy  :   -29.7424803 Eh     change       -0.1044215E-04 Eh
 * total energy  :   -29.7424928 Eh     change       -0.1250950E-04 Eh
 * total energy  :   -29.7424964 Eh     change       -0.3592422E-05 Eh
   *** GEOMETRY OPTIMIZATION CONVERGED AFTER 42 ITERATIONS ***

 final structure:
================
25
 xtb: 6.7.1 (edcfbbe)
O            0.87791623106314        0.16312496488457        1.09020673357822
C            0.31576806720204       -1.12365114888989        0.98556363718190
C            1.16792151988053       -1.99594780253575        0.05592222011157
N            2.61664993282949       -2.08587249457448        0.39821982992774
C            3.34652528191711       -0.87946347534120       -0.08609917724581
C            3.56778663293857       -1.09704666939904       -1.58573117024377
C            3.41333906091254       -2.61456759516829       -1.79937192306176
C            3.24802744269018       -3.17843343687694       -0.39054616253167
C            2.80655188156188       -2.28461547911755        1.84147869565586
H            0.24193402541666        0.77121975722679        1.48228867903240
H            0.21848843535835       -1.58440018557942        1.97739920001268
H           -0.68498478606993       -1.08341610521393        0.53772447063838
H            0.74403974070656       -3.00162092549540        0.07097457923525
H            1.09628976693932       -1.59572117766781       -0.95472029257082
H            4.30048509920340       -0.83350143015401        0.43992489395805
H            2.77105017098421        0.01485751193353        0.14467603360387
H            2.84730624121770       -0.54034578553419       -2.18223949684124
H            4.55782875528335       -0.75130096621031       -1.87325030700771
H            2.54727124428310       -2.84105495135701       -2.41911051939078
H            4.28326839705694       -3.04795663167855       -2.28667833389634
H            2.64961238664744       -4.08745629852795       -0.35226822073009
H            4.22568412953465       -3.38634206252252        0.04738634073656
H            2.48885741217221       -1.39419026801992        2.37952076549381
H            2.23198536367006       -3.14518404989146        2.18012366726287
H            3.85877756659891       -2.46005329428953        2.05743585709219

          :  Hamiltonian                  GFN2-xTB          :
         :: total energy             -29.742496358419 Eh    ::
         :: gradient norm              0.000834974865 Eh/a0 ::
         :: HOMO-LUMO gap              9.184984741345 eV    ::
         :: SCC energy               -30.106429459331 Eh    ::
         :: -> dispersion             -0.017516585195 Eh    ::
         :: repulsion energy           0.363933100913 Eh    ::

    * Orbital Energies and Occupations

         #    Occupation            Energy/Eh            Energy/eV
      -------------------------------------------------------------
         1        2.0000           -0.8626194             -23.4731
       ...           ...                  ...                  ...
        15        2.0000           -0.6770032             -18.4222
        16        2.0000           -0.6693257             -18.2133
        17        2.0000           -0.6577507             -17.8983
        18        2.0000           -0.6492600             -17.6673
        19        2.0000           -0.6406749             -17.4337
        20        2.0000           -0.6386076             -17.3774
        21        2.0000           -0.6364221             -17.3179
        22        2.0000           -0.6240327             -16.9808
        23        2.0000           -0.6150213             -16.7356
        24        2.0000           -0.6124861             -16.6666
        25        2.0000           -0.6034271             -16.4201
        26        2.0000           -0.5773228             -15.7098
        27        2.0000           -0.5639511             -15.3459 (HOMO)
        28                         -0.2264091              -6.1609 (LUMO)
        29                         -0.1818791              -4.9492
        30                         -0.1615969              -4.3973
        31                         -0.1472250              -4.0062
        32                         -0.1104257              -3.0048
        33                         -0.0678977              -1.8476
        34                         -0.0584028              -1.5892
        35                         -0.0459399              -1.2501
        36                         -0.0409571              -1.1145
        37                         -0.0297242              -0.8088
        38                         -0.0168869              -0.4595
       ...                                ...                  ...
        52                          0.1936033               5.2682
      -------------------------------------------------------------
                  HL-Gap            0.3375420 Eh            9.1850 eV

     #   Z          covCN         q      C6AA      α(0)
     1   8 O        1.656    -0.440    21.638     6.279
     2   6 C        3.672     0.071    19.616     6.348
     3   6 C        3.756    -0.041    21.360     6.590
     4   7 N        3.632     0.128    19.058     6.484
     5   6 C        3.798    -0.045    21.378     6.583
     6   6 C        3.815    -0.076    21.943     6.667
     7   6 C        3.814    -0.076    21.937     6.666
     8   6 C        3.804    -0.036    21.217     6.558
     9   6 C        3.708    -0.094    22.443     6.771
    10   1 H        0.805     0.315     0.678     1.294
    11   1 H        0.923     0.050     2.326     2.385
    12   1 H        0.924     0.063     2.166     2.301
    13   1 H        0.924     0.085     1.930     2.173
    14   1 H        0.925     0.108     1.713     2.047
    15   1 H        0.924     0.087     1.910     2.161
    16   1 H        0.925     0.122     1.596     1.976
    17   1 H        0.925     0.071     2.074     2.252
    18   1 H        0.925     0.082     1.957     2.188
    19   1 H        0.925     0.068     2.112     2.273
    20   1 H        0.925     0.084     1.933     2.174
    21   1 H        0.925     0.084     1.940     2.178
    22   1 H        0.924     0.091     1.874     2.141
    23   1 H        0.925     0.112     1.679     2.027
    24   1 H        0.925     0.094     1.843     2.123
    25   1 H        0.925     0.094     1.838     2.120

Wiberg/Mayer (AO) data.
largest (>0.10) Wiberg bond orders for each atom

     #   Z sym  total        # sym  WBO       # sym  WBO       # sym  WBO
 ---------------------------------------------------------------------------
     1   8 O    1.959 --     2 C    1.005    10 H    0.885
     2   6 C    3.958 --     1 O    1.005     3 C    1.003    11 H    0.965
                            12 H    0.963
     3   6 C    3.941 --     2 C    1.003    13 H    0.967    14 H    0.963
                             4 N    0.939
     4   7 N    3.809 --     9 C    0.963     3 C    0.939     8 C    0.932
                             5 C    0.926
     5   6 C    3.921 --     6 C    1.006    15 H    0.970    16 H    0.956
                             4 N    0.926
     6   6 C    3.986 --     5 C    1.006     7 C    0.997    17 H    0.977
                            18 H    0.974
     7   6 C    3.985 --     8 C    1.008     6 C    0.997    19 H    0.978
                            20 H    0.973
     8   6 C    3.934 --     7 C    1.008    21 H    0.970    22 H    0.968
                             4 N    0.932
     9   6 C    3.929 --    24 H    0.976    25 H    0.974    23 H    0.971
                             4 N    0.963
    10   1 H    0.901 --     1 O    0.885
    11   1 H    0.998 --     2 C    0.965
    12   1 H    0.996 --     2 C    0.963
    13   1 H    0.993 --     3 C    0.967
    14   1 H    0.988 --     3 C    0.963
    15   1 H    0.992 --     5 C    0.970
    16   1 H    0.985 --     5 C    0.956
    17   1 H    0.995 --     6 C    0.977
    18   1 H    0.993 --     6 C    0.974
    19   1 H    0.995 --     7 C    0.978
    20   1 H    0.993 --     7 C    0.973
    21   1 H    0.993 --     8 C    0.970
    22   1 H    0.992 --     8 C    0.968
    23   1 H    0.987 --     9 C    0.971
    24   1 H    0.991 --     9 C    0.976
    25   1 H    0.991 --     9 C    0.974
 ---------------------------------------------------------------------------

molecular dipole:
                 x           y           z       tot (Debye)
 q only:        4.470      -3.721       0.515
   full:        4.219      -3.795       0.716      14.538

           -------------------------------------------------
          | TOTAL ENERGY              -29.742496358419 Eh   |
          | GRADIENT NORM               0.000834974865 Eh/α |
          | HOMO-LUMO GAP               9.184984741345 eV   |
           -------------------------------------------------

 * finished run on 2024/12/20 at 07:06:29.617
