   * xtb version 6.7.1 (edcfbbe) compiled by 'conda@3ef47c1a292c' on 2024-11-25

   ID    Z sym.   atoms
    1    6 C      1, 2, 4-8
    2    7 N      3
    3    8 O      9
    4    1 H      10-19

          program call               : xtb C0971.xyz --opt --namespace C0971 --charge +1
          :  Hamiltonian                  GFN2-xTB          :
 * total energy  :   -26.6674630 Eh     change       -0.1743992E-09 Eh
 * total energy  :   -26.6701318 Eh     change       -0.2668847E-02 Eh
 * total energy  :   -26.6707285 Eh     change       -0.5966480E-03 Eh
 * total energy  :   -26.6707662 Eh     change       -0.3775298E-04 Eh
 * total energy  :   -26.6707812 Eh     change       -0.1493865E-04 Eh
 * total energy  :   -26.6707850 Eh     change       -0.3831405E-05 Eh
   *** GEOMETRY OPTIMIZATION CONVERGED AFTER 6 ITERATIONS ***

 final structure:
================
19
 xtb: 6.7.1 (edcfbbe)
C            1.29327991208707        0.10805020276111       -0.17235079110724
C            0.42138868914742       -0.34096466756715       -1.34213271348028
N            0.82233007912967       -1.66629492547788       -1.79488099991697
C            1.75427751800300       -1.78855557712220       -2.73952686314063
C            2.18624022190595       -3.04041756804096       -3.14716779168258
C            1.65196827665160       -4.17197182162297       -2.56939554676132
C            0.67503803240708       -4.03503394946424       -1.56721694177630
C            0.28856915387509       -2.74364806093369       -1.20840470624217
O            0.17296205073852       -5.12865954858419       -1.01990296528346
H            1.19241248968161       -0.56692890158244        0.67380067991144
H            0.98400156747290        1.09990345957792        0.14316514713266
H            2.34015926028207        0.15187495957633       -0.46170424984199
H           -0.62657375956863       -0.37180798720153       -1.03886690165276
H            0.52280066855772        0.35921351318353       -2.17272844294837
H            2.15104158294948       -0.88283919112704       -3.17142008633220
H            2.93672545622940       -3.11836806226410       -3.91717972480958
H            1.95741285550102       -5.16430538164154       -2.86163985644791
H           -0.45956316667459       -2.57352318231588       -0.44605898407743
H           -0.49625088837635       -4.96627331015311       -0.33980826154289

          :  Hamiltonian                  GFN2-xTB          :
         :: total energy             -26.670784992480 Eh    ::
         :: gradient norm              0.000844760321 Eh/a0 ::
         :: HOMO-LUMO gap              3.423142201079 eV    ::
         :: SCC energy               -27.070409612976 Eh    ::
         :: -> dispersion             -0.012989784315 Eh    ::
         :: repulsion energy           0.399624620496 Eh    ::

    * Orbital Energies and Occupations

         #    Occupation            Energy/Eh            Energy/eV
      -------------------------------------------------------------
         1        2.0000           -0.8952620             -24.3613
       ...           ...                  ...                  ...
        12        2.0000           -0.7163301             -19.4923
        13        2.0000           -0.7076320             -19.2556
        14        2.0000           -0.6977707             -18.9873
        15        2.0000           -0.6853026             -18.6480
        16        2.0000           -0.6823929             -18.5689
        17        2.0000           -0.6636764             -18.0596
        18        2.0000           -0.6441470             -17.5281
        19        2.0000           -0.6414772             -17.4555
        20        2.0000           -0.6245483             -16.9948
        21        2.0000           -0.6191008             -16.8466
        22        2.0000           -0.6126369             -16.6707
        23        2.0000           -0.6053896             -16.4735
        24        2.0000           -0.5856444             -15.9362 (HOMO)
        25                         -0.4598463             -12.5131 (LUMO)
        26                         -0.4201178             -11.4320
        27                         -0.3045646              -8.2876
        28                         -0.1809342              -4.9235
        29                         -0.1058168              -2.8794
        30                         -0.0704782              -1.9178
        31                         -0.0509478              -1.3864
        32                         -0.0467494              -1.2721
        33                         -0.0202568              -0.5512
        34                         -0.0109565              -0.2981
        35                          0.0074470               0.2026
       ...                                ...                  ...
        46                          0.4514298              12.2840
      -------------------------------------------------------------
                  HL-Gap            0.1257982 Eh            3.4231 eV

     #   Z          covCN         q      C6AA      α(0)
     1   6 C        3.752    -0.125    22.957     6.833
     2   6 C        3.759    -0.031    21.177     6.561
     3   7 N        2.749     0.112    19.317     6.528
     4   6 C        2.890     0.019    27.592     8.612
     5   6 C        2.914    -0.012    28.320     8.726
     6   6 C        2.923    -0.015    28.386     8.737
     7   6 C        2.839     0.178    24.172     8.057
     8   6 C        2.890    -0.018    28.461     8.747
     9   8 O        1.661    -0.314    19.247     5.922
    10   1 H        0.925     0.067     2.119     2.277
    11   1 H        0.925     0.091     1.866     2.136
    12   1 H        0.925     0.069     2.092     2.262
    13   1 H        0.924     0.093     1.846     2.124
    14   1 H        0.924     0.096     1.825     2.113
    15   1 H        0.926     0.112     1.681     2.027
    16   1 H        0.926     0.114     1.660     2.015
    17   1 H        0.926     0.123     1.592     1.973
    18   1 H        0.925     0.100     1.782     2.088
    19   1 H        0.805     0.340     0.612     1.229

Wiberg/Mayer (AO) data.
largest (>0.10) Wiberg bond orders for each atom

     #   Z sym  total        # sym  WBO       # sym  WBO       # sym  WBO
 ---------------------------------------------------------------------------
     1   6 C    3.978 --     2 C    0.996    10 H    0.983    12 H    0.983
                            11 H    0.974
     2   6 C    3.934 --     1 C    0.996    14 H    0.963    13 H    0.963
                             3 N    0.958
     3   7 N    3.768 --     4 C    1.345     8 C    1.323     2 C    0.958
     4   6 C    3.958 --     5 C    1.415     3 N    1.345    15 H    0.954
     5   6 C    3.981 --     6 C    1.479     4 C    1.415    16 H    0.957
     6   6 C    3.975 --     5 C    1.479     7 C    1.302    17 H    0.956
     7   6 C    3.954 --     8 C    1.358     6 C    1.302     9 O    1.177
     8   6 C    3.960 --     7 C    1.358     3 N    1.323    18 H    0.954
     9   8 O    2.241 --     7 C    1.177    19 H    0.861
    10   1 H    0.996 --     1 C    0.983
    11   1 H    0.990 --     1 C    0.974
    12   1 H    0.995 --     1 C    0.983
    13   1 H    0.991 --     2 C    0.963
    14   1 H    0.991 --     2 C    0.963
    15   1 H    0.987 --     4 C    0.954
    16   1 H    0.987 --     5 C    0.957
    17   1 H    0.985 --     6 C    0.956
    18   1 H    0.990 --     8 C    0.954
    19   1 H    0.884 --     9 O    0.861
 ---------------------------------------------------------------------------

molecular dipole:
                 x           y           z       tot (Debye)
 q only:        1.672      -4.057      -3.104
   full:        1.494      -3.960      -3.002      13.188

           -------------------------------------------------
          | TOTAL ENERGY              -26.670784992480 Eh   |
          | GRADIENT NORM               0.000844760321 Eh/α |
          | HOMO-LUMO GAP               3.423142201079 eV   |
           -------------------------------------------------

 * finished run on 2024/12/20 at 07:06:24.810
