   * xtb version 6.7.1 (edcfbbe) compiled by 'conda@3ef47c1a292c' on 2024-11-25

   ID    Z sym.   atoms
    1    6 C      1-3, 5-11
    2    7 N      4
    3    1 H      12-29

          program call               : xtb C0970.xyz --opt --namespace C0970 --charge +1
          :  Hamiltonian                  GFN2-xTB          :
 * total energy  :   -33.0045018 Eh     change       -0.6407248E-09 Eh
 * total energy  :   -33.0106109 Eh     change       -0.6109093E-02 Eh
 * total energy  :   -33.0121768 Eh     change       -0.1565980E-02 Eh
 * total energy  :   -33.0124444 Eh     change       -0.2675424E-03 Eh
 * total energy  :   -33.0126271 Eh     change       -0.1827583E-03 Eh
 * total energy  :   -33.0127200 Eh     change       -0.9283831E-04 Eh
 * total energy  :   -33.0128007 Eh     change       -0.8071948E-04 Eh
 * total energy  :   -33.0128968 Eh     change       -0.9612223E-04 Eh
 * total energy  :   -33.0129909 Eh     change       -0.9406478E-04 Eh
 * total energy  :   -33.0130550 Eh     change       -0.6416204E-04 Eh
 * total energy  :   -33.0130857 Eh     change       -0.3069103E-04 Eh
 * total energy  :   -33.0131103 Eh     change       -0.2452629E-04 Eh
 * total energy  :   -33.0130819 Eh     change        0.2832029E-04 Eh
 * total energy  :   -33.0131363 Eh     change       -0.5432213E-04 Eh
 * total energy  :   -33.0131562 Eh     change       -0.1996767E-04 Eh
 * total energy  :   -33.0131673 Eh     change       -0.1107001E-04 Eh
 * total energy  :   -33.0131795 Eh     change       -0.1219487E-04 Eh
 * total energy  :   -33.0131865 Eh     change       -0.7016775E-05 Eh
 * total energy  :   -33.0131893 Eh     change       -0.2806200E-05 Eh
   *** GEOMETRY OPTIMIZATION CONVERGED AFTER 19 ITERATIONS ***

 final structure:
================
29
 xtb: 6.7.1 (edcfbbe)
C            1.01692872148536       -0.03130319139143       -0.12692841640780
C            0.20297485398461       -0.40966769842031       -1.09618349369872
C           -1.28345691851602       -0.20206016757399       -1.04836840627179
N           -1.77215772523758        0.88551473996421       -1.95541363386377
C           -1.27615010527443        0.68926362379633       -3.35489555943468
C           -1.66130321737913       -0.62992910635205       -3.95848314351645
C           -2.52248974306622       -0.74597500658002       -4.95351908366027
C           -3.26943034417277        0.89532595573790       -1.98097450328314
C           -3.90938384720996        1.03157213333089       -0.63029237285236
C           -4.52573791054723        2.13005646213459       -0.23203632422742
C           -1.28235038415264        2.18169990203883       -1.45775560773010
H            0.66503986823601        0.47313553305556        0.75844327141749
H            2.07376695015069       -0.22539828404217       -0.17250835344647
H            0.59195394608307       -0.93930888994148       -1.95371516669852
H           -1.79521880893990       -1.12478230851371       -1.32967319669792
H           -1.57454562615282        0.06765843320047       -0.03214124692814
H           -1.68249899416997        1.49864303360192       -3.96544061404614
H           -0.18807004844987        0.78432231968527       -3.33418651255945
H           -1.15857173786393       -1.50450866835077       -3.57162645503970
H           -2.75074374983331       -1.70115206972783       -5.39188047774935
H           -3.02402758978428        0.10557371138854       -5.38414288468811
H           -3.57923032418305        1.72997641980967       -2.61381161191842
H           -3.59363416344360       -0.03697548969058       -2.45129027762699
H           -3.89529695230058        0.15499503816256        0.00098568866367
H           -5.01207579424868        2.18727866274835        0.72545926300923
H           -4.58685298898045        3.01215320407344       -0.84853679387239
H           -1.72469496955775        2.39199425458851       -0.48538129290673
H           -0.19856197525798        2.15478515912116       -1.35922430352915
H           -1.55776042121728        2.97812229414547       -2.14634849043626

          :  Hamiltonian                  GFN2-xTB          :
         :: total energy             -33.013189312664 Eh    ::
         :: gradient norm              0.000350681903 Eh/a0 ::
         :: HOMO-LUMO gap              5.054686726591 eV    ::
         :: SCC energy               -33.568214850709 Eh    ::
         :: -> dispersion             -0.023019990694 Eh    ::
         :: repulsion energy           0.555025538045 Eh    ::

    * Orbital Energies and Occupations

         #    Occupation            Energy/Eh            Energy/eV
      -------------------------------------------------------------
         1        2.0000           -0.8587260             -23.3671
       ...           ...                  ...                  ...
        19        2.0000           -0.6438279             -17.5194
        20        2.0000           -0.6380409             -17.3620
        21        2.0000           -0.6363818             -17.3168
        22        2.0000           -0.6343684             -17.2620
        23        2.0000           -0.6105336             -16.6135
        24        2.0000           -0.6080897             -16.5470
        25        2.0000           -0.6043092             -16.4441
        26        2.0000           -0.5829908             -15.8640
        27        2.0000           -0.5790729             -15.7574
        28        2.0000           -0.5775121             -15.7149
        29        2.0000           -0.5675885             -15.4449
        30        2.0000           -0.5609973             -15.2655
        31        2.0000           -0.5575015             -15.1704 (HOMO)
        32                         -0.3717452             -10.1157 (LUMO)
        33                         -0.3600781              -9.7982
        34                         -0.3588173              -9.7639
        35                         -0.2092778              -5.6947
        36                         -0.1505410              -4.0964
        37                         -0.1436898              -3.9100
        38                         -0.1365489              -3.7157
        39                         -0.0506273              -1.3776
        40                         -0.0467087              -1.2710
        41                         -0.0351250              -0.9558
        42                         -0.0286634              -0.7800
       ...                                ...                  ...
        62                          0.4652357              12.6597
      -------------------------------------------------------------
                  HL-Gap            0.1857563 Eh            5.0547 eV

     #   Z          covCN         q      C6AA      α(0)
     1   6 C        2.838    -0.078    29.934     8.966
     2   6 C        2.884    -0.044    29.101     8.844
     3   6 C        3.761    -0.035    21.243     6.570
     4   7 N        3.620     0.117    19.233     6.513
     5   6 C        3.765    -0.036    21.257     6.571
     6   6 C        2.884    -0.044    29.099     8.844
     7   6 C        2.838    -0.077    29.922     8.964
     8   6 C        3.765    -0.037    21.270     6.573
     9   6 C        2.884    -0.045    29.121     8.847
    10   6 C        2.838    -0.077    29.914     8.963
    11   6 C        3.719    -0.091    22.351     6.753
    12   1 H        0.926     0.066     2.128     2.281
    13   1 H        0.926     0.081     1.973     2.196
    14   1 H        0.926     0.062     2.171     2.304
    15   1 H        0.924     0.089     1.886     2.148
    16   1 H        0.924     0.090     1.876     2.142
    17   1 H        0.924     0.084     1.935     2.175
    18   1 H        0.924     0.092     1.863     2.134
    19   1 H        0.926     0.063     2.169     2.303
    20   1 H        0.926     0.082     1.962     2.190
    21   1 H        0.926     0.066     2.125     2.279
    22   1 H        0.924     0.087     1.910     2.161
    23   1 H        0.924     0.088     1.898     2.155
    24   1 H        0.926     0.061     2.187     2.313
    25   1 H        0.926     0.082     1.963     2.191
    26   1 H        0.926     0.068     2.112     2.273
    27   1 H        0.925     0.098     1.807     2.102
    28   1 H        0.925     0.097     1.815     2.107
    29   1 H        0.925     0.093     1.854     2.129

Wiberg/Mayer (AO) data.
largest (>0.10) Wiberg bond orders for each atom

     #   Z sym  total        # sym  WBO       # sym  WBO       # sym  WBO
 ---------------------------------------------------------------------------
     1   6 C    3.981 --     2 C    1.979    12 H    0.972    13 H    0.972
     2   6 C    3.983 --     1 C    1.979     3 C    1.017    14 H    0.961
     3   6 C    3.933 --     2 C    1.017    16 H    0.962    15 H    0.959
                             4 N    0.918
     4   7 N    3.804 --    11 C    0.963     8 C    0.920     5 C    0.920
                             3 C    0.918
     5   6 C    3.934 --     6 C    1.018    17 H    0.965    18 H    0.955
                             4 N    0.920
     6   6 C    3.982 --     7 C    1.978     5 C    1.018    19 H    0.961
     7   6 C    3.980 --     6 C    1.978    21 H    0.972    20 H    0.971
     8   6 C    3.934 --     9 C    1.017    22 H    0.964    23 H    0.956
                             4 N    0.920
     9   6 C    3.983 --    10 C    1.978     8 C    1.017    24 H    0.962
    10   6 C    3.980 --     9 C    1.978    26 H    0.972    25 H    0.971
    11   6 C    3.930 --    29 H    0.975    28 H    0.972    27 H    0.971
                             4 N    0.963
    12   1 H    0.996 --     1 C    0.972
    13   1 H    0.993 --     1 C    0.972
    14   1 H    0.996 --     2 C    0.961
    15   1 H    0.992 --     3 C    0.959
    16   1 H    0.992 --     3 C    0.962
    17   1 H    0.993 --     5 C    0.965
    18   1 H    0.991 --     5 C    0.955
    19   1 H    0.996 --     6 C    0.961
    20   1 H    0.993 --     7 C    0.971
    21   1 H    0.995 --     7 C    0.972
    22   1 H    0.992 --     8 C    0.964
    23   1 H    0.992 --     8 C    0.956
    24   1 H    0.996 --     9 C    0.962
    25   1 H    0.993 --    10 C    0.971
    26   1 H    0.995 --    10 C    0.972
    27   1 H    0.990 --    11 C    0.971
    28   1 H    0.991 --    11 C    0.972
    29   1 H    0.991 --    11 C    0.975
 ---------------------------------------------------------------------------

molecular dipole:
                 x           y           z       tot (Debye)
 q only:       -3.403       1.586      -3.573
   full:       -3.417       1.604      -3.621      13.296

           -------------------------------------------------
          | TOTAL ENERGY              -33.013189312664 Eh   |
          | GRADIENT NORM               0.000350681903 Eh/α |
          | HOMO-LUMO GAP               5.054686726591 eV   |
           -------------------------------------------------

 * finished run on 2024/12/20 at 07:06:24.466
