   * xtb version 6.7.1 (edcfbbe) compiled by 'conda@3ef47c1a292c' on 2024-11-25

   ID    Z sym.   atoms
    1    6 C      1-3, 5-8
    2    7 N      4
    3    1 H      9-26

          program call               : xtb C0979.xyz --opt --namespace C0979 --charge +1
          :  Hamiltonian                  GFN2-xTB          :
 * total energy  :   -26.6801033 Eh     change       -0.9151080E-10 Eh
 * total energy  :   -26.6823782 Eh     change       -0.2274852E-02 Eh
 * total energy  :   -26.6828645 Eh     change       -0.4862685E-03 Eh
 * total energy  :   -26.6829190 Eh     change       -0.5454970E-04 Eh
 * total energy  :   -26.6829519 Eh     change       -0.3289581E-04 Eh
 * total energy  :   -26.6829734 Eh     change       -0.2145870E-04 Eh
 * total energy  :   -26.6830131 Eh     change       -0.3976097E-04 Eh
 * total energy  :   -26.6830213 Eh     change       -0.8136207E-05 Eh
 * total energy  :   -26.6830248 Eh     change       -0.3592389E-05 Eh
   *** GEOMETRY OPTIMIZATION CONVERGED AFTER 9 ITERATIONS ***

 final structure:
================
26
 xtb: 6.7.1 (edcfbbe)
C            0.97445312440752       -0.13731102110528       -0.04940971881805
C            0.57686588628118       -1.46104806050390        0.59727566137059
C            1.06773330929431       -1.58497260369816        2.03746818869699
N            0.55863538550580       -0.49238529298743        2.90970512428260
C           -0.93031220402733       -0.48647276650075        3.08847326238484
C           -1.60278668321697       -1.81381712193443        3.43669697929047
C           -1.26939234070014       -2.39093894422089        4.80862442404694
C            1.29713014571287       -0.43509886211960        4.18448053607850
H            0.43711292994050        0.71181193483024        0.37258661000158
H            0.73740874365297       -0.16482853753913       -1.10863396491909
H            2.04417853920254        0.03651017209477        0.04358036003385
H           -0.50359377593775       -1.59431083901536        0.54039496605293
H            1.02979340041010       -2.27851467257276        0.03552348378956
H            0.77619430019887       -2.54212804446148        2.46905700815062
H            2.15866226138486       -1.52633479014023        2.04484206052049
H            0.77407593227572        0.37477290883990        2.40266428225112
H           -1.15550538135756        0.24226264961707        3.87002170738872
H           -1.36499456453284       -0.12323642644447        2.15519012241584
H           -2.67331131419706       -1.60031873345233        3.41013423272904
H           -1.41630509575962       -2.55935509133199        2.66387849556445
H           -1.31296786817662       -1.62413833066764        5.57764632051140
H           -2.00136451383171       -3.15248712280411        5.06152071568976
H           -0.29339322376677       -2.86899259526809        4.83305836393948
H            2.35581433764546       -0.26658256124297        3.99425488969666
H            0.92282186199748        0.38003098297035        4.80031049239655
H            1.18365680759444       -1.36736623034122        4.72992539645427

          :  Hamiltonian                  GFN2-xTB          :
         :: total energy             -26.683024847899 Eh    ::
         :: gradient norm              0.000412191593 Eh/a0 ::
         :: HOMO-LUMO gap              9.212156544765 eV    ::
         :: SCC energy               -27.069161654848 Eh    ::
         :: -> dispersion             -0.016267258731 Eh    ::
         :: repulsion energy           0.386136806949 Eh    ::

    * Orbital Energies and Occupations

         #    Occupation            Energy/Eh            Energy/eV
      -------------------------------------------------------------
         1        2.0000           -0.8693950             -23.6574
       ...           ...                  ...                  ...
        13        2.0000           -0.6677166             -18.1695
        14        2.0000           -0.6591832             -17.9373
        15        2.0000           -0.6500259             -17.6881
        16        2.0000           -0.6493968             -17.6710
        17        2.0000           -0.6452874             -17.5592
        18        2.0000           -0.6365907             -17.3225
        19        2.0000           -0.6304894             -17.1565
        20        2.0000           -0.6058432             -16.4858
        21        2.0000           -0.6004028             -16.3378
        22        2.0000           -0.5920175             -16.1096
        23        2.0000           -0.5876240             -15.9901
        24        2.0000           -0.5823266             -15.8459
        25        2.0000           -0.5778158             -15.7232 (HOMO)
        26                         -0.2392753              -6.5110 (LUMO)
        27                         -0.1602751              -4.3613
        28                         -0.1418702              -3.8605
        29                         -0.1313233              -3.5735
        30                         -0.0712917              -1.9399
        31                         -0.0671306              -1.8267
        32                         -0.0508030              -1.3824
        33                         -0.0357599              -0.9731
        34                         -0.0227575              -0.6193
        35                         -0.0172244              -0.4687
        36                         -0.0040337              -0.1098
       ...                                ...                  ...
        50                          0.1648907               4.4869
      -------------------------------------------------------------
                  HL-Gap            0.3385405 Eh            9.2122 eV

     #   Z          covCN         q      C6AA      α(0)
     1   6 C        3.751    -0.123    22.911     6.826
     2   6 C        3.800    -0.075    21.938     6.669
     3   6 C        3.743    -0.038    21.325     6.588
     4   7 N        3.575     0.048    20.402     6.709
     5   6 C        3.736    -0.036    21.301     6.586
     6   6 C        3.799    -0.069    21.828     6.652
     7   6 C        3.751    -0.120    22.867     6.820
     8   6 C        3.694    -0.095    22.495     6.785
     9   1 H        0.925     0.034     2.526     2.486
    10   1 H        0.925     0.075     2.031     2.228
    11   1 H        0.925     0.054     2.274     2.358
    12   1 H        0.925     0.062     2.172     2.305
    13   1 H        0.924     0.081     1.965     2.192
    14   1 H        0.925     0.096     1.826     2.113
    15   1 H        0.924     0.088     1.898     2.154
    16   1 H        0.859     0.232     0.958     1.533
    17   1 H        0.924     0.089     1.889     2.149
    18   1 H        0.924     0.085     1.929     2.172
    19   1 H        0.924     0.078     1.999     2.211
    20   1 H        0.925     0.062     2.179     2.308
    21   1 H        0.925     0.053     2.277     2.360
    22   1 H        0.925     0.069     2.091     2.262
    23   1 H        0.925     0.041     2.432     2.439
    24   1 H        0.925     0.096     1.820     2.109
    25   1 H        0.925     0.100     1.789     2.092
    26   1 H        0.925     0.112     1.678     2.026

Wiberg/Mayer (AO) data.
largest (>0.10) Wiberg bond orders for each atom

     #   Z sym  total        # sym  WBO       # sym  WBO       # sym  WBO
 ---------------------------------------------------------------------------
     1   6 C    3.990 --     2 C    1.019    11 H    0.985    10 H    0.980
                             9 H    0.979
     2   6 C    3.985 --     1 C    1.019     3 C    1.007    12 H    0.972
                            13 H    0.966
     3   6 C    3.924 --     2 C    1.007    15 H    0.966    14 H    0.964
                             4 N    0.931
     4   7 N    3.770 --     8 C    0.963     3 C    0.931     5 C    0.923
                            16 H    0.904
     5   6 C    3.924 --     6 C    1.009    18 H    0.969    17 H    0.966
                             4 N    0.923
     6   6 C    3.984 --     7 C    1.019     5 C    1.009    20 H    0.970
                            19 H    0.963
     7   6 C    3.990 --     6 C    1.019    21 H    0.985    22 H    0.982
                            23 H    0.981
     8   6 C    3.921 --    24 H    0.976    25 H    0.975    26 H    0.968
                             4 N    0.963
     9   1 H    0.999 --     1 C    0.979
    10   1 H    0.994 --     1 C    0.980
    11   1 H    0.997 --     1 C    0.985
    12   1 H    0.996 --     2 C    0.972
    13   1 H    0.993 --     2 C    0.966
    14   1 H    0.991 --     3 C    0.964
    15   1 H    0.992 --     3 C    0.966
    16   1 H    0.946 --     4 N    0.904
    17   1 H    0.992 --     5 C    0.966
    18   1 H    0.993 --     5 C    0.969
    19   1 H    0.994 --     6 C    0.963
    20   1 H    0.996 --     6 C    0.970
    21   1 H    0.997 --     7 C    0.985
    22   1 H    0.995 --     7 C    0.982
    23   1 H    0.998 --     7 C    0.981
    24   1 H    0.991 --     8 C    0.976
    25   1 H    0.990 --     8 C    0.975
    26   1 H    0.987 --     8 C    0.968
 ---------------------------------------------------------------------------

molecular dipole:
                 x           y           z       tot (Debye)
 q only:        0.735      -1.443       5.368
   full:        0.806      -1.247       5.320      14.039

           -------------------------------------------------
          | TOTAL ENERGY              -26.683024847899 Eh   |
          | GRADIENT NORM               0.000412191593 Eh/α |
          | HOMO-LUMO GAP               9.212156544765 eV   |
           -------------------------------------------------

 * finished run on 2024/12/20 at 07:06:34.598
