   * xtb version 6.7.1 (edcfbbe) compiled by 'conda@3ef47c1a292c' on 2024-11-25

   ID    Z sym.   atoms
    1    6 C      1-6, 8-10
    2    7 N      7
    3    1 H      11-32

          program call               : xtb C0980.xyz --opt --namespace C0980 --charge +1
          :  Hamiltonian                  GFN2-xTB          :
 * total energy  :   -33.0098307 Eh     change       -0.4428102E-10 Eh
 * total energy  :   -33.0153562 Eh     change       -0.5525423E-02 Eh
 * total energy  :   -33.0166318 Eh     change       -0.1275657E-02 Eh
 * total energy  :   -33.0166964 Eh     change       -0.6455470E-04 Eh
 * total energy  :   -33.0167535 Eh     change       -0.5708171E-04 Eh
 * total energy  :   -33.0167755 Eh     change       -0.2201108E-04 Eh
 * total energy  :   -33.0168076 Eh     change       -0.3214250E-04 Eh
 * total energy  :   -33.0168216 Eh     change       -0.1400929E-04 Eh
 * total energy  :   -33.0168346 Eh     change       -0.1296025E-04 Eh
 * total energy  :   -33.0168418 Eh     change       -0.7271259E-05 Eh
 * total energy  :   -33.0168469 Eh     change       -0.5021231E-05 Eh
 * total energy  :   -33.0168519 Eh     change       -0.5003964E-05 Eh
 * total energy  :   -33.0168562 Eh     change       -0.4358903E-05 Eh
   *** GEOMETRY OPTIMIZATION CONVERGED AFTER 13 ITERATIONS ***

 final structure:
================
32
 xtb: 6.7.1 (edcfbbe)
C            0.63746458521089        0.38235993322936       -0.35942537389462
C            0.54824302884732       -1.00714074674136       -0.97882265865968
C            1.21207558866130       -2.09070143632830       -0.12547291200170
C            0.59469782886147       -2.28495363218868        1.26137471768307
C           -0.89862985937497       -2.63185949449880        1.27158773896987
C           -1.37358170053315       -3.80108062579482        0.40323487805466
N           -1.16438504836617       -5.20018467735594        0.90134408413153
C           -1.67642206395619       -5.36071221938041        2.27409345442582
C           -1.91517368316872       -6.10687262091055        0.00869937991419
C            0.25633656659700       -5.58718179671982        0.86307994587707
H            0.05116196523336        0.45371831527832        0.55336796879545
H            0.26047118200238        1.12501374984012       -1.05720083466886
H            1.67035114916272        0.62889517811490       -0.12702332033083
H           -0.49872419892208       -1.25555076645312       -1.16792224239294
H            1.05406360793648       -0.99050260182490       -1.94599669454192
H            1.20719926341869       -3.03289386064466       -0.68022079401005
H            2.25903694046440       -1.81824520417707        0.01807551329567
H            1.17948130079329       -3.02906791177699        1.80550290275328
H            0.70214182157804       -1.35334893712196        1.81748987001482
H           -1.22841406094857       -2.75658186883708        2.30290126352948
H           -1.43284879019900       -1.76199684106857        0.88520346677801
H           -2.45136666068621       -3.68760576480737        0.26609616169813
H           -0.90079296229084       -3.73026300634371       -0.57728077292514
H           -2.69737607803915       -4.98887824760974        2.34096649050868
H           -1.66934884485125       -6.41357279202001        2.55115592043029
H           -1.05356251400777       -4.81754911912452        2.98086102369960
H           -1.58940373265085       -5.97799609512130       -1.02209206019635
H           -1.74758324676731       -7.14290712326958        0.29810613492603
H           -2.98252817520194       -5.90036396894630        0.06563992726304
H            0.64897427129629       -5.48291389152497       -0.14641252665905
H            0.83908431936122       -4.95995158587250        1.53143844039137
H            0.36809820053843       -6.62436034000005        1.17486090714076

          :  Hamiltonian                  GFN2-xTB          :
         :: total energy             -33.016856230942 Eh    ::
         :: gradient norm              0.000329735576 Eh/a0 ::
         :: HOMO-LUMO gap              7.981663182275 eV    ::
         :: SCC energy               -33.493095136551 Eh    ::
         :: -> dispersion             -0.022266147964 Eh    ::
         :: repulsion energy           0.476238905610 Eh    ::

    * Orbital Energies and Occupations

         #    Occupation            Energy/Eh            Energy/eV
      -------------------------------------------------------------
         1        2.0000           -0.8696382             -23.6641
       ...           ...                  ...                  ...
        19        2.0000           -0.6461200             -17.5818
        20        2.0000           -0.6451268             -17.5548
        21        2.0000           -0.6372485             -17.3404
        22        2.0000           -0.6263090             -17.0427
        23        2.0000           -0.6138314             -16.7032
        24        2.0000           -0.5976246             -16.2622
        25        2.0000           -0.5947633             -16.1843
        26        2.0000           -0.5742183             -15.6253
        27        2.0000           -0.5641823             -15.3522
        28        2.0000           -0.5579169             -15.1817
        29        2.0000           -0.5369278             -14.6105
        30        2.0000           -0.5294546             -14.4072
        31        2.0000           -0.5243397             -14.2680 (HOMO)
        32                         -0.2310190              -6.2863 (LUMO)
        33                         -0.1625373              -4.4229
        34                         -0.1531327              -4.1670
        35                         -0.1448607              -3.9419
        36                         -0.0804611              -2.1895
        37                         -0.0665666              -1.8114
        38                         -0.0394394              -1.0732
        39                         -0.0283511              -0.7715
        40                         -0.0123871              -0.3371
        41                         -0.0071765              -0.1953
        42                          0.0004956               0.0135
       ...                                ...                  ...
        62                          0.2016731               5.4878
      -------------------------------------------------------------
                  HL-Gap            0.2933207 Eh            7.9817 eV

     #   Z          covCN         q      C6AA      α(0)
     1   6 C        3.752    -0.110    22.657     6.788
     2   6 C        3.799    -0.058    21.611     6.619
     3   6 C        3.800    -0.065    21.745     6.639
     4   6 C        3.799    -0.068    21.811     6.650
     5   6 C        3.799    -0.075    21.937     6.669
     6   6 C        3.759    -0.043    21.397     6.595
     7   7 N        3.622     0.145    18.789     6.438
     8   6 C        3.721    -0.096    22.455     6.768
     9   6 C        3.732    -0.098    22.473     6.766
    10   6 C        3.722    -0.096    22.450     6.767
    11   1 H        0.925     0.035     2.519     2.482
    12   1 H        0.925     0.047     2.364     2.404
    13   1 H        0.925     0.045     2.380     2.413
    14   1 H        0.924     0.025     2.658     2.550
    15   1 H        0.924     0.043     2.415     2.430
    16   1 H        0.924     0.019     2.747     2.592
    17   1 H        0.924     0.052     2.297     2.370
    18   1 H        0.924     0.029     2.597     2.520
    19   1 H        0.924     0.065     2.144     2.290
    20   1 H        0.925     0.054     2.269     2.356
    21   1 H        0.924     0.080     1.976     2.198
    22   1 H        0.924     0.080     1.975     2.198
    23   1 H        0.924     0.093     1.852     2.128
    24   1 H        0.925     0.099     1.796     2.096
    25   1 H        0.925     0.098     1.800     2.098
    26   1 H        0.925     0.103     1.755     2.072
    27   1 H        0.925     0.099     1.793     2.094
    28   1 H        0.925     0.100     1.786     2.090
    29   1 H        0.925     0.099     1.797     2.097
    30   1 H        0.925     0.097     1.811     2.104
    31   1 H        0.925     0.107     1.724     2.054
    32   1 H        0.925     0.096     1.824     2.112

Wiberg/Mayer (AO) data.
largest (>0.10) Wiberg bond orders for each atom

     #   Z sym  total        # sym  WBO       # sym  WBO       # sym  WBO
 ---------------------------------------------------------------------------
     1   6 C    3.995 --     2 C    1.021    13 H    0.987    12 H    0.986
                            11 H    0.986
     2   6 C    3.997 --     1 C    1.021     3 C    1.007    15 H    0.977
                            14 H    0.976
     3   6 C    3.995 --     4 C    1.008     2 C    1.007    17 H    0.974
                            16 H    0.974
     4   6 C    3.992 --     3 C    1.008     5 C    1.005    19 H    0.969
                            18 H    0.968
     5   6 C    3.982 --     6 C    1.005     4 C    1.005    20 H    0.969
                            21 H    0.961
     6   6 C    3.924 --     5 C    1.005    22 H    0.969    23 H    0.962
                             7 N    0.917
     7   7 N    3.816 --     8 C    0.959    10 C    0.958     9 C    0.958
                             6 C    0.917
     8   6 C    3.928 --    24 H    0.975    25 H    0.974    26 H    0.972
                             7 N    0.959
     9   6 C    3.928 --    27 H    0.975    29 H    0.975    28 H    0.974
                             7 N    0.958
    10   6 C    3.926 --    32 H    0.975    30 H    0.974    31 H    0.964
                             7 N    0.958
    11   1 H    0.999 --     1 C    0.986
    12   1 H    0.998 --     1 C    0.986
    13   1 H    0.998 --     1 C    0.987
    14   1 H    0.999 --     2 C    0.976
    15   1 H    0.998 --     2 C    0.977
    16   1 H    1.000 --     3 C    0.974
    17   1 H    0.997 --     3 C    0.974
    18   1 H    0.999 --     4 C    0.968
    19   1 H    0.995 --     4 C    0.969
    20   1 H    0.997 --     5 C    0.969
    21   1 H    0.993 --     5 C    0.961
    22   1 H    0.994 --     6 C    0.969
    23   1 H    0.991 --     6 C    0.962
    24   1 H    0.990 --     8 C    0.975
    25   1 H    0.990 --     8 C    0.974
    26   1 H    0.989 --     8 C    0.972
    27   1 H    0.990 --     9 C    0.975
    28   1 H    0.990 --     9 C    0.974
    29   1 H    0.990 --     9 C    0.975
    30   1 H    0.991 --    10 C    0.974
    31   1 H    0.989 --    10 C    0.964
    32   1 H    0.991 --    10 C    0.975
 ---------------------------------------------------------------------------

molecular dipole:
                 x           y           z       tot (Debye)
 q only:       -1.957      -9.213       1.689
   full:       -2.015      -9.304       1.670      24.566

           -------------------------------------------------
          | TOTAL ENERGY              -33.016856230942 Eh   |
          | GRADIENT NORM               0.000329735576 Eh/α |
          | HOMO-LUMO GAP               7.981663182275 eV   |
           -------------------------------------------------

 * finished run on 2024/12/20 at 07:06:35.292
