   * xtb version 6.7.1 (edcfbbe) compiled by 'conda@3ef47c1a292c' on 2024-11-25

   ID    Z sym.   atoms
    1    6 C      1, 3, 5-8
    2    8 O      2, 4
    3    7 N      9
    4    1 H      10-23

          program call               : xtb C0982.xyz --opt --namespace C0982 --charge +1
          :  Hamiltonian                  GFN2-xTB          :
 * total energy  :   -30.6124182 Eh     change       -0.2100542E-09 Eh
 * total energy  :   -30.6171755 Eh     change       -0.4757342E-02 Eh
 * total energy  :   -30.6178122 Eh     change       -0.6367075E-03 Eh
 * total energy  :   -30.6180215 Eh     change       -0.2092866E-03 Eh
 * total energy  :   -30.6180962 Eh     change       -0.7465275E-04 Eh
 * total energy  :   -30.6181369 Eh     change       -0.4073535E-04 Eh
 * total energy  :   -30.6181627 Eh     change       -0.2582098E-04 Eh
 * total energy  :   -30.6181834 Eh     change       -0.2069664E-04 Eh
 * total energy  :   -30.6181991 Eh     change       -0.1570144E-04 Eh
 * total energy  :   -30.6182051 Eh     change       -0.5933836E-05 Eh
 * total energy  :   -30.6182118 Eh     change       -0.6695068E-05 Eh
 * total energy  :   -30.6182198 Eh     change       -0.8002586E-05 Eh
 * total energy  :   -30.6182321 Eh     change       -0.1229435E-04 Eh
 * total energy  :   -30.6182379 Eh     change       -0.5882694E-05 Eh
 * total energy  :   -30.6182406 Eh     change       -0.2616657E-05 Eh
   *** GEOMETRY OPTIMIZATION CONVERGED AFTER 15 ITERATIONS ***

 final structure:
================
23
 xtb: 6.7.1 (edcfbbe)
C            0.72032540212223        0.00848503665676        0.55550488999151
O            0.18414298607005        1.32361737298005        0.34830201499878
C            1.05945593854666        2.32937192078977        0.35585433259061
O            2.23590194169061        2.24205985860990        0.51130821531585
C            0.34650680473389        3.67212305196839        0.10350896570964
C            0.82410060161677        4.28208349754986       -1.22982747572018
C            0.43862510282399        3.40282919945338       -2.41824254204442
C            0.29412051502440        5.70384664150277       -1.39920917757122
N           -1.13461160396753        3.48686203592311        0.08143051753585
H           -0.07219753733362       -0.68597232732852        0.29164893394453
H            1.00556856257174       -0.11436445916748        1.59999519874330
H            1.59706793208415       -0.14293019827841       -0.07381129228486
H            0.61158012343567        4.34936703554897        0.92126430709093
H            1.91500956149990        4.32098278618960       -1.16436148808519
H           -0.63295975260159        3.41633008568412       -2.61172985559974
H            0.92796525593190        3.77612335400087       -3.31309104634075
H            0.76594392514394        2.37609872174502       -2.27497785149547
H            0.53536953258183        6.32193549987427       -0.53832504153388
H            0.75855355947229        6.15851823177803       -2.26912326968864
H           -0.78292359007592        5.72907569391649       -1.56731355389585
H           -1.50552768985993        3.25851971213858        1.01057977638887
H           -1.56710207893910        4.35252536762729       -0.27238618555024
H           -1.34775549257257        2.70194188083718       -0.55138837249942

          :  Hamiltonian                  GFN2-xTB          :
         :: total energy             -30.618240552089 Eh    ::
         :: gradient norm              0.000578939458 Eh/a0 ::
         :: HOMO-LUMO gap              5.125432207225 eV    ::
         :: SCC energy               -30.976746358198 Eh    ::
         :: -> dispersion             -0.014661980005 Eh    ::
         :: repulsion energy           0.358505806110 Eh    ::

    * Orbital Energies and Occupations

         #    Occupation            Energy/Eh            Energy/eV
      -------------------------------------------------------------
         1        2.0000           -0.9137134             -24.8634
       ...           ...                  ...                  ...
        15        2.0000           -0.6969811             -18.9658
        16        2.0000           -0.6768549             -18.4182
        17        2.0000           -0.6670588             -18.1516
        18        2.0000           -0.6605464             -17.9744
        19        2.0000           -0.6491589             -17.6645
        20        2.0000           -0.6316562             -17.1882
        21        2.0000           -0.6164569             -16.7746
        22        2.0000           -0.6114478             -16.6383
        23        2.0000           -0.6034195             -16.4199
        24        2.0000           -0.5971508             -16.2493
        25        2.0000           -0.5941561             -16.1678
        26        2.0000           -0.5909208             -16.0798
        27        2.0000           -0.5788627             -15.7517 (HOMO)
        28                         -0.3905065             -10.6262 (LUMO)
        29                         -0.2618805              -7.1261
        30                         -0.1694484              -4.6109
        31                         -0.1599126              -4.3514
        32                         -0.1120138              -3.0480
        33                         -0.0914182              -2.4876
        34                         -0.0755402              -2.0556
        35                         -0.0650545              -1.7702
        36                         -0.0538253              -1.4647
        37                         -0.0131661              -0.3583
        38                          0.0039859               0.1085
       ...                                ...                  ...
        50                          0.5307941              14.4436
      -------------------------------------------------------------
                  HL-Gap            0.1883562 Eh            5.1254 eV

     #   Z          covCN         q      C6AA      α(0)
     1   6 C        3.651     0.014    20.657     6.528
     2   8 O        1.703    -0.268    18.445     5.799
     3   6 C        2.717     0.350    21.055     7.511
     4   8 O        0.856    -0.338    20.480     6.067
     5   6 C        3.782    -0.016    20.885     6.510
     6   6 C        3.851    -0.026    21.008     6.519
     7   6 C        3.754    -0.131    23.081     6.851
     8   6 C        3.755    -0.133    23.108     6.854
     9   7 N        3.484    -0.138    23.978     7.273
    10   1 H        0.925     0.092     1.859     2.132
    11   1 H        0.925     0.086     1.914     2.163
    12   1 H        0.925     0.090     1.883     2.146
    13   1 H        0.924     0.116     1.642     2.004
    14   1 H        0.924     0.097     1.811     2.104
    15   1 H        0.925     0.044     2.399     2.422
    16   1 H        0.925     0.084     1.942     2.179
    17   1 H        0.925     0.053     2.288     2.366
    18   1 H        0.925     0.061     2.191     2.315
    19   1 H        0.925     0.086     1.920     2.167
    20   1 H        0.924     0.041     2.432     2.439
    21   1 H        0.859     0.271     0.806     1.406
    22   1 H        0.859     0.280     0.778     1.381
    23   1 H        0.859     0.286     0.755     1.361

Wiberg/Mayer (AO) data.
largest (>0.10) Wiberg bond orders for each atom

     #   Z sym  total        # sym  WBO       # sym  WBO       # sym  WBO
 ---------------------------------------------------------------------------
     1   6 C    3.891 --    10 H    0.978    12 H    0.975    11 H    0.974
                             2 O    0.928
     2   8 O    2.310 --     3 C    1.142     1 C    0.928     4 O    0.189
     3   6 C    3.941 --     4 O    1.806     2 O    1.142     5 C    0.929
     4   8 O    2.115 --     3 C    1.806     2 O    0.189
     5   6 C    3.900 --     6 C    0.960    13 H    0.946     3 C    0.929
                             9 N    0.927
     6   6 C    3.972 --     7 C    1.008     8 C    1.007     5 C    0.960
                            14 H    0.953
     7   6 C    3.988 --     6 C    1.008    17 H    0.982    15 H    0.982
                            16 H    0.979
     8   6 C    3.987 --     6 C    1.007    18 H    0.983    19 H    0.977
                            20 H    0.975
     9   7 N    3.671 --     5 C    0.927    21 H    0.912    23 H    0.893
                            22 H    0.892
    10   1 H    0.991 --     1 C    0.978
    11   1 H    0.992 --     1 C    0.974
    12   1 H    0.992 --     1 C    0.975
    13   1 H    0.986 --     5 C    0.946
    14   1 H    0.991 --     6 C    0.953
    15   1 H    0.998 --     7 C    0.982
    16   1 H    0.993 --     7 C    0.979
    17   1 H    0.997 --     7 C    0.982
    18   1 H    0.996 --     8 C    0.983
    19   1 H    0.992 --     8 C    0.977
    20   1 H    0.998 --     8 C    0.975
    21   1 H    0.926 --     9 N    0.912
    22   1 H    0.922 --     9 N    0.892
    23   1 H    0.918 --     9 N    0.893
 ---------------------------------------------------------------------------

molecular dipole:
                 x           y           z       tot (Debye)
 q only:       -1.866       6.235      -0.419
   full:       -2.178       6.205      -0.315      16.734

           -------------------------------------------------
          | TOTAL ENERGY              -30.618240552089 Eh   |
          | GRADIENT NORM               0.000578939458 Eh/α |
          | HOMO-LUMO GAP               5.125432207225 eV   |
           -------------------------------------------------

 * finished run on 2024/12/20 at 07:06:36.386
