   * xtb version 6.7.1 (edcfbbe) compiled by 'conda@3ef47c1a292c' on 2024-11-25

   ID    Z sym.   atoms
    1    6 C      1, 2, 4, 6, 8-12
    2    8 O      3, 5
    3    7 N      7
    4    1 H      13-24

          program call               : xtb C0981.xyz --opt --namespace C0981 --charge +1
          :  Hamiltonian                  GFN2-xTB          :
 * total energy  :   -36.0299218 Eh     change       -0.2914007E-09 Eh
 * total energy  :   -36.0350852 Eh     change       -0.5163381E-02 Eh
 * total energy  :   -36.0362230 Eh     change       -0.1137867E-02 Eh
 * total energy  :   -36.0365212 Eh     change       -0.2981681E-03 Eh
 * total energy  :   -36.0366978 Eh     change       -0.1766191E-03 Eh
 * total energy  :   -36.0367931 Eh     change       -0.9531033E-04 Eh
 * total energy  :   -36.0369192 Eh     change       -0.1260808E-03 Eh
 * total energy  :   -36.0371054 Eh     change       -0.1862048E-03 Eh
 * total energy  :   -36.0373156 Eh     change       -0.2101580E-03 Eh
 * total energy  :   -36.0375004 Eh     change       -0.1848415E-03 Eh
 * total energy  :   -36.0381860 Eh     change       -0.1775157E-04 Eh
 * total energy  :   -36.0382091 Eh     change       -0.2304184E-04 Eh
 * total energy  :   -36.0382331 Eh     change       -0.2403410E-04 Eh
 * total energy  :   -36.0382518 Eh     change       -0.1871982E-04 Eh
 * total energy  :   -36.0382644 Eh     change       -0.1256732E-04 Eh
 * total energy  :   -36.0382731 Eh     change       -0.8695707E-05 Eh
 * total energy  :   -36.0382801 Eh     change       -0.6985643E-05 Eh
 * total energy  :   -36.0382858 Eh     change       -0.5743280E-05 Eh
 * total energy  :   -36.0382901 Eh     change       -0.4318874E-05 Eh
   *** GEOMETRY OPTIMIZATION CONVERGED AFTER 37 ITERATIONS ***

 final structure:
================
24
 xtb: 6.7.1 (edcfbbe)
C            0.64490185204680       -0.03252470689749       -0.22760653357552
C            0.36125492467488       -1.48594776806880       -0.56066778930329
O            1.23074217934240       -2.37592037469758        0.17946143439864
C            2.44414644868335       -2.56917864758636       -0.30253300618747
O            2.91987477890292       -2.11401905729424       -1.29348341305103
C            3.24511602392197       -3.54348548077741        0.61522029601337
N            2.53446432310971       -3.85755787928907        1.82678198732308
C            1.68239544939901       -4.89070605367932        1.85083581969137
C            0.92884844954632       -5.16769053290328        2.97210887538370
C            1.05204906135297       -4.35580526109689        4.09271309024254
C            1.93663615043266       -3.28525402803269        4.04553679715601
C            2.66266498174146       -3.05951694413547        2.89531933981848
H            0.54777018322656        0.14335578121833        0.84095394734180
H           -0.06974513683073        0.59533034731865       -0.75056837779563
H            1.64586627134036        0.24397603958740       -0.54905412442890
H           -0.64437371932488       -1.77868558318006       -0.25712380398776
H            0.50269332401003       -1.67129797794811       -1.62815446308539
H            3.43775301394143       -4.44588788646197        0.02968621794701
H            4.20395050313768       -3.06727778722993        0.83259355340737
H            1.61154329533370       -5.49702076304047        0.95970794494761
H            0.25407377020981       -6.00891934704331        2.96574341310862
H            0.47322833004105       -4.55261380383564        4.98147439141696
H            2.06380726981410       -2.63031791941571        4.89294025664460
H            3.35849827194599       -2.23667436550984        2.81916414657417

          :  Hamiltonian                  GFN2-xTB          :
         :: total energy             -36.038290124618 Eh    ::
         :: gradient norm              0.000522343407 Eh/a0 ::
         :: HOMO-LUMO gap              2.611781939996 eV    ::
         :: SCC energy               -36.539271234304 Eh    ::
         :: -> dispersion             -0.018050936397 Eh    ::
         :: repulsion energy           0.500981109686 Eh    ::

    * Orbital Energies and Occupations

         #    Occupation            Energy/Eh            Energy/eV
      -------------------------------------------------------------
         1        2.0000           -0.9012208             -24.5235
       ...           ...                  ...                  ...
        20        2.0000           -0.6816508             -18.5487
        21        2.0000           -0.6629610             -18.0401
        22        2.0000           -0.6546192             -17.8131
        23        2.0000           -0.6381849             -17.3659
        24        2.0000           -0.6368322             -17.3291
        25        2.0000           -0.6308531             -17.1664
        26        2.0000           -0.6300659             -17.1450
        27        2.0000           -0.6231072             -16.9556
        28        2.0000           -0.6227717             -16.9465
        29        2.0000           -0.5852803             -15.9263
        30        2.0000           -0.5810979             -15.8125
        31        2.0000           -0.5719717             -15.5641
        32        2.0000           -0.5638701             -15.3437 (HOMO)
        33                         -0.4678889             -12.7319 (LUMO)
        34                         -0.4358401             -11.8598
        35                         -0.3776786             -10.2772
        36                         -0.3159007              -8.5961
        37                         -0.1790272              -4.8716
        38                         -0.1618936              -4.4054
        39                         -0.0833646              -2.2685
        40                         -0.0517431              -1.4080
        41                         -0.0507557              -1.3811
        42                         -0.0350147              -0.9528
        43                         -0.0200561              -0.5458
       ...                                ...                  ...
        60                          0.5488540              14.9351
      -------------------------------------------------------------
                  HL-Gap            0.0959812 Eh            2.6118 eV

     #   Z          covCN         q      C6AA      α(0)
     1   6 C        3.751    -0.123    22.919     6.827
     2   6 C        3.697     0.069    19.579     6.329
     3   8 O        1.701    -0.265    18.390     5.790
     4   6 C        2.710     0.365    20.815     7.468
     5   8 O        0.856    -0.338    20.484     6.068
     6   6 C        3.761    -0.071    21.903     6.672
     7   7 N        2.749     0.127    19.078     6.487
     8   6 C        2.892     0.034    27.228     8.555
     9   6 C        2.915    -0.007    28.191     8.707
    10   6 C        2.925     0.015    27.670     8.626
    11   6 C        2.915    -0.007    28.196     8.707
    12   6 C        2.893     0.033    27.252     8.559
    13   1 H        0.925     0.058     2.223     2.332
    14   1 H        0.925     0.077     2.009     2.217
    15   1 H        0.925     0.070     2.090     2.261
    16   1 H        0.924     0.076     2.020     2.223
    17   1 H        0.924     0.077     2.006     2.215
    18   1 H        0.924     0.123     1.593     1.974
    19   1 H        0.924     0.123     1.588     1.970
    20   1 H        0.926     0.112     1.676     2.025
    21   1 H        0.926     0.113     1.669     2.020
    22   1 H        0.926     0.112     1.680     2.027
    23   1 H        0.926     0.113     1.671     2.022
    24   1 H        0.926     0.112     1.679     2.027

Wiberg/Mayer (AO) data.
largest (>0.10) Wiberg bond orders for each atom

     #   Z sym  total        # sym  WBO       # sym  WBO       # sym  WBO
 ---------------------------------------------------------------------------
     1   6 C    3.985 --     2 C    1.016    13 H    0.985    15 H    0.983
                            14 H    0.977
     2   6 C    3.894 --     1 C    1.016    16 H    0.970    17 H    0.969
                             3 O    0.898
     3   8 O    2.325 --     4 C    1.178     2 C    0.898     5 O    0.191
     4   6 C    3.940 --     5 O    1.798     3 O    1.178     6 C    0.894
     5   8 O    2.124 --     4 C    1.798     3 O    0.191
     6   6 C    3.940 --     7 N    0.994    19 H    0.947    18 H    0.945
                             4 C    0.894
     7   7 N    3.773 --     8 C    1.317    12 C    1.316     6 C    0.994
     8   6 C    3.955 --     9 C    1.465     7 N    1.317    20 H    0.954
     9   6 C    3.979 --     8 C    1.465    10 C    1.420    21 H    0.958
    10   6 C    3.961 --     9 C    1.420    11 C    1.418    22 H    0.960
    11   6 C    3.979 --    12 C    1.467    10 C    1.418    23 H    0.958
    12   6 C    3.956 --    11 C    1.467     7 N    1.316    24 H    0.954
    13   1 H    0.997 --     1 C    0.985
    14   1 H    0.993 --     1 C    0.977
    15   1 H    0.995 --     1 C    0.983
    16   1 H    0.994 --     2 C    0.970
    17   1 H    0.994 --     2 C    0.969
    18   1 H    0.985 --     6 C    0.945
    19   1 H    0.984 --     6 C    0.947
    20   1 H    0.987 --     8 C    0.954
    21   1 H    0.987 --     9 C    0.958
    22   1 H    0.987 --    10 C    0.960
    23   1 H    0.987 --    11 C    0.958
    24   1 H    0.987 --    12 C    0.954
 ---------------------------------------------------------------------------

molecular dipole:
                 x           y           z       tot (Debye)
 q only:        3.214      -6.957       4.562
   full:        3.236      -7.076       4.600      22.974

           -------------------------------------------------
          | TOTAL ENERGY              -36.038290124618 Eh   |
          | GRADIENT NORM               0.000522343407 Eh/α |
          | HOMO-LUMO GAP               2.611781939996 eV   |
           -------------------------------------------------

 * finished run on 2024/12/20 at 07:06:35.954
