   * xtb version 6.7.1 (edcfbbe) compiled by 'conda@3ef47c1a292c' on 2024-11-25

   ID    Z sym.   atoms
    1    6 C      1-16, 18-24, 26, 27
    2    7 N      17
    3    8 O      25
    4    1 H      28-73

          program call               : xtb C0989.xyz --opt --namespace C0989 --charge +1
          :  Hamiltonian                  GFN2-xTB          :
 * total energy  :   -83.6017246 Eh     change       -0.7349854E-09 Eh
 * total energy  :   -83.6096634 Eh     change       -0.7938811E-02 Eh
 * total energy  :   -83.6115909 Eh     change       -0.1927468E-02 Eh
 * total energy  :   -83.6117952 Eh     change       -0.2043256E-03 Eh
 * total energy  :   -83.6120353 Eh     change       -0.2400687E-03 Eh
 * total energy  :   -83.6121825 Eh     change       -0.1471635E-03 Eh
 * total energy  :   -83.6123869 Eh     change       -0.2044817E-03 Eh
 * total energy  :   -83.6126340 Eh     change       -0.2470859E-03 Eh
 * total energy  :   -83.6128676 Eh     change       -0.2335928E-03 Eh
 * total energy  :   -83.6130734 Eh     change       -0.2057859E-03 Eh
 * total energy  :   -83.6146488 Eh     change       -0.7957762E-05 Eh
 * total energy  :   -83.6146588 Eh     change       -0.1004022E-04 Eh
 * total energy  :   -83.6146692 Eh     change       -0.1035074E-04 Eh
 * total energy  :   -83.6146767 Eh     change       -0.7499046E-05 Eh
 * total energy  :   -83.6146822 Eh     change       -0.5528119E-05 Eh
 * total energy  :   -83.6146875 Eh     change       -0.5296000E-05 Eh
 * total energy  :   -83.6146932 Eh     change       -0.5707213E-05 Eh
 * total energy  :   -83.6146985 Eh     change       -0.5306716E-05 Eh
 * total energy  :   -83.6147029 Eh     change       -0.4430281E-05 Eh
   *** GEOMETRY OPTIMIZATION CONVERGED AFTER 62 ITERATIONS ***

 final structure:
================
73
 xtb: 6.7.1 (edcfbbe)
C            1.35590719677619       -0.52660037520310        0.39650882114743
C            1.16721510056509        0.65296713920872        1.34304551631625
C            1.54706445424270        1.99620947048191        0.71785752171103
C            0.71375198286698        2.40153367554315       -0.49975540745680
C           -0.78859899025483        2.53200071043676       -0.24257782241350
C           -1.17679520671295        3.56433920780674        0.81780361130679
C           -0.72506408021690        4.99665779522679        0.52411676682829
C           -1.22026993885571        5.57303954866428       -0.80401677425407
C           -2.74002758650115        5.58351017616167       -0.97798634853396
C           -3.50489561467686        6.39476847964240        0.06928360329762
C           -3.17024987050444        7.88759929827703        0.10166704985617
C           -3.40458068765215        8.63226294720142       -1.21506538054429
C           -4.81655147415656        8.50272558348882       -1.79095516151545
C           -5.93916385315245        8.98952558891294       -0.87111437276577
C           -5.91737565340179       10.49762353732963       -0.59417826547472
C           -6.25981936845139       11.37060897772289       -1.80742512789323
N           -7.66405659115171       11.87673289628936       -1.89168101861824
C           -7.95492326966723       12.87974856841478       -0.80527303945797
C           -7.08878507332827       14.10785825897451       -0.84362591098533
C           -5.89413134126306       14.16133767767418       -0.13212676508836
C           -5.10862647468539       15.29710701759789       -0.14984979075879
C           -5.50737145508928       16.41568108219564       -0.87920072527840
C           -6.71499345635263       16.37381904390984       -1.57993792499949
C           -7.49152899689990       15.23735392607116       -1.55579462012048
O           -4.78728569345334       17.54527214283030       -0.93644486878124
C           -7.83273540784573       12.52206952672386       -3.20691231978459
C           -8.63476198438673       10.77472749277715       -1.78788236058123
H            0.67123861104924       -0.46816459707128       -0.44576193700941
H            1.16854282079120       -1.46218569636850        0.91870314723156
H            2.37371429946926       -0.54730344142861        0.01276521612570
H            0.13170566727082        0.68192472395340        1.68669508548910
H            1.79613964989448        0.50070314818115        2.22374564372482
H            1.47048709699753        2.77179956584402        1.48292498579713
H            2.59456301033247        1.95039953064782        0.40859115283826
H            1.09935148102867        3.35190820118326       -0.87544367493590
H            0.85975971985496        1.66477504656901       -1.29205693286238
H           -1.27570264947838        2.78392877406152       -1.18742914230518
H           -1.18364185336928        1.56279641711077        0.06801783931294
H           -2.26331095778793        3.54449507315323        0.93207254729662
H           -0.75243218586849        3.26651713234208        1.77852293100845
H           -1.06084965419680        5.63567326909856        1.34442242701363
H            0.36589186011749        5.03351453496239        0.52121732323449
H           -0.83618282205631        6.59143724886598       -0.90023740819013
H           -0.79190403934074        4.99436726739379       -1.62436116794234
H           -2.96786457329637        5.96825208334917       -1.97493585855846
H           -3.10834074784822        4.55690737218765       -0.94318380260774
H           -4.57513069296273        6.26481953310110       -0.10982446205277
H           -3.29849236140521        5.98269588742037        1.05814539387765
H           -3.75678627296307        8.35477459903932        0.89714670549706
H           -2.12061108434937        8.01074852045947        0.37204329644262
H           -3.16117589309966        9.68734995250396       -1.06397922608925
H           -2.70674834492137        8.25466242377028       -1.96337555124653
H           -4.84773639675248        9.04278184972044       -2.74148254809123
H           -5.00567503155994        7.45368082348155       -2.01893682313934
H           -6.89493197723835        8.69414676949405       -1.30696152290511
H           -5.85171833498113        8.47234213212975        0.08396002634056
H           -6.57967042648470       10.71577746953032        0.24400116052867
H           -4.91110893931024       10.76034049577750       -0.26763134179880
H           -5.61789936492650       12.25320143149141       -1.82575025909435
H           -6.06744434837202       10.79591097990726       -2.71511496040767
H           -9.00260636609733       13.16833779595232       -0.91133375405079
H           -7.83426005803935       12.37436567891762        0.15356688567427
H           -5.57745302183634       13.31577015704342        0.46058333576288
H           -4.18739912608189       15.32294850825453        0.41439250245539
H           -7.02492569031791       17.25100011926688       -2.12318450459668
H           -8.43422138449727       15.23808339198450       -2.08258345040902
H           -3.98776254820514       17.48865415004196       -0.39741365661082
H           -7.67312804438998       11.79750004288631       -4.00336642738809
H           -8.84027210717537       12.92329323916707       -3.29909904577626
H           -7.11937079760391       13.33632678300022       -3.31942403976694
H           -8.43292141744478       10.03054762594367       -2.55623740273880
H           -8.57623280722429       10.30135378057821       -0.81103337619972
H           -9.64576856098486       11.15378081084403       -1.92872421314435

          :  Hamiltonian                  GFN2-xTB          :
         :: total energy             -83.614702925504 Eh    ::
         :: gradient norm              0.000247691928 Eh/a0 ::
         :: HOMO-LUMO gap              2.889426574446 eV    ::
         :: SCC energy               -84.857304308064 Eh    ::
         :: -> dispersion             -0.065838683901 Eh    ::
         :: repulsion energy           1.242601382560 Eh    ::

    * Orbital Energies and Occupations

         #    Occupation            Energy/Eh            Energy/eV
      -------------------------------------------------------------
         1        2.0000           -0.8534598             -23.2238
       ...           ...                  ...                  ...
        66        2.0000           -0.5058680             -13.7654
        67        2.0000           -0.5025385             -13.6748
        68        2.0000           -0.5006658             -13.6238
        69        2.0000           -0.4958798             -13.4936
        70        2.0000           -0.4903436             -13.3429
        71        2.0000           -0.4866080             -13.2413
        72        2.0000           -0.4825555             -13.1310
        73        2.0000           -0.4725863             -12.8597
        74        2.0000           -0.4713811             -12.8269
        75        2.0000           -0.4683540             -12.7446
        76        2.0000           -0.4587400             -12.4830
        77        2.0000           -0.4531640             -12.3312
        78        2.0000           -0.4518534             -12.2956 (HOMO)
        79                         -0.3456689              -9.4061 (LUMO)
        80                         -0.3444751              -9.3736
        81                         -0.2295438              -6.2462
        82                         -0.2028526              -5.5199
        83                         -0.1498418              -4.0774
        84                         -0.1376795              -3.7465
        85                         -0.1319719              -3.5911
        86                         -0.0596547              -1.6233
        87                         -0.0572255              -1.5572
        88                         -0.0372118              -1.0126
        89                         -0.0290645              -0.7909
       ...                                ...                  ...
       154                          0.5413792              14.7317
      -------------------------------------------------------------
                  HL-Gap            0.1061845 Eh            2.8894 eV

     #   Z          covCN         q      C6AA      α(0)
     1   6 C        3.751    -0.102    22.503     6.765
     2   6 C        3.799    -0.052    21.509     6.603
     3   6 C        3.800    -0.057    21.601     6.617
     4   6 C        3.800    -0.057    21.597     6.617
     5   6 C        3.800    -0.056    21.588     6.615
     6   6 C        3.800    -0.057    21.592     6.616
     7   6 C        3.800    -0.057    21.594     6.616
     8   6 C        3.800    -0.057    21.600     6.617
     9   6 C        3.800    -0.058    21.612     6.619
    10   6 C        3.800    -0.059    21.628     6.622
    11   6 C        3.800    -0.059    21.639     6.623
    12   6 C        3.800    -0.060    21.664     6.627
    13   6 C        3.800    -0.063    21.705     6.633
    14   6 C        3.800    -0.070    21.840     6.654
    15   6 C        3.799    -0.070    21.842     6.654
    16   6 C        3.759    -0.040    21.340     6.586
    17   7 N        3.620     0.127    19.076     6.487
    18   6 C        3.763    -0.039    21.317     6.581
    19   6 C        2.966    -0.022    28.548     8.764
    20   6 C        2.922    -0.040    28.983     8.828
    21   6 C        2.916    -0.068    29.697     8.936
    22   6 C        2.845     0.161    24.512     8.114
    23   6 C        2.918    -0.050    29.230     8.866
    24   6 C        2.923    -0.040    29.003     8.832
    25   8 O        1.661    -0.358    20.050     6.045
    26   6 C        3.727    -0.092    22.365     6.752
    27   6 C        3.720    -0.090    22.347     6.752
    28   1 H        0.925     0.034     2.534     2.489
    29   1 H        0.925     0.032     2.559     2.502
    30   1 H        0.925     0.034     2.530     2.487
    31   1 H        0.924     0.030     2.589     2.516
    32   1 H        0.924     0.027     2.625     2.534
    33   1 H        0.924     0.028     2.619     2.531
    34   1 H        0.924     0.029     2.601     2.522
    35   1 H        0.924     0.027     2.627     2.535
    36   1 H        0.924     0.032     2.559     2.502
    37   1 H        0.924     0.026     2.648     2.545
    38   1 H        0.924     0.032     2.555     2.500
    39   1 H        0.924     0.025     2.658     2.550
    40   1 H        0.924     0.033     2.547     2.496
    41   1 H        0.924     0.025     2.662     2.551
    42   1 H        0.924     0.033     2.538     2.492
    43   1 H        0.924     0.025     2.663     2.552
    44   1 H        0.924     0.035     2.523     2.484
    45   1 H        0.924     0.024     2.672     2.556
    46   1 H        0.924     0.036     2.499     2.472
    47   1 H        0.924     0.023     2.686     2.563
    48   1 H        0.924     0.039     2.464     2.455
    49   1 H        0.924     0.022     2.698     2.569
    50   1 H        0.924     0.041     2.434     2.440
    51   1 H        0.924     0.022     2.708     2.573
    52   1 H        0.924     0.045     2.385     2.415
    53   1 H        0.924     0.020     2.729     2.583
    54   1 H        0.925     0.052     2.301     2.372
    55   1 H        0.924     0.031     2.576     2.510
    56   1 H        0.925     0.060     2.199     2.319
    57   1 H        0.924     0.045     2.377     2.411
    58   1 H        0.925     0.073     2.055     2.242
    59   1 H        0.924     0.083     1.952     2.185
    60   1 H        0.924     0.087     1.910     2.161
    61   1 H        0.924     0.081     1.964     2.191
    62   1 H        0.924     0.084     1.941     2.179
    63   1 H        0.926     0.045     2.387     2.416
    64   1 H        0.926     0.050     2.316     2.380
    65   1 H        0.926     0.075     2.028     2.227
    66   1 H        0.926     0.046     2.370     2.407
    67   1 H        0.805     0.317     0.671     1.286
    68   1 H        0.925     0.093     1.851     2.128
    69   1 H        0.925     0.095     1.832     2.117
    70   1 H        0.925     0.100     1.788     2.091
    71   1 H        0.925     0.096     1.820     2.110
    72   1 H        0.925     0.101     1.780     2.086
    73   1 H        0.925     0.092     1.863     2.134

Wiberg/Mayer (AO) data.
largest (>0.10) Wiberg bond orders for each atom

     #   Z sym  total        # sym  WBO       # sym  WBO       # sym  WBO
 ---------------------------------------------------------------------------
     1   6 C    3.997 --     2 C    1.020    30 H    0.988    29 H    0.987
                            28 H    0.986
     2   6 C    3.998 --     1 C    1.020     3 C    1.008    32 H    0.978
                            31 H    0.976
     3   6 C    3.998 --     2 C    1.008     4 C    1.008    34 H    0.977
                            33 H    0.976
     4   6 C    3.998 --     5 C    1.008     3 C    1.008    36 H    0.975
                            35 H    0.975
     5   6 C    3.998 --     4 C    1.008     6 C    1.008    37 H    0.975
                            38 H    0.975
     6   6 C    3.997 --     5 C    1.008     7 C    1.008    39 H    0.975
                            40 H    0.975
     7   6 C    3.997 --     8 C    1.008     6 C    1.008    41 H    0.975
                            42 H    0.975
     8   6 C    3.997 --     9 C    1.008     7 C    1.008    43 H    0.975
                            44 H    0.975
     9   6 C    3.997 --     8 C    1.008    10 C    1.008    45 H    0.975
                            46 H    0.974
    10   6 C    3.997 --     9 C    1.008    11 C    1.008    47 H    0.975
                            48 H    0.974
    11   6 C    3.997 --    10 C    1.008    12 C    1.007    49 H    0.976
                            50 H    0.974
    12   6 C    3.996 --    13 C    1.007    11 C    1.007    51 H    0.974
                            52 H    0.974
    13   6 C    3.995 --    14 C    1.008    12 C    1.007    53 H    0.972
                            54 H    0.972
    14   6 C    3.992 --    13 C    1.008    15 C    1.005    55 H    0.975
                            56 H    0.970
    15   6 C    3.985 --    14 C    1.005    16 C    1.004    57 H    0.965
                            58 H    0.965
    16   6 C    3.926 --    15 C    1.004    59 H    0.965    60 H    0.961
                            17 N    0.925
    17   7 N    3.806 --    27 C    0.963    26 C    0.962    16 C    0.925
                            18 C    0.908
    18   6 C    3.930 --    19 C    1.009    61 H    0.965    62 H    0.961
                            17 N    0.908
    19   6 C    3.974 --    20 C    1.400    24 C    1.383    18 C    1.009
    20   6 C    3.991 --    21 C    1.460    19 C    1.400    63 H    0.967
                            23 C    0.100
    21   6 C    3.988 --    20 C    1.460    22 C    1.355    64 H    0.965
    22   6 C    3.942 --    21 C    1.355    23 C    1.337    25 O    1.123
    23   6 C    3.987 --    24 C    1.481    22 C    1.337    65 H    0.965
                            20 C    0.100
    24   6 C    3.991 --    23 C    1.481    19 C    1.383    66 H    0.967
    25   8 O    2.178 --    22 C    1.123    67 H    0.877
    26   6 C    3.931 --    68 H    0.975    69 H    0.975    70 H    0.971
                            17 N    0.962
    27   6 C    3.932 --    73 H    0.975    71 H    0.973    72 H    0.972
                            17 N    0.963
    28   1 H    0.999 --     1 C    0.986
    29   1 H    0.999 --     1 C    0.987
    30   1 H    0.999 --     1 C    0.988
    31   1 H    0.999 --     2 C    0.976
    32   1 H    0.999 --     2 C    0.978
    33   1 H    0.999 --     3 C    0.976
    34   1 H    0.999 --     3 C    0.977
    35   1 H    0.999 --     4 C    0.975
    36   1 H    0.999 --     4 C    0.975
    37   1 H    0.999 --     5 C    0.975
    38   1 H    0.999 --     5 C    0.975
    39   1 H    0.999 --     6 C    0.975
    40   1 H    0.999 --     6 C    0.975
    41   1 H    0.999 --     7 C    0.975
    42   1 H    0.999 --     7 C    0.975
    43   1 H    0.999 --     8 C    0.975
    44   1 H    0.999 --     8 C    0.975
    45   1 H    0.999 --     9 C    0.975
    46   1 H    0.999 --     9 C    0.974
    47   1 H    0.999 --    10 C    0.975
    48   1 H    0.998 --    10 C    0.974
    49   1 H    0.999 --    11 C    0.976
    50   1 H    0.998 --    11 C    0.974
    51   1 H    1.000 --    12 C    0.974
    52   1 H    0.998 --    12 C    0.974
    53   1 H    1.000 --    13 C    0.972
    54   1 H    0.997 --    13 C    0.972
    55   1 H    0.999 --    14 C    0.975
    56   1 H    0.996 --    14 C    0.970
    57   1 H    0.998 --    15 C    0.965
    58   1 H    0.994 --    15 C    0.965
    59   1 H    0.993 --    16 C    0.965
    60   1 H    0.992 --    16 C    0.961
    61   1 H    0.993 --    18 C    0.965
    62   1 H    0.992 --    18 C    0.961
    63   1 H    0.998 --    20 C    0.967
    64   1 H    0.997 --    21 C    0.965
    65   1 H    0.994 --    23 C    0.965
    66   1 H    0.998 --    24 C    0.967
    67   1 H    0.899 --    25 O    0.877
    68   1 H    0.991 --    26 C    0.975
    69   1 H    0.991 --    26 C    0.975
    70   1 H    0.990 --    26 C    0.971
    71   1 H    0.990 --    27 C    0.973
    72   1 H    0.990 --    27 C    0.972
    73   1 H    0.992 --    27 C    0.975
 ---------------------------------------------------------------------------

molecular dipole:
                 x           y           z       tot (Debye)
 q only:      -13.178      22.550      -3.035
   full:      -13.135      22.533      -2.911      66.706

           -------------------------------------------------
          | TOTAL ENERGY              -83.614702925504 Eh   |
          | GRADIENT NORM               0.000247691928 Eh/α |
          | HOMO-LUMO GAP               2.889426574446 eV   |
           -------------------------------------------------

 * finished run on 2024/12/20 at 07:07:33.344
