   * xtb version 6.7.1 (edcfbbe) compiled by 'conda@3ef47c1a292c' on 2024-11-25

   ID    Z sym.   atoms
    1    6 C      1, 3-9, 11, 13, 14, 16-19
    2    8 O      2, 10
    3    7 N      12, 15
    4    1 H      20-38

          program call               : xtb C0984.xyz --opt --namespace C0984 --charge +1
          :  Hamiltonian                  GFN2-xTB          :
 * total energy  :   -55.3899977 Eh     change       -0.7842260E-09 Eh
 * total energy  :   -55.3974270 Eh     change       -0.7429309E-02 Eh
 * total energy  :   -55.3995850 Eh     change       -0.2157967E-02 Eh
 * total energy  :   -55.4003035 Eh     change       -0.7185245E-03 Eh
 * total energy  :   -55.4009491 Eh     change       -0.6456068E-03 Eh
 * total energy  :   -55.4013575 Eh     change       -0.4084473E-03 Eh
 * total energy  :   -55.4018146 Eh     change       -0.4570516E-03 Eh
 * total energy  :   -55.4021280 Eh     change       -0.3133855E-03 Eh
 * total energy  :   -55.4022993 Eh     change       -0.1712841E-03 Eh
 * total energy  :   -55.4023902 Eh     change       -0.9095271E-04 Eh
 * total energy  :   -55.4162782 Eh     change       -0.5786052E-05 Eh
 * total energy  :   -55.4162852 Eh     change       -0.7042231E-05 Eh
 * total energy  :   -55.4162943 Eh     change       -0.9067794E-05 Eh
 * total energy  :   -55.4163047 Eh     change       -0.1042159E-04 Eh
 * total energy  :   -55.4163150 Eh     change       -0.1026690E-04 Eh
 * total energy  :   -55.4163235 Eh     change       -0.8529503E-05 Eh
 * total energy  :   -55.4163301 Eh     change       -0.6569896E-05 Eh
 * total energy  :   -55.4163355 Eh     change       -0.5458797E-05 Eh
 * total energy  :   -55.4163393 Eh     change       -0.3738538E-05 Eh
   *** GEOMETRY OPTIMIZATION CONVERGED AFTER 172 ITERATIONS ***

 final structure:
================
38
 xtb: 6.7.1 (edcfbbe)
C            0.06959493456245       -2.02875146770436        3.56082049630773
O           -0.46042770286050       -3.07901971443100        2.78359600820745
C            0.05833902831404       -3.33925799320949        1.56909649690772
C           -0.54001957651123       -4.40078242160875        0.87205550699378
C           -0.09940036068992       -4.75582656810663       -0.38478458828512
C            0.94394448161927       -4.06612409864188       -0.97531261397028
C            1.55921334795239       -3.01222413505930       -0.29312039085697
C            1.11246102776557       -2.64809764433648        0.98474254196591
C            2.65227536049461       -2.33476218994657       -0.97687879290892
O            2.97226261056313       -2.52696919308495       -2.12828274202050
C            3.46475134475842       -1.27842550357679       -0.16476133695323
N            4.64761680163367       -0.97057631958977       -0.91111224397337
C            5.92886004856991       -1.30981551480874       -0.58892902160233
C            6.69682497805316       -1.05959277975331       -1.68263202380272
N            5.87499654441948       -0.59111554471964       -2.66316893509352
C            4.63904350321254       -0.55029010799430       -2.17666815160024
C            6.30761943045356       -0.18122780612381       -3.99485994827735
C            5.23899780974189       -0.50252434763598       -5.03218239229508
C            6.65375196582515        1.30649205111225       -3.97371788342886
H           -0.51411390395463       -2.02301368051290        4.47903059285764
H           -0.04086531079097       -1.06280444311133        3.05864837981834
H            1.12211010994587       -2.20262460214021        3.80523535318510
H           -1.35326343901925       -4.92208058329386        1.35098121541191
H           -0.57112813690625       -5.57182106622616       -0.90876832944333
H            1.30210754865884       -4.32846130217301       -1.95809850974616
H            1.56805895446331       -1.82360101474368        1.50780296162120
H            2.84002149558667       -0.38884747164474       -0.04474141610720
H            3.74444366532362       -1.66858936297699        0.81318993612062
H            6.20090334827524       -1.69341512730456        0.37276410633251
H            7.74978079917513       -1.18946801104026       -1.82694412418908
H            3.77068580894313       -0.21847712890245       -2.70838836212570
H            7.21135305290430       -0.76045934823419       -4.21105909259379
H            4.40287460614395        0.18875812671726       -4.96816530596641
H            5.66770992309433       -0.41387271957134       -6.02588760027384
H            4.87077422713788       -1.51824822109699       -4.90907390935821
H            7.43145550093120        1.51725537453888       -3.24299609018801
H            7.01422354348036        1.60758278982861       -4.95254704137435
H            5.77568262873624        1.90221909106108       -3.73378274925394

          :  Hamiltonian                  GFN2-xTB          :
         :: total energy             -55.416339273241 Eh    ::
         :: gradient norm              0.000482170508 Eh/a0 ::
         :: HOMO-LUMO gap              2.268580433559 eV    ::
         :: SCC energy               -56.228376453789 Eh    ::
         :: -> dispersion             -0.034240147452 Eh    ::
         :: repulsion energy           0.812037180549 Eh    ::

    * Orbital Energies and Occupations

         #    Occupation            Energy/Eh            Energy/eV
      -------------------------------------------------------------
         1        2.0000           -0.8764542             -23.8495
       ...           ...                  ...                  ...
        38        2.0000           -0.5913896             -16.0925
        39        2.0000           -0.5904300             -16.0664
        40        2.0000           -0.5883399             -16.0095
        41        2.0000           -0.5771221             -15.7043
        42        2.0000           -0.5729064             -15.5896
        43        2.0000           -0.5698763             -15.5071
        44        2.0000           -0.5604483             -15.2506
        45        2.0000           -0.5566762             -15.1479
        46        2.0000           -0.5476376             -14.9020
        47        2.0000           -0.5457628             -14.8510
        48        2.0000           -0.5241075             -14.2617
        49        2.0000           -0.5237922             -14.2531
        50        2.0000           -0.4898431             -13.3293 (HOMO)
        51                         -0.4064743             -11.0607 (LUMO)
        52                         -0.3878623             -10.5543
        53                         -0.3552371              -9.6665
        54                         -0.3275575              -8.9133
        55                         -0.3066963              -8.3456
        56                         -0.1967616              -5.3542
        57                         -0.1725634              -4.6957
        58                         -0.1226140              -3.3365
        59                         -0.0830929              -2.2611
        60                         -0.0667804              -1.8172
        61                         -0.0546207              -1.4863
       ...                                ...                  ...
        95                          0.5612309              15.2719
      -------------------------------------------------------------
                  HL-Gap            0.0833688 Eh            2.2686 eV

     #   Z          covCN         q      C6AA      α(0)
     1   6 C        3.643     0.027    20.459     6.502
     2   8 O        1.706    -0.242    18.002     5.729
     3   6 C        2.861     0.158    24.580     8.126
     4   6 C        2.921    -0.033    28.817     8.803
     5   6 C        2.914    -0.019    28.485     8.752
     6   6 C        2.927    -0.021    28.537     8.761
     7   6 C        2.970    -0.018    28.463     8.751
     8   6 C        2.916    -0.071    29.773     8.948
     9   6 C        2.824     0.227    23.240     7.899
    10   8 O        0.857    -0.359    20.882     6.127
    11   6 C        3.743    -0.049    21.520     6.618
    12   7 N        2.874     0.067    20.068     6.653
    13   6 C        3.064    -0.009    28.175     8.704
    14   6 C        3.075    -0.006    28.094     8.690
    15   7 N        2.870     0.057    20.238     6.682
    16   6 C        3.095     0.063    26.471     8.432
    17   6 C        3.789     0.030    20.079     6.382
    18   6 C        3.755    -0.131    23.071     6.849
    19   6 C        3.756    -0.126    22.973     6.834
    20   1 H        0.925     0.083     1.944     2.180
    21   1 H        0.924     0.048     2.351     2.398
    22   1 H        0.924     0.046     2.368     2.407
    23   1 H        0.926     0.082     1.959     2.189
    24   1 H        0.926     0.071     2.071     2.250
    25   1 H        0.926     0.075     2.030     2.228
    26   1 H        0.926     0.042     2.427     2.436
    27   1 H        0.924     0.097     1.808     2.103
    28   1 H        0.925     0.098     1.808     2.103
    29   1 H        0.926     0.099     1.797     2.096
    30   1 H        0.926     0.102     1.771     2.081
    31   1 H        0.926     0.121     1.601     1.979
    32   1 H        0.924     0.079     1.993     2.208
    33   1 H        0.925     0.062     2.173     2.305
    34   1 H        0.925     0.080     1.976     2.198
    35   1 H        0.925     0.068     2.106     2.270
    36   1 H        0.925     0.059     2.206     2.323
    37   1 H        0.925     0.082     1.959     2.189
    38   1 H        0.925     0.059     2.206     2.323

Wiberg/Mayer (AO) data.
largest (>0.10) Wiberg bond orders for each atom

     #   Z sym  total        # sym  WBO       # sym  WBO       # sym  WBO
 ---------------------------------------------------------------------------
     1   6 C    3.935 --    20 H    0.977    22 H    0.976    21 H    0.976
                             2 O    0.975
     2   8 O    2.277 --     3 C    1.104     1 C    0.975
     3   6 C    3.944 --     8 C    1.393     4 C    1.309     2 O    1.104
     4   6 C    3.985 --     5 C    1.471     3 C    1.309    23 H    0.964
     5   6 C    3.988 --     4 C    1.471     6 C    1.429    24 H    0.966
     6   6 C    3.986 --     5 C    1.429     7 C    1.357    25 H    0.964
     7   6 C    3.982 --     6 C    1.357     8 C    1.339     9 C    1.088
     8   6 C    3.988 --     3 C    1.393     7 C    1.339    26 H    0.962
     9   6 C    3.931 --    10 O    1.798     7 C    1.088    11 C    0.917
    10   8 O    2.104 --     9 C    1.798
    11   6 C    3.948 --    12 N    0.997    28 H    0.958    27 H    0.944
                             9 C    0.917
    12   7 N    3.704 --    16 C    1.340    13 C    1.210    11 C    0.997
    13   6 C    3.947 --    14 C    1.601    12 N    1.210    29 H    0.963
    14   6 C    3.952 --    13 C    1.601    15 N    1.224    30 H    0.962
    15   7 N    3.707 --    16 C    1.366    14 C    1.224    17 C    0.942
    16   6 C    3.946 --    15 N    1.366    12 N    1.340    31 H    0.951
    17   6 C    3.939 --    18 C    1.005    19 C    0.992    32 H    0.958
                            15 N    0.942
    18   6 C    3.983 --    17 C    1.005    33 H    0.982    35 H    0.982
                            34 H    0.978
    19   6 C    3.984 --    17 C    0.992    36 H    0.984    38 H    0.984
                            37 H    0.977
    20   1 H    0.993 --     1 C    0.977
    21   1 H    0.998 --     1 C    0.976
    22   1 H    0.998 --     1 C    0.976
    23   1 H    0.993 --     4 C    0.964
    24   1 H    0.993 --     5 C    0.966
    25   1 H    0.994 --     6 C    0.964
    26   1 H    0.998 --     8 C    0.962
    27   1 H    0.990 --    11 C    0.944
    28   1 H    0.990 --    11 C    0.958
    29   1 H    0.990 --    13 C    0.963
    30   1 H    0.989 --    14 C    0.962
    31   1 H    0.985 --    16 C    0.951
    32   1 H    0.993 --    17 C    0.958
    33   1 H    0.996 --    18 C    0.982
    34   1 H    0.993 --    18 C    0.978
    35   1 H    0.995 --    18 C    0.982
    36   1 H    0.996 --    19 C    0.984
    37   1 H    0.992 --    19 C    0.977
    38   1 H    0.996 --    19 C    0.984
 ---------------------------------------------------------------------------

molecular dipole:
                 x           y           z       tot (Debye)
 q only:        8.313      -1.779      -2.200
   full:        8.403      -1.602      -1.957      22.304

           -------------------------------------------------
          | TOTAL ENERGY              -55.416339273241 Eh   |
          | GRADIENT NORM               0.000482170508 Eh/α |
          | HOMO-LUMO GAP               2.268580433559 eV   |
           -------------------------------------------------

 * finished run on 2024/12/20 at 07:06:42.069
