   * xtb version 6.7.1 (edcfbbe) compiled by 'conda@3ef47c1a292c' on 2024-11-25

   ID    Z sym.   atoms
    1    6 C      1-8, 10-14, 16-25, 27-30, 33-36, 40-43, 45, 46, 48-51
    2    7 N      9, 15, 26, 39
    3    8 O      31, 32, 52, 53
    4   17 Cl     37, 38, 44, 47
    5    1 H      54-108

          program call               : xtb C0988.xyz --opt --namespace C0988 --charge +1
          :  Hamiltonian                  GFN2-xTB          :
 * total energy  :  -161.7711038 Eh     change       -0.3238398E-08 Eh
 * total energy  :  -161.7923842 Eh     change       -0.2128036E-01 Eh
 * total energy  :  -161.8012100 Eh     change       -0.8825837E-02 Eh
 * total energy  :  -161.8036456 Eh     change       -0.2435542E-02 Eh
 * total energy  :  -161.8057396 Eh     change       -0.2093994E-02 Eh
 * total energy  :  -161.8069850 Eh     change       -0.1245382E-02 Eh
 * total energy  :  -161.8081544 Eh     change       -0.1169431E-02 Eh
 * total energy  :  -161.8094432 Eh     change       -0.1288764E-02 Eh
 * total energy  :  -161.8107087 Eh     change       -0.1265546E-02 Eh
 * total energy  :  -161.8117495 Eh     change       -0.1040765E-02 Eh
 * total energy  :  -161.8416034 Eh     change       -0.1224246E-04 Eh
 * total energy  :  -161.8416132 Eh     change       -0.9868715E-05 Eh
 * total energy  :  -161.8416229 Eh     change       -0.9676896E-05 Eh
 * total energy  :  -161.8416356 Eh     change       -0.1264289E-04 Eh
 * total energy  :  -161.8416491 Eh     change       -0.1356384E-04 Eh
 * total energy  :  -161.8416604 Eh     change       -0.1128807E-04 Eh
 * total energy  :  -161.8416685 Eh     change       -0.8069455E-05 Eh
 * total energy  :  -161.8416740 Eh     change       -0.5502172E-05 Eh
 * total energy  :  -161.8416779 Eh     change       -0.3959452E-05 Eh
   *** GEOMETRY OPTIMIZATION CONVERGED AFTER 206 ITERATIONS ***

 final structure:
================
108
 xtb: 6.7.1 (edcfbbe)
C            2.09584357119687        0.21081509754328       -1.80313602832300
C            1.73076391708589        1.22743636269545       -0.72308910284994
C            1.88781554673291        2.67748451505685       -1.18624365015978
C            1.02950196749183        3.06755909230548       -2.39105439465633
C           -0.46969281693547        2.92536688230758       -2.12841736083685
C           -1.33614540858886        3.67664820951797       -3.14238307497777
C           -1.20488669836517        3.18395451639859       -4.58446404500513
C           -1.81207265116820        1.79990285505129       -4.83813184574273
N           -3.25462371121724        1.82590304991966       -4.91018223985466
C           -4.16001554838905        1.54562729444541       -3.92260002328612
C           -3.77265095998810        1.28989449099787       -2.60824727470838
C           -4.53448285670196        1.18798975003377       -1.45821991675256
C           -3.97838485788887        0.71524051160334       -0.28008413757588
C           -4.57096636150852        0.37332846023405        0.93228135140831
N           -5.84287639299569        0.58346108468533        1.38668248179632
C           -6.94390620947957        1.18068125377568        0.67056881467851
C           -7.59962444992006        0.18329837396330       -0.29498375494663
C           -8.50460209602422       -0.83319378784454        0.40430224919526
C           -9.82885808603510       -0.26116646014471        0.91489354598148
C          -10.76219054363417        0.28152027616046       -0.17041809391825
C          -11.14237469136416       -0.72006760137059       -1.26292134186120
C          -11.82153583734113       -1.99422027267857       -0.75795446426833
C          -13.13898558481106       -1.72848712408186       -0.03971867693661
C           -5.96360568356507        0.03608458207389        2.64505504616685
C           -4.71969022404026       -0.52634940019699        2.97538083099525
N           -3.87792090960711       -0.29332069042406        1.91322213950735
C           -2.52751946815925       -0.79746235417171        1.86921736900845
C           -2.45502366093394       -2.23695008201228        1.34040323786400
C           -2.63145362816911       -2.34945864788236       -0.17440843411564
C           -1.52535601872101       -1.69440350863365       -0.95873679363498
O           -1.65301957521909       -1.27398392413651       -2.08995590704661
O           -0.37844034053384       -1.61564008577029       -0.30926434474353
C           -4.51559901151749       -1.16902400094145        4.18459847533770
C           -5.58286433875672       -1.22755032340447        5.06900525994861
C           -6.82223343821942       -0.65592395454128        4.74632178822956
C           -7.02641424096175       -0.01836833096335        3.53149623803454
Cl          -8.12139964367532       -0.74602416162907        5.86822725866437
Cl          -5.37397714753090       -2.01757664228509        6.58081438669236
N           -5.41593418571339        1.57412403081073       -4.47104690090507
C           -5.30272629813549        1.93038450816191       -5.79926503362159
C           -3.93519875037890        2.09399648657671       -6.07369988902923
C           -3.49522413948848        2.45884096663812       -7.33510946913604
C           -4.45579189381626        2.65981810050534       -8.31592312947702
Cl          -3.95404742101317        3.11694214884420       -9.89508387969659
C           -5.82232729511129        2.50407682021782       -8.03881688051580
C           -6.26197752977441        2.13669160281768       -6.77492804397986
Cl          -6.98058807387627        2.77251509304510       -9.28022785197994
C           -6.61592842055214        0.95935120934408       -3.95068109162328
C           -6.95998789155159       -0.36557979806824       -4.65287589127645
C           -5.74047776387055       -1.26297385520328       -4.87631487888454
C           -4.83538681929783       -1.39474649007607       -3.66856743770756
O           -5.20367218934544       -1.44213213961166       -2.51924770664663
O           -3.56748219941771       -1.44034045672106       -4.03780262813822
H            1.32940983527694        0.14887711559982       -2.57394032926141
H            2.24802161743596       -0.77857309903080       -1.37145054188699
H            3.02913076593862        0.49741511551642       -2.28198506806291
H            0.70657126409083        1.06521910411722       -0.37728601913599
H            2.38816982857706        1.07905457702727        0.13604643088549
H            1.64221911703968        3.33578517891993       -0.34965896271541
H            2.93570104424954        2.84882839932183       -1.44047369807019
H            1.24738507230155        4.10954073928862       -2.63417832396435
H            1.31918281360035        2.46148829553050       -3.24994665245589
H           -0.73542499392727        1.86733942180543       -2.11685427653257
H           -0.69294073478578        3.32847114879220       -1.13769003289274
H           -2.38257767675168        3.61622142991135       -2.83410984130364
H           -1.05041883255019        4.72991347271680       -3.11929212691290
H           -1.69590121902067        3.89943097201107       -5.24726676027577
H           -0.15137829733443        3.15140066382546       -4.86016663267494
H           -1.45875981533175        1.42101008446858       -5.80031983992865
H           -1.50348065216515        1.08805643193488       -4.07299917389482
H           -2.71883311583709        1.09874610358086       -2.48395497738470
H           -5.56570413340811        1.48505271127738       -1.47869519544510
H           -2.92811565560226        0.47619703217159       -0.34452375638245
H           -7.67100489303339        1.51887336141863        1.40918502179536
H           -6.57861997483937        2.06562903299747        0.14497254596900
H           -8.18576168803127        0.74081885612731       -1.02585396895405
H           -6.81760045822172       -0.36311698935039       -0.82685538628993
H           -8.71818167608036       -1.63720066980683       -0.29993084392816
H           -7.96452811092560       -1.27913301122601        1.24256489182195
H          -10.34437221780996       -1.04838424416586        1.46590986958801
H           -9.63895500968171        0.54873615489417        1.62366933551905
H          -11.67188749827376        0.63518265970492        0.31654856601939
H          -10.30347192357952        1.15194043411005       -0.64664916328495
H          -11.82111961608972       -0.21713118917775       -1.95608052226537
H          -10.25044889434371       -0.99790147863550       -1.83000344442495
H          -12.01471402208855       -2.63705785199666       -1.62004044976584
H          -11.14761568030131       -2.53815631755364       -0.09370522255447
H          -13.80584915038879       -1.14507128711138       -0.67058084980637
H          -13.63123781529506       -2.66778454852164        0.19986283266519
H          -12.98029685239359       -1.18619991511697        0.88880951610185
H           -1.90205809543246       -0.13332281315306        1.27192061007882
H           -2.14436625214116       -0.77408366654587        2.89149835002469
H           -1.48481964345494       -2.65056959857642        1.61554590510608
H           -3.22891873923049       -2.82936115647944        1.83026253118052
H           -2.61349229381890       -3.40760156698577       -0.45313488093232
H           -3.58893435823892       -1.94741071013889       -0.51387514216266
H            0.32752315432003       -1.22524160363908       -0.85819368928662
H           -3.57427523826689       -1.61716363178626        4.45314795460730
H           -7.99189375700261        0.40372252001405        3.31308063541944
H           -2.45317028202797        2.59523935844810       -7.56863788539630
H           -7.31600037498275        2.03482167107789       -6.58194919889572
H           -6.46480853466374        0.74057777761077       -2.90053413347220
H           -7.44724567830573        1.66156729621966       -4.05557114502242
H           -7.68368453879224       -0.88042046357491       -4.02052747329356
H           -7.42461918132748       -0.18277476065576       -5.62114041925959
H           -6.08357809158384       -2.26748255919732       -5.13385322225120
H           -5.13405609262733       -0.90256659605506       -5.70865890317135
H           -2.93725379238167       -1.48390092447552       -3.27680169763821

          :  Hamiltonian                  GFN2-xTB          :
         :: total energy            -161.841677937475 Eh    ::
         :: gradient norm              0.000227670585 Eh/a0 ::
         :: HOMO-LUMO gap              1.654991501835 eV    ::
         :: SCC energy              -163.909646430624 Eh    ::
         :: -> dispersion             -0.139267793410 Eh    ::
         :: repulsion energy           2.067968493149 Eh    ::

    * Orbital Energies and Occupations

         #    Occupation            Energy/Eh            Energy/eV
      -------------------------------------------------------------
         1        2.0000           -1.1337189             -30.8501
       ...           ...                  ...                  ...
       133        2.0000           -0.5008601             -13.6291
       134        2.0000           -0.5006942             -13.6246
       135        2.0000           -0.5004085             -13.6168
       136        2.0000           -0.4975506             -13.5390
       137        2.0000           -0.4972115             -13.5298
       138        2.0000           -0.4894216             -13.3178
       139        2.0000           -0.4894022             -13.3173
       140        2.0000           -0.4892827             -13.3141
       141        2.0000           -0.4855016             -13.2112
       142        2.0000           -0.4851926             -13.2028
       143        2.0000           -0.4818790             -13.1126
       144        2.0000           -0.4772179             -12.9858
       145        2.0000           -0.4447639             -12.1026 (HOMO)
       146                         -0.3839440             -10.4476 (LUMO)
       147                         -0.3466391              -9.4325
       148                         -0.3413117              -9.2876
       149                         -0.3274503              -8.9104
       150                         -0.3265696              -8.8864
       151                         -0.3262542              -8.8778
       152                         -0.3192080              -8.6861
       153                         -0.2860538              -7.7839
       154                         -0.2310339              -6.2868
       155                         -0.2263711              -6.1599
       156                         -0.2261674              -6.1543
       ...                                ...                  ...
       287                          0.5759506              15.6724
      -------------------------------------------------------------
                  HL-Gap            0.0608198 Eh            1.6550 eV

     #   Z          covCN         q      C6AA      α(0)
     1   6 C        3.751    -0.109    22.646     6.787
     2   6 C        3.799    -0.056    21.577     6.614
     3   6 C        3.801    -0.062    21.683     6.630
     4   6 C        3.801    -0.063    21.711     6.634
     5   6 C        3.801    -0.059    21.637     6.623
     6   6 C        3.801    -0.065    21.745     6.639
     7   6 C        3.801    -0.070    21.839     6.654
     8   6 C        3.740    -0.016    20.937     6.529
     9   7 N        2.820    -0.015    21.536     6.892
    10   6 C        3.024     0.113    25.489     8.281
    11   6 C        2.907    -0.097    30.428     9.045
    12   6 C        2.892    -0.014    28.358     8.731
    13   6 C        2.907    -0.092    30.321     9.029
    14   6 C        3.016     0.110    25.549     8.291
    15   7 N        2.816    -0.014    21.530     6.891
    16   6 C        3.740    -0.013    20.890     6.521
    17   6 C        3.801    -0.072    21.880     6.660
    18   6 C        3.800    -0.064    21.735     6.638
    19   6 C        3.800    -0.060    21.655     6.626
    20   6 C        3.800    -0.060    21.653     6.625
    21   6 C        3.800    -0.059    21.634     6.622
    22   6 C        3.799    -0.054    21.542     6.608
    23   6 C        3.751    -0.104    22.555     6.773
    24   6 C        3.068     0.040    27.038     8.526
    25   6 C        3.064     0.037    27.115     8.539
    26   7 N        2.823    -0.024    21.713     6.921
    27   6 C        3.740    -0.014    20.902     6.523
    28   6 C        3.802    -0.071    21.854     6.656
    29   6 C        3.802    -0.101    22.428     6.742
    30   6 C        2.689     0.366    20.787     7.461
    31   8 O        0.856    -0.447    22.653     6.381
    32   8 O        1.659    -0.358    20.053     6.045
    33   6 C        2.953    -0.061    29.522     8.912
    34   6 C        2.922     0.086    26.077     8.374
    35   6 C        2.921     0.086    26.093     8.377
    36   6 C        2.954    -0.058    29.446     8.900
    37  17 Cl       0.999    -0.112   102.656    15.501
    38  17 Cl       0.998    -0.112   102.654    15.501
    39   7 N        2.812    -0.026    21.744     6.926
    40   6 C        3.073     0.039    27.051     8.528
    41   6 C        3.068     0.039    27.066     8.531
    42   6 C        2.953    -0.059    29.469     8.904
    43   6 C        2.922     0.087    26.072     8.373
    44  17 Cl       1.000    -0.111   102.636    15.499
    45   6 C        2.922     0.086    26.096     8.377
    46   6 C        2.953    -0.059    29.454     8.902
    47  17 Cl       0.999    -0.113   102.671    15.502
    48   6 C        3.741    -0.020    20.999     6.538
    49   6 C        3.801    -0.067    21.788     6.646
    50   6 C        3.803    -0.095    22.311     6.725
    51   6 C        2.687     0.364    20.821     7.467
    52   8 O        0.856    -0.443    22.568     6.369
    53   8 O        1.658    -0.391    20.678     6.139
    54   1 H        0.925     0.033     2.550     2.497
    55   1 H        0.925     0.027     2.632     2.537
    56   1 H        0.925     0.051     2.306     2.375
    57   1 H        0.924     0.019     2.744     2.591
    58   1 H        0.924     0.037     2.490     2.468
    59   1 H        0.924     0.034     2.528     2.486
    60   1 H        0.924     0.040     2.445     2.445
    61   1 H        0.924     0.038     2.477     2.461
    62   1 H        0.924     0.037     2.495     2.470
    63   1 H        0.924     0.026     2.650     2.546
    64   1 H        0.924     0.035     2.514     2.479
    65   1 H        0.924     0.032     2.552     2.498
    66   1 H        0.924     0.046     2.364     2.405
    67   1 H        0.924     0.048     2.350     2.397
    68   1 H        0.925     0.061     2.192     2.316
    69   1 H        0.924     0.069     2.095     2.263
    70   1 H        0.925     0.079     1.992     2.207
    71   1 H        0.926     0.065     2.136     2.285
    72   1 H        0.926     0.048     2.349     2.397
    73   1 H        0.926     0.046     2.368     2.406
    74   1 H        0.924     0.075     2.029     2.228
    75   1 H        0.924     0.060     2.204     2.322
    76   1 H        0.924     0.051     2.313     2.379
    77   1 H        0.924     0.059     2.214     2.327
    78   1 H        0.925     0.051     2.309     2.376
    79   1 H        0.924     0.031     2.565     2.505
    80   1 H        0.924     0.045     2.382     2.413
    81   1 H        0.924     0.022     2.700     2.570
    82   1 H        0.924     0.043     2.416     2.431
    83   1 H        0.924     0.023     2.694     2.567
    84   1 H        0.924     0.033     2.538     2.491
    85   1 H        0.924     0.022     2.697     2.568
    86   1 H        0.924     0.030     2.579     2.512
    87   1 H        0.924     0.031     2.574     2.509
    88   1 H        0.925     0.037     2.490     2.467
    89   1 H        0.925     0.037     2.489     2.467
    90   1 H        0.925     0.035     2.511     2.478
    91   1 H        0.924     0.069     2.100     2.266
    92   1 H        0.924     0.077     2.015     2.220
    93   1 H        0.925     0.078     1.997     2.210
    94   1 H        0.924     0.064     2.153     2.294
    95   1 H        0.924     0.094     1.839     2.121
    96   1 H        0.924     0.094     1.839     2.120
    97   1 H        0.804     0.350     0.587     1.204
    98   1 H        0.926     0.081     1.968     2.194
    99   1 H        0.926     0.085     1.925     2.170
   100   1 H        0.926     0.084     1.939     2.178
   101   1 H        0.926     0.082     1.954     2.186
   102   1 H        0.925     0.086     1.916     2.165
   103   1 H        0.924     0.066     2.131     2.283
   104   1 H        0.924     0.070     2.086     2.259
   105   1 H        0.925     0.060     2.193     2.316
   106   1 H        0.924     0.086     1.918     2.166
   107   1 H        0.924     0.065     2.146     2.291
   108   1 H        0.801     0.360     0.565     1.181

Wiberg/Mayer (AO) data.
largest (>0.10) Wiberg bond orders for each atom

     #   Z sym  total        # sym  WBO       # sym  WBO       # sym  WBO
 ---------------------------------------------------------------------------
     1   6 C    3.996 --     2 C    1.018    54 H    0.986    56 H    0.984
                            55 H    0.980
     2   6 C    3.998 --     1 C    1.018     3 C    1.008    58 H    0.978
                            57 H    0.976
     3   6 C    3.996 --     2 C    1.008     4 C    1.007    59 H    0.977
                            60 H    0.976
     4   6 C    3.997 --     5 C    1.008     3 C    1.007    61 H    0.976
                            62 H    0.975
     5   6 C    3.997 --     4 C    1.008     6 C    1.007    64 H    0.976
                            63 H    0.969
     6   6 C    3.995 --     7 C    1.008     5 C    1.007    66 H    0.975
                            65 H    0.974
     7   6 C    3.987 --     6 C    1.008     8 C    0.991    67 H    0.975
                            68 H    0.969
     8   6 C    3.952 --     7 C    0.991     9 N    0.978    69 H    0.964
                            70 H    0.956
     9   7 N    3.582 --    10 C    1.204    41 C    1.143     8 C    0.978
    10   6 C    3.918 --    11 C    1.311     9 N    1.204    39 N    1.193
    11   6 C    3.935 --    12 C    1.428    10 C    1.311    71 H    0.938
    12   6 C    3.962 --    11 C    1.428    13 C    1.410    72 H    0.945
    13   6 C    3.935 --    12 C    1.410    14 C    1.323    73 H    0.948
    14   6 C    3.917 --    13 C    1.323    15 N    1.202    26 N    1.185
    15   7 N    3.577 --    14 C    1.202    24 C    1.137    16 C    0.980
    16   6 C    3.953 --    17 C    0.989    15 N    0.980    75 H    0.961
                            74 H    0.960
    17   6 C    3.988 --    18 C    1.007    16 C    0.989    77 H    0.969
                            76 H    0.968
    18   6 C    3.994 --    19 C    1.008    17 C    1.007    79 H    0.974
                            78 H    0.971
    19   6 C    3.996 --    18 C    1.008    20 C    1.007    80 H    0.974
                            81 H    0.971
    20   6 C    3.997 --    21 C    1.008    19 C    1.007    83 H    0.974
                            82 H    0.974
    21   6 C    3.997 --    22 C    1.008    20 C    1.008    84 H    0.977
                            85 H    0.976
    22   6 C    3.998 --    23 C    1.020    21 C    1.008    86 H    0.978
                            87 H    0.976
    23   6 C    3.996 --    22 C    1.020    88 H    0.987    89 H    0.987
                            90 H    0.986
    24   6 C    3.962 --    36 C    1.358    25 C    1.255    15 N    1.137
    25   6 C    3.962 --    33 C    1.359    24 C    1.255    26 N    1.139
    26   7 N    3.566 --    14 C    1.185    25 C    1.139    27 C    0.986
    27   6 C    3.959 --    28 C    0.992    26 N    0.986    92 H    0.963
                            91 H    0.960
    28   6 C    3.986 --    29 C    1.006    27 C    0.992    94 H    0.973
                            93 H    0.969
    29   6 C    3.988 --    28 C    1.006    30 C    0.989    96 H    0.955
                            95 H    0.933
    30   6 C    3.908 --    31 O    1.684    32 O    1.188    29 C    0.989
    31   8 O    2.026 --    30 C    1.684    32 O    0.169
    32   8 O    2.239 --    30 C    1.188    97 H    0.833    31 O    0.169
    33   6 C    3.967 --    34 C    1.412    25 C    1.359    98 H    0.959
    34   6 C    3.915 --    33 C    1.412    35 C    1.324    38 Cl   1.016
    35   6 C    3.916 --    36 C    1.413    34 C    1.324    37 Cl   1.016
    36   6 C    3.966 --    35 C    1.413    24 C    1.358    99 H    0.955
    37  17 Cl   1.164 --    35 C    1.016
    38  17 Cl   1.165 --    34 C    1.016
    39   7 N    3.559 --    10 C    1.193    40 C    1.129    48 C    0.979
    40   6 C    3.962 --    46 C    1.364    41 C    1.256    39 N    1.129
    41   6 C    3.964 --    42 C    1.357    40 C    1.256     9 N    1.143
    42   6 C    3.967 --    43 C    1.414    41 C    1.357   100 H    0.959
    43   6 C    3.918 --    42 C    1.414    45 C    1.324    44 Cl   1.017
    44  17 Cl   1.166 --    43 C    1.017
    45   6 C    3.915 --    46 C    1.411    43 C    1.324    47 Cl   1.016
    46   6 C    3.969 --    45 C    1.411    40 C    1.364   101 H    0.959
    47  17 Cl   1.164 --    45 C    1.016
    48   6 C    3.955 --    49 C    0.990    39 N    0.979   103 H    0.965
                           102 H    0.953
    49   6 C    3.987 --    50 C    1.002    48 C    0.990   105 H    0.974
                           104 H    0.972
    50   6 C    3.993 --    49 C    1.002    51 C    0.974   107 H    0.971
                           106 H    0.944
    51   6 C    3.916 --    52 O    1.720    53 O    1.186    50 C    0.974
    52   8 O    2.005 --    51 C    1.720    53 O    0.180
    53   8 O    2.213 --    51 C    1.186   108 H    0.791    52 O    0.180
    54   1 H    0.999 --     1 C    0.986
    55   1 H    0.999 --     1 C    0.980
    56   1 H    0.997 --     1 C    0.984
    57   1 H    1.000 --     2 C    0.976
    58   1 H    0.999 --     2 C    0.978
    59   1 H    0.999 --     3 C    0.977
    60   1 H    0.998 --     3 C    0.976
    61   1 H    0.998 --     4 C    0.976
    62   1 H    0.999 --     4 C    0.975
    63   1 H    0.999 --     5 C    0.969
    64   1 H    0.999 --     5 C    0.976
    65   1 H    0.999 --     6 C    0.974
    66   1 H    0.997 --     6 C    0.975
    67   1 H    0.998 --     7 C    0.975
    68   1 H    0.995 --     7 C    0.969
    69   1 H    0.993 --     8 C    0.964
    70   1 H    0.993 --     8 C    0.956
    71   1 H    0.995 --    11 C    0.938
    72   1 H    0.997 --    12 C    0.945
    73   1 H    0.997 --    13 C    0.948
    74   1 H    0.994 --    16 C    0.960
    75   1 H    0.995 --    16 C    0.961
    76   1 H    0.997 --    17 C    0.968
    77   1 H    0.997 --    17 C    0.969
    78   1 H    0.997 --    18 C    0.971
    79   1 H    0.999 --    18 C    0.974
    80   1 H    0.998 --    19 C    0.974
    81   1 H    0.999 --    19 C    0.971
    82   1 H    0.998 --    20 C    0.974
    83   1 H    0.999 --    20 C    0.974
    84   1 H    0.999 --    21 C    0.977
    85   1 H    0.999 --    21 C    0.976
    86   1 H    0.999 --    22 C    0.978
    87   1 H    0.999 --    22 C    0.976
    88   1 H    0.999 --    23 C    0.987
    89   1 H    0.999 --    23 C    0.987
    90   1 H    0.999 --    23 C    0.986
    91   1 H    0.994 --    27 C    0.960
    92   1 H    0.993 --    27 C    0.963
    93   1 H    0.993 --    28 C    0.969
    94   1 H    0.996 --    28 C    0.973
    95   1 H    0.991 --    29 C    0.933
    96   1 H    0.991 --    29 C    0.955
    97   1 H    0.877 --    32 O    0.833
    98   1 H    0.993 --    33 C    0.959
    99   1 H    0.992 --    36 C    0.955
   100   1 H    0.992 --    42 C    0.959
   101   1 H    0.993 --    46 C    0.959
   102   1 H    0.992 --    48 C    0.953
   103   1 H    0.994 --    48 C    0.965
   104   1 H    0.995 --    49 C    0.972
   105   1 H    0.996 --    49 C    0.974
   106   1 H    0.992 --    50 C    0.944
   107   1 H    0.996 --    50 C    0.971
   108   1 H    0.870 --    53 O    0.791
 ---------------------------------------------------------------------------

molecular dipole:
                 x           y           z       tot (Debye)
 q only:       -7.168       1.074      -2.719
   full:       -7.241       1.002      -2.808      19.904

           -------------------------------------------------
          | TOTAL ENERGY             -161.841677937475 Eh   |
          | GRADIENT NORM               0.000227670585 Eh/α |
          | HOMO-LUMO GAP               1.654991501835 eV   |
           -------------------------------------------------

 * finished run on 2024/12/20 at 07:07:28.546
