   * xtb version 6.7.1 (edcfbbe) compiled by 'conda@3ef47c1a292c' on 2024-11-25

   ID    Z sym.   atoms
    1    6 C      1, 3-9, 11, 13, 14, 16, 17
    2    8 O      2, 10
    3    7 N      12, 15
    4    1 H      18-32

          program call               : xtb C0983.xyz --opt --namespace C0983 --charge +1
          :  Hamiltonian                  GFN2-xTB          :
 * total energy  :   -49.0510282 Eh     change       -0.6534577E-09 Eh
 * total energy  :   -49.0579077 Eh     change       -0.6879498E-02 Eh
 * total energy  :   -49.0601372 Eh     change       -0.2229506E-02 Eh
 * total energy  :   -49.0609100 Eh     change       -0.7728441E-03 Eh
 * total energy  :   -49.0616347 Eh     change       -0.7246759E-03 Eh
 * total energy  :   -49.0621161 Eh     change       -0.4813756E-03 Eh
 * total energy  :   -49.0626940 Eh     change       -0.5779008E-03 Eh
 * total energy  :   -49.0631192 Eh     change       -0.4252405E-03 Eh
 * total energy  :   -49.0633607 Eh     change       -0.2414357E-03 Eh
 * total energy  :   -49.0635218 Eh     change       -0.1611190E-03 Eh
 * total energy  :   -49.0771303 Eh     change       -0.2968108E-04 Eh
 * total energy  :   -49.0771710 Eh     change       -0.4070132E-04 Eh
 * total energy  :   -49.0772290 Eh     change       -0.5806648E-04 Eh
 * total energy  :   -49.0772582 Eh     change       -0.2915787E-04 Eh
 * total energy  :   -49.0772740 Eh     change       -0.1583623E-04 Eh
 * total energy  :   -49.0772898 Eh     change       -0.1573194E-04 Eh
 * total energy  :   -49.0772944 Eh     change       -0.4607219E-05 Eh
 * total energy  :   -49.0772997 Eh     change       -0.5347701E-05 Eh
 * total energy  :   -49.0773041 Eh     change       -0.4338116E-05 Eh
   *** GEOMETRY OPTIMIZATION CONVERGED AFTER 135 ITERATIONS ***

 final structure:
================
32
 xtb: 6.7.1 (edcfbbe)
C           -0.15918525870931        2.69462068603514        1.13419042620163
O           -0.43307858349496        2.41134025148289        2.48805962121171
C            0.17933898556318        1.37513123128136        3.09006342024777
C           -0.16267421259206        1.16826373851479        4.43581990510453
C            0.39341827683486        0.13050460944763        5.15269375766734
C            1.30098342488179       -0.72235909443778        4.55077389152375
C            1.66340452200029       -0.52512340194329        3.21494432441973
C            1.09840800232022        0.52848807123286        2.48295086088278
C            2.62670644853416       -1.45723259049874        2.64690585354417
O            3.02123362103437       -2.46536324368435        3.18770755709364
C            3.18840057191053       -1.12942079634409        1.22679820175368
N            4.31208990145803       -1.98545390492154        0.99427026066867
C            5.62284261472636       -1.61562553199016        0.92363215255683
C            6.36491118145513       -2.75543464323013        0.93254854676707
N            5.49903459316039       -3.80431929574975        1.02384648266620
C            4.26350011070384       -3.31596369826388        1.07272210245230
C            5.87383501567804       -5.19061632484486        1.09003054864025
H           -0.77288958254729        3.55843507988344        0.88724484236109
H           -0.43762301719036        1.85867324366121        0.48531621239183
H            0.89472132318707        2.94770817444283        0.98307346339335
H           -0.87415284220603        1.84330529495464        4.88373491678199
H            0.11771773812420       -0.01726974692116        6.18471044567990
H            1.74553815594948       -1.54033392411853        5.09501872282438
H            1.35601484217216        0.67264355987504        1.44678415645836
H            2.39776458370186       -1.32386799815085        0.49684094703884
H            3.50461456914672       -0.08890578949023        1.16279116819766
H            5.93242700797379       -0.59205140397558        0.86728159667255
H            7.42647246994020       -2.88711128511996        0.88313780638948
H            3.36814212248676       -3.90170472421373        1.14255055350035
H            6.33902620342670       -5.40810976733713        2.05315744396121
H            4.99253341569374       -5.81803010670168        0.97611481474214
H            6.58678379469962       -5.42246666882308        0.29892499622256

          :  Hamiltonian                  GFN2-xTB          :
         :: total energy             -49.077304051611 Eh    ::
         :: gradient norm              0.000609648663 Eh/a0 ::
         :: HOMO-LUMO gap              2.257235377261 eV    ::
         :: SCC energy               -49.793813330243 Eh    ::
         :: -> dispersion             -0.028277776908 Eh    ::
         :: repulsion energy           0.716509278632 Eh    ::

    * Orbital Energies and Occupations

         #    Occupation            Energy/Eh            Energy/eV
      -------------------------------------------------------------
         1        2.0000           -0.8849037             -24.0795
       ...           ...                  ...                  ...
        32        2.0000           -0.6211692             -16.9029
        33        2.0000           -0.6005543             -16.3419
        34        2.0000           -0.5967964             -16.2397
        35        2.0000           -0.5936671             -16.1545
        36        2.0000           -0.5903979             -16.0655
        37        2.0000           -0.5769062             -15.6984
        38        2.0000           -0.5616595             -15.2835
        39        2.0000           -0.5580222             -15.1846
        40        2.0000           -0.5497612             -14.9598
        41        2.0000           -0.5471259             -14.8881
        42        2.0000           -0.5259751             -14.3125
        43        2.0000           -0.5251996             -14.2914
        44        2.0000           -0.4911879             -13.3659 (HOMO)
        45                         -0.4082360             -11.1087 (LUMO)
        46                         -0.3943694             -10.7313
        47                         -0.3618985              -9.8478
        48                         -0.3289107              -8.9501
        49                         -0.3083256              -8.3900
        50                         -0.1982632              -5.3950
        51                         -0.1709771              -4.6525
        52                         -0.1210403              -3.2937
        53                         -0.0855886              -2.3290
        54                         -0.0679240              -1.8483
        55                         -0.0436897              -1.1889
       ...                                ...                  ...
        83                          0.5602580              15.2454
      -------------------------------------------------------------
                  HL-Gap            0.0829519 Eh            2.2572 eV

     #   Z          covCN         q      C6AA      α(0)
     1   6 C        3.643     0.027    20.461     6.503
     2   8 O        1.706    -0.241    17.993     5.727
     3   6 C        2.861     0.158    24.575     8.126
     4   6 C        2.921    -0.033    28.810     8.802
     5   6 C        2.914    -0.019    28.479     8.751
     6   6 C        2.927    -0.021    28.530     8.759
     7   6 C        2.970    -0.018    28.460     8.751
     8   6 C        2.916    -0.071    29.780     8.949
     9   6 C        2.824     0.227    23.237     7.899
    10   8 O        0.857    -0.358    20.854     6.123
    11   6 C        3.743    -0.050    21.550     6.623
    12   7 N        2.872     0.072    19.985     6.640
    13   6 C        3.065    -0.008    28.148     8.700
    14   6 C        3.070    -0.008    28.156     8.701
    15   7 N        2.867     0.078    19.881     6.622
    16   6 C        3.094     0.058    26.595     8.452
    17   6 C        3.692    -0.086    22.325     6.761
    18   1 H        0.925     0.084     1.940     2.178
    19   1 H        0.924     0.048     2.349     2.397
    20   1 H        0.924     0.046     2.368     2.406
    21   1 H        0.926     0.083     1.953     2.186
    22   1 H        0.926     0.072     2.063     2.246
    23   1 H        0.926     0.076     2.025     2.225
    24   1 H        0.926     0.042     2.427     2.436
    25   1 H        0.924     0.099     1.792     2.094
    26   1 H        0.925     0.099     1.793     2.094
    27   1 H        0.926     0.103     1.759     2.074
    28   1 H        0.926     0.108     1.713     2.047
    29   1 H        0.926     0.122     1.598     1.977
    30   1 H        0.924     0.108     1.713     2.047
    31   1 H        0.925     0.100     1.788     2.091
    32   1 H        0.925     0.104     1.747     2.067

Wiberg/Mayer (AO) data.
largest (>0.10) Wiberg bond orders for each atom

     #   Z sym  total        # sym  WBO       # sym  WBO       # sym  WBO
 ---------------------------------------------------------------------------
     1   6 C    3.935 --    18 H    0.977    20 H    0.976    19 H    0.976
                             2 O    0.975
     2   8 O    2.278 --     3 C    1.105     1 C    0.975
     3   6 C    3.944 --     8 C    1.393     4 C    1.309     2 O    1.105
     4   6 C    3.985 --     5 C    1.471     3 C    1.309    21 H    0.964
     5   6 C    3.987 --     4 C    1.471     6 C    1.429    22 H    0.965
     6   6 C    3.986 --     5 C    1.429     7 C    1.356    23 H    0.964
     7   6 C    3.982 --     6 C    1.356     8 C    1.338     9 C    1.089
     8   6 C    3.988 --     3 C    1.393     7 C    1.338    24 H    0.962
     9   6 C    3.931 --    10 O    1.799     7 C    1.089    11 C    0.914
    10   8 O    2.107 --     9 C    1.799
    11   6 C    3.946 --    12 N    0.997    26 H    0.958    25 H    0.943
                             9 C    0.914
    12   7 N    3.708 --    16 C    1.341    13 C    1.213    11 C    0.997
    13   6 C    3.947 --    14 C    1.601    12 N    1.213    27 H    0.962
    14   6 C    3.948 --    13 C    1.601    15 N    1.220    28 H    0.961
    15   7 N    3.717 --    16 C    1.361    14 C    1.220    17 C    0.991
    16   6 C    3.945 --    15 N    1.361    12 N    1.341    29 H    0.952
    17   6 C    3.934 --    15 N    0.991    31 H    0.975    32 H    0.967
                            30 H    0.960
    18   1 H    0.993 --     1 C    0.977
    19   1 H    0.998 --     1 C    0.976
    20   1 H    0.998 --     1 C    0.976
    21   1 H    0.993 --     4 C    0.964
    22   1 H    0.993 --     5 C    0.965
    23   1 H    0.994 --     6 C    0.964
    24   1 H    0.998 --     8 C    0.962
    25   1 H    0.989 --    11 C    0.943
    26   1 H    0.990 --    11 C    0.958
    27   1 H    0.989 --    13 C    0.962
    28   1 H    0.988 --    14 C    0.961
    29   1 H    0.985 --    16 C    0.952
    30   1 H    0.988 --    17 C    0.960
    31   1 H    0.990 --    17 C    0.975
    32   1 H    0.988 --    17 C    0.967
 ---------------------------------------------------------------------------

molecular dipole:
                 x           y           z       tot (Debye)
 q only:        7.728      -3.817       2.129
   full:        7.746      -3.750       1.858      22.379

           -------------------------------------------------
          | TOTAL ENERGY              -49.077304051611 Eh   |
          | GRADIENT NORM               0.000609648663 Eh/α |
          | HOMO-LUMO GAP               2.257235377261 eV   |
           -------------------------------------------------

 * finished run on 2024/12/20 at 07:06:38.752
