   * xtb version 6.7.1 (edcfbbe) compiled by 'conda@3ef47c1a292c' on 2024-11-25

   ID    Z sym.   atoms
    1    6 C      1-16, 18, 19, 21, 23-27
    2    7 N      17
    3    8 O      20, 22
    4    1 H      28-77

          program call               : xtb C0986.xyz --opt --namespace C0986 --charge +1
          :  Hamiltonian                  GFN2-xTB          :
 * total energy  :   -87.5786252 Eh     change       -0.9724488E-09 Eh
 * total energy  :   -87.5893876 Eh     change       -0.1076238E-01 Eh
 * total energy  :   -87.5922644 Eh     change       -0.2876814E-02 Eh
 * total energy  :   -87.5926231 Eh     change       -0.3586791E-03 Eh
 * total energy  :   -87.5929702 Eh     change       -0.3471212E-03 Eh
 * total energy  :   -87.5931253 Eh     change       -0.1551077E-03 Eh
 * total energy  :   -87.5933272 Eh     change       -0.2018392E-03 Eh
 * total energy  :   -87.5934263 Eh     change       -0.9914295E-04 Eh
 * total energy  :   -87.5934884 Eh     change       -0.6213010E-04 Eh
 * total energy  :   -87.5935321 Eh     change       -0.4369141E-04 Eh
 * total energy  :   -87.5945871 Eh     change       -0.2879704E-04 Eh
 * total energy  :   -87.5946102 Eh     change       -0.2307357E-04 Eh
 * total energy  :   -87.5946315 Eh     change       -0.2132727E-04 Eh
 * total energy  :   -87.5946505 Eh     change       -0.1896372E-04 Eh
 * total energy  :   -87.5946656 Eh     change       -0.1505091E-04 Eh
 * total energy  :   -87.5946779 Eh     change       -0.1233872E-04 Eh
 * total energy  :   -87.5946891 Eh     change       -0.1121906E-04 Eh
 * total energy  :   -87.5947009 Eh     change       -0.1183002E-04 Eh
 * total energy  :   -87.5947048 Eh     change       -0.3865549E-05 Eh
   *** GEOMETRY OPTIMIZATION CONVERGED AFTER 44 ITERATIONS ***

 final structure:
================
77
 xtb: 6.7.1 (edcfbbe)
C            0.84676676979822       -0.83949748943785        0.40623852495636
C            0.95325722301490        0.58435239455841        0.93964128251312
C            1.45160665656238        1.58537719164059       -0.10414445192799
C            0.55860441043921        1.73018852930679       -1.33818942138733
C           -0.87835284700451        2.16641732723422       -1.04795188404030
C           -1.01485712637401        3.53796156570042       -0.38390208586512
C           -0.47240877284862        4.71184022933426       -1.20311046247315
C           -1.05775182995762        4.84486058336822       -2.61102916778905
C           -2.58282679489462        4.94633095709643       -2.66771357409546
C           -3.16632707410215        6.20442766088323       -2.02213876058445
C           -2.82081993613297        7.51566310292549       -2.73238279459057
C           -3.20946619258788        7.57602762779165       -4.21268047664775
C           -4.66991007986502        7.23147202831282       -4.51352715564041
C           -5.68215841629502        8.23124633760142       -3.94675039366973
C           -5.80036288488688        9.51738146136196       -4.77478360143827
C           -6.45262652013302        9.31547327514134       -6.15087196584932
N           -7.87846727774670        9.74777567467817       -6.29097907006885
C           -8.07061606430997       11.18793755594835       -5.92143876827506
C           -7.05448877295542       12.21221559237578       -6.44142402287298
O           -7.20554642262105       12.53821076573563       -7.81639489665289
C           -6.27961146849887       12.07407796394442       -8.68964999907334
O           -5.44239780234794       11.27394762645700       -8.36464643744835
C           -6.46839175588491       12.66287144087627      -10.04565371520853
C           -8.35152304346060        9.57995311214621       -7.71442321687842
C           -7.68739550077725        8.50127635721810       -8.55861531768061
C           -8.76057685219263        8.96949145059130       -5.36176270623352
C           -8.92856732330073        7.49018918572790       -5.67075738820226
H            0.07874822932275       -0.91612351461170       -0.35930445969886
H            0.58987791413636       -1.52482857422815        1.21087185213659
H            1.79461386108224       -1.15660868090793       -0.02335540429721
H           -0.01696614611632        0.90174330808926        1.32604051285731
H            1.65368237981629        0.59427141292459        1.77836546762350
H            1.56839314890619        2.55994748479374        0.37458338443532
H            2.44270006984909        1.27064623870462       -0.44112121483342
H            1.02487202469957        2.45004629675182       -2.01437514333938
H            0.52428243614137        0.77484398004442       -1.86566814848038
H           -1.43284638624307        2.16385406633528       -1.98908052037495
H           -1.35232135486867        1.42640931372475       -0.40026117883407
H           -2.07178829593290        3.70940715471914       -0.16563532207525
H           -0.49357912170558        3.52482460884245        0.57498249812461
H           -0.65799982459023        5.63192371950248       -0.64376086146098
H            0.61060224717275        4.61245787936758       -1.29730058930492
H           -0.61701344963524        5.72487855031443       -3.08487872056322
H           -0.75392161202584        3.97975619641575       -3.20336400372712
H           -2.89170672630750        4.89680727066790       -3.71419483545702
H           -3.01448701846432        4.07724366442866       -2.16903820911913
H           -4.25294505147391        6.09728131555482       -1.97168467033367
H           -2.81015038801660        6.27437803570415       -0.99343855508638
H           -3.30283441200615        8.33363686646610       -2.19065251055759
H           -1.74556727169104        7.68686867596773       -2.66488884931261
H           -2.98279207817204        8.57711026246697       -4.58750797460923
H           -2.58051791725529        6.88040114015821       -4.76946327752427
H           -4.78420578772321        7.15810079343886       -5.59819104377692
H           -4.88798973165603        6.24614985334876       -4.10264883503906
H           -6.65486629744039        7.74406897141859       -3.86121680268140
H           -5.37427946611760        8.50321462566798       -2.93752070855469
H           -6.32390354112072       10.27221687706011       -4.18862206024595
H           -4.79137488366355        9.89778285534479       -4.93776868311939
H           -5.88207351919432        9.84533081941806       -6.91484206042018
H           -6.41712593568109        8.25581978210684       -6.39461689859589
H           -9.06374871941090       11.48603587140320       -6.26677466787249
H           -8.05850794422195       11.26603155608910       -4.83350503464784
H           -7.24569600098201       13.14399238526029       -5.90055898407011
H           -6.02337037559213       11.89993241449120       -6.25523056008425
H           -7.47525583438639       13.05188996037698      -10.16068986055405
H           -5.76241761772451       13.48490077980157      -10.16017442293076
H           -6.24095751914589       11.92351952812290      -10.80893947805957
H           -9.42739669890016        9.40028697258439       -7.66895487486288
H           -8.20204500163418       10.52823957381002       -8.22699446323259
H           -7.75177272562670        7.51049623017259       -8.12218308142128
H           -8.21116077746954        8.47365243064267       -9.51176968100303
H           -6.64736684465577        8.73483837332355       -8.76713526857754
H           -8.34691879882623        9.07851571141163       -4.35861635942368
H           -9.74609141782715        9.44132590214101       -5.37427805321126
H           -7.98389980236969        6.95464341826448       -5.67551600326751
H           -9.54165571892662        7.05938249894309       -4.88227386393923
H           -9.44391859682499        7.31902563496497       -6.61058558943861

          :  Hamiltonian                  GFN2-xTB          :
         :: total energy             -87.594704814779 Eh    ::
         :: gradient norm              0.000267704914 Eh/a0 ::
         :: HOMO-LUMO gap              2.498835812994 eV    ::
         :: SCC energy               -88.782135925661 Eh    ::
         :: -> dispersion             -0.068106325965 Eh    ::
         :: repulsion energy           1.187431110882 Eh    ::

    * Orbital Energies and Occupations

         #    Occupation            Energy/Eh            Energy/eV
      -------------------------------------------------------------
         1        2.0000           -0.8771282             -23.8679
       ...           ...                  ...                  ...
        69        2.0000           -0.5090799             -13.8528
        70        2.0000           -0.5025208             -13.6743
        71        2.0000           -0.5000029             -13.6058
        72        2.0000           -0.4929434             -13.4137
        73        2.0000           -0.4878787             -13.2759
        74        2.0000           -0.4845763             -13.1860
        75        2.0000           -0.4807651             -13.0823
        76        2.0000           -0.4698212             -12.7845
        77        2.0000           -0.4692754             -12.7696
        78        2.0000           -0.4669501             -12.7064
        79        2.0000           -0.4573999             -12.4465
        80        2.0000           -0.4516004             -12.2887
        81        2.0000           -0.4505345             -12.2597 (HOMO)
        82                         -0.3587040              -9.7608 (LUMO)
        83                         -0.2366277              -6.4390
        84                         -0.1770402              -4.8175
        85                         -0.1553566              -4.2275
        86                         -0.1542388              -4.1971
        87                         -0.1335268              -3.6334
        88                         -0.0627443              -1.7074
        89                         -0.0603670              -1.6427
        90                         -0.0434528              -1.1824
        91                         -0.0363154              -0.9882
        92                         -0.0318735              -0.8673
       ...                                ...                  ...
       158                          0.5268848              14.3373
      -------------------------------------------------------------
                  HL-Gap            0.0918305 Eh            2.4988 eV

     #   Z          covCN         q      C6AA      α(0)
     1   6 C        3.751    -0.101    22.500     6.765
     2   6 C        3.799    -0.052    21.509     6.603
     3   6 C        3.800    -0.057    21.603     6.618
     4   6 C        3.800    -0.057    21.597     6.617
     5   6 C        3.800    -0.056    21.591     6.616
     6   6 C        3.800    -0.057    21.595     6.616
     7   6 C        3.800    -0.057    21.596     6.617
     8   6 C        3.800    -0.057    21.606     6.618
     9   6 C        3.800    -0.058    21.625     6.621
    10   6 C        3.800    -0.059    21.631     6.622
    11   6 C        3.800    -0.059    21.638     6.623
    12   6 C        3.800    -0.061    21.675     6.629
    13   6 C        3.800    -0.064    21.728     6.637
    14   6 C        3.800    -0.069    21.819     6.651
    15   6 C        3.799    -0.073    21.899     6.663
    16   6 C        3.746    -0.051    21.565     6.624
    17   7 N        3.615     0.104    19.453     6.551
    18   6 C        3.763    -0.041    21.344     6.586
    19   6 C        3.692     0.062    19.718     6.354
    20   8 O        1.704    -0.273    18.522     5.811
    21   6 C        2.707     0.363    20.837     7.472
    22   8 O        0.856    -0.410    21.885     6.272
    23   6 C        3.754    -0.156    23.581     6.924
    24   6 C        3.752    -0.028    21.130     6.555
    25   6 C        3.750    -0.129    23.051     6.847
    26   6 C        3.760    -0.030    21.149     6.556
    27   6 C        3.751    -0.125    22.958     6.833
    28   1 H        0.925     0.033     2.540     2.492
    29   1 H        0.925     0.032     2.564     2.504
    30   1 H        0.925     0.034     2.530     2.487
    31   1 H        0.924     0.030     2.591     2.517
    32   1 H        0.924     0.028     2.621     2.532
    33   1 H        0.924     0.028     2.613     2.528
    34   1 H        0.924     0.029     2.599     2.521
    35   1 H        0.924     0.028     2.617     2.530
    36   1 H        0.924     0.031     2.570     2.507
    37   1 H        0.924     0.026     2.649     2.545
    38   1 H        0.924     0.032     2.561     2.503
    39   1 H        0.924     0.025     2.666     2.553
    40   1 H        0.924     0.033     2.539     2.492
    41   1 H        0.924     0.025     2.652     2.547
    42   1 H        0.924     0.033     2.541     2.493
    43   1 H        0.924     0.027     2.633     2.538
    44   1 H        0.924     0.033     2.540     2.492
    45   1 H        0.924     0.024     2.669     2.555
    46   1 H        0.924     0.036     2.507     2.476
    47   1 H        0.924     0.022     2.701     2.570
    48   1 H        0.924     0.039     2.460     2.453
    49   1 H        0.924     0.023     2.687     2.563
    50   1 H        0.924     0.041     2.441     2.443
    51   1 H        0.924     0.027     2.633     2.538
    52   1 H        0.924     0.043     2.404     2.425
    53   1 H        0.924     0.023     2.688     2.564
    54   1 H        0.925     0.049     2.331     2.388
    55   1 H        0.924     0.030     2.582     2.513
    56   1 H        0.925     0.058     2.224     2.332
    57   1 H        0.925     0.039     2.461     2.453
    58   1 H        0.924     0.071     2.072     2.251
    59   1 H        0.924     0.110     1.698     2.038
    60   1 H        0.925     0.096     1.824     2.112
    61   1 H        0.924     0.093     1.850     2.127
    62   1 H        0.924     0.089     1.892     2.151
    63   1 H        0.924     0.092     1.862     2.134
    64   1 H        0.924     0.089     1.893     2.151
    65   1 H        0.925     0.087     1.905     2.159
    66   1 H        0.925     0.110     1.700     2.039
    67   1 H        0.925     0.097     1.814     2.106
    68   1 H        0.924     0.077     2.009     2.217
    69   1 H        0.925     0.084     1.935     2.175
    70   1 H        0.925     0.068     2.108     2.270
    71   1 H        0.925     0.078     1.996     2.209
    72   1 H        0.925     0.074     2.040     2.234
    73   1 H        0.924     0.087     1.907     2.160
    74   1 H        0.924     0.073     2.053     2.241
    75   1 H        0.925     0.069     2.099     2.266
    76   1 H        0.925     0.080     1.978     2.200
    77   1 H        0.925     0.067     2.116     2.275

Wiberg/Mayer (AO) data.
largest (>0.10) Wiberg bond orders for each atom

     #   Z sym  total        # sym  WBO       # sym  WBO       # sym  WBO
 ---------------------------------------------------------------------------
     1   6 C    3.997 --     2 C    1.020    30 H    0.988    29 H    0.987
                            28 H    0.986
     2   6 C    3.998 --     1 C    1.020     3 C    1.008    32 H    0.978
                            31 H    0.976
     3   6 C    3.998 --     2 C    1.008     4 C    1.008    34 H    0.977
                            33 H    0.976
     4   6 C    3.998 --     5 C    1.008     3 C    1.008    36 H    0.975
                            35 H    0.975
     5   6 C    3.998 --     4 C    1.008     6 C    1.008    37 H    0.975
                            38 H    0.974
     6   6 C    3.997 --     5 C    1.008     7 C    1.007    39 H    0.975
                            40 H    0.975
     7   6 C    3.997 --     8 C    1.008     6 C    1.007    41 H    0.976
                            42 H    0.975
     8   6 C    3.997 --     9 C    1.008     7 C    1.008    43 H    0.975
                            44 H    0.975
     9   6 C    3.997 --     8 C    1.008    10 C    1.008    45 H    0.974
                            46 H    0.973
    10   6 C    3.997 --     9 C    1.008    11 C    1.007    47 H    0.976
                            48 H    0.973
    11   6 C    3.996 --    10 C    1.007    12 C    1.007    49 H    0.975
                            50 H    0.974
    12   6 C    3.996 --    13 C    1.008    11 C    1.007    51 H    0.974
                            52 H    0.974
    13   6 C    3.995 --    12 C    1.008    14 C    1.007    53 H    0.972
                            54 H    0.972
    14   6 C    3.992 --    13 C    1.007    15 C    1.005    55 H    0.973
                            56 H    0.970
    15   6 C    3.987 --    14 C    1.005    16 C    1.002    57 H    0.968
                            58 H    0.967
    16   6 C    3.914 --    15 C    1.002    60 H    0.954    59 H    0.948
                            17 N    0.923
    17   7 N    3.796 --    18 C    0.944    26 C    0.930    16 C    0.923
                            24 C    0.922
    18   6 C    3.949 --    19 C    1.000    61 H    0.965    62 H    0.961
                            17 N    0.944
    19   6 C    3.933 --    18 C    1.000    20 O    0.960    63 H    0.958
                            64 H    0.956
    20   8 O    2.287 --    21 C    1.088    19 C    0.960    22 O    0.161
    21   6 C    3.908 --    22 O    1.747    20 O    1.088    23 C    1.012
    22   8 O    2.050 --    21 C    1.747    20 O    0.161
    23   6 C    3.984 --    21 C    1.012    65 H    0.975    67 H    0.965
                            66 H    0.937
    24   6 C    3.933 --    25 C    1.023    68 H    0.968    69 H    0.965
                            17 N    0.922
    25   6 C    3.981 --    24 C    1.023    72 H    0.980    70 H    0.978
                            71 H    0.973
    26   6 C    3.938 --    27 C    1.022    74 H    0.969    73 H    0.962
                            17 N    0.930
    27   6 C    3.982 --    26 C    1.022    77 H    0.980    75 H    0.976
                            76 H    0.973
    28   1 H    0.999 --     1 C    0.986
    29   1 H    0.999 --     1 C    0.987
    30   1 H    0.999 --     1 C    0.988
    31   1 H    0.999 --     2 C    0.976
    32   1 H    0.999 --     2 C    0.978
    33   1 H    0.999 --     3 C    0.976
    34   1 H    0.999 --     3 C    0.977
    35   1 H    0.999 --     4 C    0.975
    36   1 H    0.999 --     4 C    0.975
    37   1 H    0.999 --     5 C    0.975
    38   1 H    0.999 --     5 C    0.974
    39   1 H    0.999 --     6 C    0.975
    40   1 H    0.999 --     6 C    0.975
    41   1 H    0.999 --     7 C    0.976
    42   1 H    0.999 --     7 C    0.975
    43   1 H    0.999 --     8 C    0.975
    44   1 H    0.999 --     8 C    0.975
    45   1 H    0.999 --     9 C    0.974
    46   1 H    0.999 --     9 C    0.973
    47   1 H    1.000 --    10 C    0.976
    48   1 H    0.998 --    10 C    0.973
    49   1 H    0.999 --    11 C    0.975
    50   1 H    0.998 --    11 C    0.974
    51   1 H    0.999 --    12 C    0.974
    52   1 H    0.998 --    12 C    0.974
    53   1 H    0.999 --    13 C    0.972
    54   1 H    0.998 --    13 C    0.972
    55   1 H    0.999 --    14 C    0.973
    56   1 H    0.996 --    14 C    0.970
    57   1 H    0.998 --    15 C    0.968
    58   1 H    0.995 --    15 C    0.967
    59   1 H    0.988 --    16 C    0.948
    60   1 H    0.991 --    16 C    0.954
    61   1 H    0.991 --    18 C    0.965
    62   1 H    0.991 --    18 C    0.961
    63   1 H    0.991 --    19 C    0.958
    64   1 H    0.992 --    19 C    0.956
    65   1 H    0.992 --    23 C    0.975
    66   1 H    0.988 --    23 C    0.937
    67   1 H    0.991 --    23 C    0.965
    68   1 H    0.994 --    24 C    0.968
    69   1 H    0.993 --    24 C    0.965
    70   1 H    0.995 --    25 C    0.978
    71   1 H    0.993 --    25 C    0.973
    72   1 H    0.994 --    25 C    0.980
    73   1 H    0.992 --    26 C    0.962
    74   1 H    0.995 --    26 C    0.969
    75   1 H    0.995 --    27 C    0.976
    76   1 H    0.993 --    27 C    0.973
    77   1 H    0.995 --    27 C    0.980
 ---------------------------------------------------------------------------

molecular dipole:
                 x           y           z       tot (Debye)
 q only:      -14.650      18.458     -12.030
   full:      -14.821      18.729     -12.007      67.946

           -------------------------------------------------
          | TOTAL ENERGY              -87.594704814779 Eh   |
          | GRADIENT NORM               0.000267704914 Eh/α |
          | HOMO-LUMO GAP               2.498835812994 eV   |
           -------------------------------------------------

 * finished run on 2024/12/20 at 07:06:46.758
