   * xtb version 6.7.1 (edcfbbe) compiled by 'conda@3ef47c1a292c' on 2024-11-25

   ID    Z sym.   atoms
    1    6 C      1-3, 5-7
    2   15 P      4
    3    1 H      8-21

          program call               : xtb C0985.xyz --opt --namespace C0985 --charge +1
          :  Hamiltonian                  GFN2-xTB          :
 * total energy  :   -22.0680947 Eh     change       -0.1990799E-09 Eh
 * total energy  :   -22.0720954 Eh     change       -0.4000724E-02 Eh
 * total energy  :   -22.0731807 Eh     change       -0.1085338E-02 Eh
 * total energy  :   -22.0732605 Eh     change       -0.7978025E-04 Eh
 * total energy  :   -22.0733178 Eh     change       -0.5731559E-04 Eh
 * total energy  :   -22.0733337 Eh     change       -0.1582826E-04 Eh
 * total energy  :   -22.0733604 Eh     change       -0.2671977E-04 Eh
 * total energy  :   -22.0733923 Eh     change       -0.3191325E-04 Eh
 * total energy  :   -22.0734112 Eh     change       -0.1887094E-04 Eh
 * total energy  :   -22.0734332 Eh     change       -0.2206852E-04 Eh
 * total energy  :   -22.0734492 Eh     change       -0.1595360E-04 Eh
 * total energy  :   -22.0734547 Eh     change       -0.5483278E-05 Eh
 * total energy  :   -22.0734611 Eh     change       -0.6445340E-05 Eh
 * total energy  :   -22.0734663 Eh     change       -0.5169155E-05 Eh
 * total energy  :   -22.0734711 Eh     change       -0.4843026E-05 Eh
   *** GEOMETRY OPTIMIZATION CONVERGED AFTER 15 ITERATIONS ***

 final structure:
================
21
 xtb: 6.7.1 (edcfbbe)
C            1.00397922053249        0.21021214449407       -0.01074564678352
C            0.28245390122227        0.95178736928810       -0.83090167440405
C           -1.21899979071728        0.99283186145352       -0.80641962918305
P           -1.79878098286203        2.55712311474299       -0.06521625042934
C           -1.17584946357203        3.96273782826280       -1.01628355299463
C           -3.60768760283645        2.59455720289228       -0.05839869887308
C           -1.18719439968369        2.67036436127096        1.63123098269908
H            0.55285031831325       -0.42448440130845        0.73504148247137
H            2.07791926594216        0.19032706945494       -0.06643142764654
H            0.75906819833429        1.56220246784738       -1.58533665824801
H           -1.62838834883840        0.92713798399474       -1.81887793455138
H           -1.62193251299010        0.17030584917955       -0.20886028717196
H           -1.48587061407950        3.87295868070507       -2.05700757596006
H           -1.57557010817241        4.88823439563795       -0.60293489795310
H           -0.08823154133193        3.98976558951986       -0.96446232773883
H           -3.99310394290372        1.74326656396029        0.50169960772684
H           -3.95191461920714        3.51576276399530        0.41058334120791
H           -3.98471072367140        2.55099754119156       -1.07956912563091
H           -1.62626960761973        1.87705402471150        2.23484764525285
H           -0.10298190214130        2.56231642135358        1.63251578222199
H           -1.45553474371731        3.63587116735222        2.05773684598844

          :  Hamiltonian                  GFN2-xTB          :
         :: total energy             -22.073471130265 Eh    ::
         :: gradient norm              0.000674827970 Eh/a0 ::
         :: HOMO-LUMO gap              5.282834595747 eV    ::
         :: SCC energy               -22.432838217767 Eh    ::
         :: -> dispersion             -0.013989445688 Eh    ::
         :: repulsion energy           0.359367087502 Eh    ::

    * Orbital Energies and Occupations

         #    Occupation            Energy/Eh            Energy/eV
      -------------------------------------------------------------
         1        2.0000           -0.8654917             -23.5512
       ...           ...                  ...                  ...
         9        2.0000           -0.6785596             -18.4645
        10        2.0000           -0.6704003             -18.2425
        11        2.0000           -0.6609224             -17.9846
        12        2.0000           -0.6518632             -17.7381
        13        2.0000           -0.6484372             -17.6449
        14        2.0000           -0.6439955             -17.5240
        15        2.0000           -0.6373257             -17.3425
        16        2.0000           -0.6293699             -17.1260
        17        2.0000           -0.6239350             -16.9781
        18        2.0000           -0.6215194             -16.9124
        19        2.0000           -0.6012097             -16.3597
        20        2.0000           -0.5742396             -15.6259
        21        2.0000           -0.5506540             -14.9841 (HOMO)
        22                         -0.3565134              -9.7012 (LUMO)
        23                         -0.2793112              -7.6004
        24                         -0.2774963              -7.5511
        25                         -0.2689031              -7.3172
        26                         -0.1858282              -5.0566
        27                         -0.0924003              -2.5143
        28                         -0.0649960              -1.7686
        29                         -0.0272258              -0.7409
        30                         -0.0158367              -0.4309
        31                         -0.0111784              -0.3042
        32                          0.0003409               0.0093
       ...                                ...                  ...
        47                          0.7274441              19.7948
      -------------------------------------------------------------
                  HL-Gap            0.1941406 Eh            5.2828 eV

     #   Z          covCN         q      C6AA      α(0)
     1   6 C        2.837    -0.084    30.086     8.989
     2   6 C        2.996    -0.035    28.859     8.812
     3   6 C        3.756    -0.074    21.972     6.684
     4  15 P        3.842     0.190   152.073    22.152
     5   6 C        3.700    -0.137    23.301     6.903
     6   6 C        3.700    -0.139    23.349     6.910
     7   6 C        3.701    -0.137    23.319     6.906
     8   1 H        0.926     0.064     2.152     2.294
     9   1 H        0.926     0.078     2.002     2.213
    10   1 H        0.926     0.060     2.197     2.318
    11   1 H        0.926     0.100     1.783     2.088
    12   1 H        0.926     0.101     1.778     2.085
    13   1 H        0.927     0.113     1.674     2.023
    14   1 H        0.927     0.111     1.684     2.029
    15   1 H        0.927     0.114     1.665     2.018
    16   1 H        0.927     0.112     1.679     2.026
    17   1 H        0.927     0.113     1.675     2.024
    18   1 H        0.926     0.113     1.674     2.023
    19   1 H        0.927     0.112     1.675     2.024
    20   1 H        0.927     0.113     1.669     2.020
    21   1 H        0.927     0.112     1.678     2.026

Wiberg/Mayer (AO) data.
largest (>0.10) Wiberg bond orders for each atom

     #   Z sym  total        # sym  WBO       # sym  WBO       # sym  WBO
 ---------------------------------------------------------------------------
     1   6 C    3.985 --     2 C    1.973     8 H    0.972     9 H    0.971
     2   6 C    3.984 --     1 C    1.973     3 C    0.998    10 H    0.960
     3   6 C    3.986 --     2 C    0.998     4 P    0.997    12 H    0.930
                            11 H    0.926
     4  15 P    4.661 --     7 C    1.060     5 C    1.059     6 C    1.055
                             3 C    0.997
     5   6 C    3.986 --     4 P    1.059    13 H    0.940    14 H    0.939
                            15 H    0.939
     6   6 C    3.985 --     4 P    1.055    18 H    0.940    16 H    0.940
                            17 H    0.939
     7   6 C    3.986 --     4 P    1.060    21 H    0.940    19 H    0.939
                            20 H    0.938
     8   1 H    0.996 --     1 C    0.972
     9   1 H    0.993 --     1 C    0.971
    10   1 H    0.996 --     2 C    0.960
    11   1 H    0.990 --     3 C    0.926
    12   1 H    0.990 --     3 C    0.930
    13   1 H    0.987 --     5 C    0.940
    14   1 H    0.987 --     5 C    0.939
    15   1 H    0.987 --     5 C    0.939
    16   1 H    0.987 --     6 C    0.940
    17   1 H    0.986 --     6 C    0.939
    18   1 H    0.987 --     6 C    0.940
    19   1 H    0.987 --     7 C    0.939
    20   1 H    0.987 --     7 C    0.938
    21   1 H    0.987 --     7 C    0.940
 ---------------------------------------------------------------------------

molecular dipole:
                 x           y           z       tot (Debye)
 q only:       -3.129       4.736      -0.033
   full:       -3.200       4.746      -0.053      14.550

           -------------------------------------------------
          | TOTAL ENERGY              -22.073471130265 Eh   |
          | GRADIENT NORM               0.000674827970 Eh/α |
          | HOMO-LUMO GAP               5.282834595747 eV   |
           -------------------------------------------------

 * finished run on 2024/12/20 at 07:06:42.419
