   * xtb version 6.7.1 (edcfbbe) compiled by 'conda@3ef47c1a292c' on 2024-11-25

   ID    Z sym.   atoms
    1    6 C      1-8, 10, 11, 13-30
    2    7 N      9, 12, 32
    3    8 O      31
    4    1 H      33-62

          program call               : xtb C0987.xyz --opt --namespace C0987 --charge +1
          :  Hamiltonian                  GFN2-xTB          :
 * total energy  :   -87.7138828 Eh     change       -0.1174044E-08 Eh
 * total energy  :   -87.7272131 Eh     change       -0.1333039E-01 Eh
 * total energy  :   -87.7313056 Eh     change       -0.4092437E-02 Eh
 * total energy  :   -87.7323503 Eh     change       -0.1044714E-02 Eh
 * total energy  :   -87.7331263 Eh     change       -0.7760128E-03 Eh
 * total energy  :   -87.7336587 Eh     change       -0.5323922E-03 Eh
 * total energy  :   -87.7341713 Eh     change       -0.5125677E-03 Eh
 * total energy  :   -87.7346954 Eh     change       -0.5241421E-03 Eh
 * total energy  :   -87.7351732 Eh     change       -0.4777819E-03 Eh
 * total energy  :   -87.7356139 Eh     change       -0.4407561E-03 Eh
 * total energy  :   -87.7445651 Eh     change       -0.1653666E-04 Eh
 * total energy  :   -87.7445783 Eh     change       -0.1316684E-04 Eh
 * total energy  :   -87.7445880 Eh     change       -0.9729364E-05 Eh
 * total energy  :   -87.7445954 Eh     change       -0.7326925E-05 Eh
 * total energy  :   -87.7446015 Eh     change       -0.6106205E-05 Eh
 * total energy  :   -87.7446073 Eh     change       -0.5824649E-05 Eh
 * total energy  :   -87.7446135 Eh     change       -0.6197741E-05 Eh
 * total energy  :   -87.7446194 Eh     change       -0.5857347E-05 Eh
 * total energy  :   -87.7446240 Eh     change       -0.4690549E-05 Eh
   *** GEOMETRY OPTIMIZATION CONVERGED AFTER 91 ITERATIONS ***

 final structure:
================
62
 xtb: 6.7.1 (edcfbbe)
C            1.22498034361650        1.65281179476224        2.72647968034924
C            0.13645574190390        1.08045279663062        1.86867875980934
C           -0.32905807306857       -0.20737304168898        2.11045135840578
C           -1.34038878118446       -0.76409480973906        1.34936359061859
C           -1.91634110128847       -0.03120440512606        0.32616067836662
C           -1.46788866461626        1.25123345512442        0.07202803541120
C           -0.44305508354005        1.80990266370733        0.82756867632276
C            0.00789150670694        3.22380989918683        0.52006579791922
N            0.06417151576685        3.47815382610008       -0.90220709603121
C           -0.73033892951476        4.34694216426862       -1.59045314146658
C           -0.34252774342506        4.30108930286611       -2.88925237307013
N            0.68536012738453        3.40385168585999       -2.97893682741581
C            0.91575922383519        2.90360602349385       -1.76012023284319
C            1.90112271254243        1.87299052627673       -1.38041102937698
C            1.40820539582990        3.16393704039300       -4.20956471384089
C            2.20713536788800        4.38835206695874       -4.66651387922670
C            3.61547649203477        4.55194197913046       -4.04671511518328
C            4.49314650276018        3.48218841401096       -4.66881778435102
C            4.63065770122060        2.21491756126229       -4.11251296395348
C            5.36937146385471        1.23411786027694       -4.75339349934858
C            5.97236778671623        1.49730038134854       -5.96981527458847
C            5.82018656607493        2.74616324243013       -6.54803803931885
C            5.08162606688855        3.72447984139621       -5.90769247123416
C            3.62732551897610        4.63217083068297       -2.53097678364610
C            2.64618026796481        5.36893322738272       -1.87008165721213
C            2.66019303068258        5.50469302169602       -0.49344171849898
C            3.66866624801274        4.92285588695379        0.25629955468372
C            4.68702528117690        4.24633251998883       -0.39305232431828
C            4.67546095817463        4.11661045177252       -1.77242206965971
C            4.09650797713562        5.98553210791448       -4.41967934824368
O            3.32797392481552        6.84356068181475       -4.78084407955487
N            5.40713569205718        6.19893304155705       -4.21343329894301
H            1.51615990140994        0.93515107738559        3.48778594414112
H            2.11109645087399        1.89601712743255        2.13903885184023
H            0.88724020493496        2.55822816219247        3.22825296832799
H            0.10945436183287       -0.78037193619641        2.91307643878322
H           -1.68343354280792       -1.76477910418670        1.55920607269535
H           -2.71402363365869       -0.45060635211472       -0.26609373117656
H           -1.92616356879809        1.82750435051761       -0.71977978060302
H           -0.69514322259213        3.93889228796396        0.95604373807739
H            0.99745494754408        3.41430284574789        0.94153963105010
H           -1.49770912411497        4.92377408696423       -1.11683251492867
H           -0.71713038369002        4.82845731590221       -3.74212940258984
H            2.82482092968826        2.33959626834906       -1.03186201685378
H            1.50028658937076        1.25924398033815       -0.57575117964928
H            2.13251452797391        1.22673651902017       -2.22254764115934
H            2.07104509808983        2.30769228497028       -4.08608831400523
H            0.66995871605696        2.92107746997112       -4.97855854864599
H            2.35100465604114        4.30470451210125       -5.74519962977384
H            1.63554649115010        5.30203459138333       -4.50232025502563
H            4.17615816571681        1.98339752913217       -3.16080061369777
H            5.46956420474064        0.26043354479651       -4.29766500768958
H            6.54964339991252        0.73363386956924       -6.46659869821052
H            6.27301944178818        2.95953988585344       -7.50372040074459
H            4.95574139936824        4.68750699022294       -6.38054445958777
H            1.88249752206114        5.88059308957620       -2.43440850740588
H            1.89176643230142        6.08874572936333       -0.00841697667484
H            3.68297892225995        5.02881253423159        1.33024412822565
H            5.50657976400835        3.82988931016368        0.17258533522862
H            5.50116801972233        3.61483770935096       -2.25304763507292
H            6.03790215569886        5.46334219171021       -3.94936063575447
H            5.78296613596598        7.11269008962614       -4.40814756916983

          :  Hamiltonian                  GFN2-xTB          :
         :: total energy             -87.744624046899 Eh    ::
         :: gradient norm              0.000173265464 Eh/a0 ::
         :: HOMO-LUMO gap              2.818954589140 eV    ::
         :: SCC energy               -89.233013718075 Eh    ::
         :: -> dispersion             -0.081270079067 Eh    ::
         :: repulsion energy           1.488389671176 Eh    ::

    * Orbital Energies and Occupations

         #    Occupation            Energy/Eh            Energy/eV
      -------------------------------------------------------------
         1        2.0000           -0.8696748             -23.6651
       ...           ...                  ...                  ...
        69        2.0000           -0.5306549             -14.4399
        70        2.0000           -0.5279102             -14.3652
        71        2.0000           -0.5275941             -14.3566
        72        2.0000           -0.5197757             -14.1438
        73        2.0000           -0.5172274             -14.0745
        74        2.0000           -0.5154248             -14.0254
        75        2.0000           -0.5136474             -13.9771
        76        2.0000           -0.5113767             -13.9153
        77        2.0000           -0.5085200             -13.8375
        78        2.0000           -0.5013238             -13.6417
        79        2.0000           -0.4997323             -13.5984
        80        2.0000           -0.4971170             -13.5272
        81        2.0000           -0.4815836             -13.1046 (HOMO)
        82                         -0.3779889             -10.2856 (LUMO)
        83                         -0.3465158              -9.4292
        84                         -0.3386546              -9.2153
        85                         -0.3334310              -9.0731
        86                         -0.3327337              -9.0541
        87                         -0.3266356              -8.8882
        88                         -0.3208592              -8.7310
        89                         -0.3186871              -8.6719
        90                         -0.2945344              -8.0147
        91                         -0.2051992              -5.5838
        92                         -0.2044102              -5.5623
       ...                                ...                  ...
       158                          0.5751233              15.6499
      -------------------------------------------------------------
                  HL-Gap            0.1035947 Eh            2.8190 eV

     #   Z          covCN         q      C6AA      α(0)
     1   6 C        3.757    -0.119    22.837     6.813
     2   6 C        2.966     0.011    27.756     8.642
     3   6 C        2.926    -0.034    28.855     8.809
     4   6 C        2.918    -0.025    28.619     8.773
     5   6 C        2.919    -0.029    28.735     8.790
     6   6 C        2.923    -0.042    29.035     8.836
     7   6 C        2.974    -0.014    28.362     8.736
     8   6 C        3.747    -0.026    21.109     6.553
     9   7 N        2.877     0.039    20.560     6.735
    10   6 C        3.047    -0.009    28.186     8.707
    11   6 C        3.058    -0.009    28.196     8.708
    12   7 N        2.870     0.039    20.554     6.733
    13   6 C        3.104     0.110    25.452     8.267
    14   6 C        3.754    -0.133    23.111     6.855
    15   6 C        3.741    -0.022    21.043     6.545
    16   6 C        3.811    -0.069    21.812     6.648
    17   6 C        3.910    -0.022    20.904     6.499
    18   6 C        2.974    -0.003    28.106     8.696
    19   6 C        2.924    -0.045    29.121     8.850
    20   6 C        2.919    -0.031    28.761     8.795
    21   6 C        2.920    -0.026    28.649     8.777
    22   6 C        2.919    -0.025    28.620     8.773
    23   6 C        2.926    -0.041    29.014     8.833
    24   6 C        2.989     0.004    27.932     8.669
    25   6 C        2.925    -0.047    29.166     8.857
    26   6 C        2.919    -0.037    28.918     8.818
    27   6 C        2.918    -0.036    28.887     8.814
    28   6 C        2.919    -0.033    28.817     8.803
    29   6 C        2.924    -0.043    29.066     8.841
    30   6 C        2.768     0.289    22.097     7.698
    31   8 O        0.859    -0.420    22.076     6.300
    32   7 N        2.637    -0.262    26.799     7.688
    33   1 H        0.925     0.063     2.164     2.300
    34   1 H        0.924     0.044     2.395     2.420
    35   1 H        0.925     0.055     2.257     2.349
    36   1 H        0.926     0.054     2.276     2.359
    37   1 H        0.926     0.055     2.256     2.349
    38   1 H        0.926     0.050     2.324     2.384
    39   1 H        0.925     0.026     2.642     2.542
    40   1 H        0.924     0.086     1.920     2.167
    41   1 H        0.924     0.086     1.917     2.165
    42   1 H        0.926     0.097     1.809     2.103
    43   1 H        0.926     0.101     1.777     2.084
    44   1 H        0.924     0.097     1.811     2.105
    45   1 H        0.925     0.097     1.816     2.108
    46   1 H        0.925     0.086     1.915     2.164
    47   1 H        0.925     0.083     1.952     2.185
    48   1 H        0.924     0.082     1.962     2.190
    49   1 H        0.924     0.073     2.054     2.241
    50   1 H        0.925     0.082     1.955     2.186
    51   1 H        0.926     0.022     2.696     2.568
    52   1 H        0.926     0.039     2.459     2.452
    53   1 H        0.926     0.048     2.340     2.392
    54   1 H        0.926     0.049     2.335     2.390
    55   1 H        0.926     0.038     2.478     2.462
    56   1 H        0.926     0.036     2.509     2.477
    57   1 H        0.926     0.033     2.541     2.493
    58   1 H        0.926     0.041     2.434     2.440
    59   1 H        0.926     0.045     2.389     2.417
    60   1 H        0.926     0.041     2.436     2.441
    61   1 H        0.860     0.192     1.150     1.680
    62   1 H        0.860     0.208     1.067     1.618

Wiberg/Mayer (AO) data.
largest (>0.10) Wiberg bond orders for each atom

     #   Z sym  total        # sym  WBO       # sym  WBO       # sym  WBO
 ---------------------------------------------------------------------------
     1   6 C    3.993 --     2 C    1.028    33 H    0.982    35 H    0.970
                            34 H    0.968
     2   6 C    3.988 --     3 C    1.410     7 C    1.382     1 C    1.028
                             5 C    0.106
     3   6 C    3.990 --     4 C    1.448     2 C    1.410    36 H    0.967
                             6 C    0.109
     4   6 C    3.990 --     3 C    1.448     5 C    1.432    37 H    0.969
                             7 C    0.107
     5   6 C    3.991 --     6 C    1.445     4 C    1.432    38 H    0.970
                             2 C    0.106
     6   6 C    3.992 --     5 C    1.445     7 C    1.414    39 H    0.969
                             3 C    0.109
     7   6 C    3.977 --     6 C    1.414     2 C    1.382     8 C    0.982
                             4 C    0.107
     8   6 C    3.939 --     7 C    0.982     9 N    0.967    40 H    0.957
                            41 H    0.951
     9   7 N    3.691 --    13 C    1.324    10 C    1.209     8 C    0.967
    10   6 C    3.949 --    11 C    1.610     9 N    1.209    42 H    0.962
    11   6 C    3.949 --    10 C    1.610    12 N    1.205    43 H    0.962
    12   7 N    3.691 --    13 C    1.329    11 C    1.205    15 C    0.969
    13   6 C    3.953 --    12 N    1.329     9 N    1.324    14 C    1.046
    14   6 C    3.979 --    13 C    1.046    46 H    0.964    45 H    0.957
                            44 H    0.939
    15   6 C    3.941 --    16 C    0.989    12 N    0.969    48 H    0.961
                            47 H    0.957
    16   6 C    3.981 --    15 C    0.989    17 C    0.967    49 H    0.967
                            50 H    0.958
    17   6 C    3.987 --    18 C    0.983    24 C    0.976    16 C    0.967
                            30 C    0.889
    18   6 C    3.985 --    19 C    1.412    23 C    1.406    17 C    0.983
                            21 C    0.110
    19   6 C    3.992 --    20 C    1.437    18 C    1.412    51 H    0.962
                            22 C    0.109
    20   6 C    3.991 --    21 C    1.443    19 C    1.437    52 H    0.970
                            23 C    0.111
    21   6 C    3.990 --    20 C    1.443    22 C    1.434    53 H    0.970
                            18 C    0.110
    22   6 C    3.991 --    23 C    1.449    21 C    1.434    54 H    0.970
                            19 C    0.109
    23   6 C    3.991 --    22 C    1.449    18 C    1.406    55 H    0.966
                            20 C    0.111
    24   6 C    3.984 --    29 C    1.404    25 C    1.399    17 C    0.976
                            27 C    0.108
    25   6 C    3.991 --    26 C    1.448    24 C    1.399    56 H    0.965
                            28 C    0.110
    26   6 C    3.992 --    25 C    1.448    27 C    1.434    57 H    0.970
                            29 C    0.108
    27   6 C    3.987 --    28 C    1.437    26 C    1.434    58 H    0.970
                            24 C    0.108
    28   6 C    3.991 --    29 C    1.439    27 C    1.437    59 H    0.970
                            25 C    0.110
    29   6 C    3.991 --    28 C    1.439    24 C    1.404    60 H    0.963
                            26 C    0.108
    30   6 C    3.947 --    31 O    1.708    32 N    1.273    17 C    0.889
    31   8 O    2.033 --    30 C    1.708    32 N    0.200
    32   7 N    3.389 --    30 C    1.273    61 H    0.941    62 H    0.935
                            31 O    0.200
    33   1 H    0.995 --     1 C    0.982
    34   1 H    0.998 --     1 C    0.968
    35   1 H    0.997 --     1 C    0.970
    36   1 H    0.997 --     3 C    0.967
    37   1 H    0.996 --     4 C    0.969
    38   1 H    0.997 --     5 C    0.970
    39   1 H    0.999 --     6 C    0.969
    40   1 H    0.992 --     8 C    0.957
    41   1 H    0.992 --     8 C    0.951
    42   1 H    0.990 --    10 C    0.962
    43   1 H    0.990 --    11 C    0.962
    44   1 H    0.991 --    14 C    0.939
    45   1 H    0.991 --    14 C    0.957
    46   1 H    0.992 --    14 C    0.964
    47   1 H    0.993 --    15 C    0.957
    48   1 H    0.993 --    15 C    0.961
    49   1 H    0.994 --    16 C    0.967
    50   1 H    0.992 --    16 C    0.958
    51   1 H    0.999 --    19 C    0.962
    52   1 H    0.998 --    20 C    0.970
    53   1 H    0.997 --    21 C    0.970
    54   1 H    0.997 --    22 C    0.970
    55   1 H    0.999 --    23 C    0.966
    56   1 H    0.999 --    25 C    0.965
    57   1 H    0.998 --    26 C    0.970
    58   1 H    0.998 --    27 C    0.970
    59   1 H    0.998 --    28 C    0.970
    60   1 H    0.998 --    29 C    0.963
    61   1 H    0.963 --    32 N    0.941
    62   1 H    0.956 --    32 N    0.935
 ---------------------------------------------------------------------------

molecular dipole:
                 x           y           z       tot (Debye)
 q only:        2.967       4.997      -3.036
   full:        3.200       5.076      -3.024      17.079

           -------------------------------------------------
          | TOTAL ENERGY              -87.744624046899 Eh   |
          | GRADIENT NORM               0.000173265464 Eh/α |
          | HOMO-LUMO GAP               2.818954589140 eV   |
           -------------------------------------------------

 * finished run on 2024/12/20 at 07:06:52.664
