   * xtb version 6.7.1 (edcfbbe) compiled by 'conda@3ef47c1a292c' on 2024-11-25

   ID    Z sym.   atoms
    1    6 C      1-7, 9, 10, 12-18, 20
    2    7 N      8, 19
    3    8 O      11
    4    1 H      21-37

          program call               : xtb C0992.xyz --opt --namespace C0992 --charge +1
          :  Hamiltonian                  GFN2-xTB          :
 * total energy  :   -54.5993782 Eh     change       -0.6598739E-09 Eh
 * total energy  :   -54.6059305 Eh     change       -0.6552306E-02 Eh
 * total energy  :   -54.6073667 Eh     change       -0.1436117E-02 Eh
 * total energy  :   -54.6076058 Eh     change       -0.2391019E-03 Eh
 * total energy  :   -54.6077993 Eh     change       -0.1935270E-03 Eh
 * total energy  :   -54.6079136 Eh     change       -0.1143448E-03 Eh
 * total energy  :   -54.6080520 Eh     change       -0.1383553E-03 Eh
 * total energy  :   -54.6082219 Eh     change       -0.1699380E-03 Eh
 * total energy  :   -54.6084111 Eh     change       -0.1892173E-03 Eh
 * total energy  :   -54.6086343 Eh     change       -0.2231459E-03 Eh
 * total energy  :   -54.6120210 Eh     change       -0.1159500E-04 Eh
 * total energy  :   -54.6120317 Eh     change       -0.1074285E-04 Eh
 * total energy  :   -54.6120442 Eh     change       -0.1245919E-04 Eh
 * total energy  :   -54.6120583 Eh     change       -0.1413451E-04 Eh
 * total energy  :   -54.6120682 Eh     change       -0.9831873E-05 Eh
 * total energy  :   -54.6120744 Eh     change       -0.6246622E-05 Eh
 * total energy  :   -54.6120742 Eh     change        0.1886604E-06 Eh
 * total energy  :   -54.6120811 Eh     change       -0.6830195E-05 Eh
 * total energy  :   -54.6120834 Eh     change       -0.2378936E-05 Eh
   *** GEOMETRY OPTIMIZATION CONVERGED AFTER 54 ITERATIONS ***

 final structure:
================
37
 xtb: 6.7.1 (edcfbbe)
C            0.57412144121818       -0.04565760173176       -0.28457651744756
C            0.19048598643027       -0.24125460034667        1.14332037431434
C           -0.02155765216693       -1.54727728948995        1.62382672289098
C           -0.37907514755479       -1.81350549623187        2.92580637083962
C           -0.52731320071749       -0.72023010481891        3.77248733982569
C           -0.31852342393403        0.59042196935639        3.30551767048588
C            0.03916739750962        0.84540758778763        1.98817843039290
N           -0.55140601387179        1.43031478160708        4.37922775618422
C           -0.44496831482518        2.86507185443491        4.34076562893260
C            1.01975060641625        3.29587088336138        4.03120096604877
O            1.31201332172380        3.52390907378383        2.88302481029546
C            1.96994524196742        3.38653764608887        5.14246052601206
C            1.66804745161955        3.05862062225450        6.46751333490904
C            2.63324061654926        3.17679889908236        7.44827379016383
C            3.90640458052400        3.62739272754493        7.13035989860552
C            4.21848902051556        3.95756002713831        5.82017858762883
C            3.26094664025808        3.83598249658401        4.83449409873082
C           -0.87640192467158        0.67148381460981        5.42339668734264
N           -0.87377997142669       -0.61847672814229        5.10319346368972
C           -1.18130941534356       -1.72373256988845        5.96906551154334
H            0.78030383032217        0.99873326719710       -0.49717996386955
H           -0.22898803834101       -0.38383824538448       -0.93787318018755
H            1.45759998304352       -0.63480484556199       -0.52284803800380
H            0.10307683725647       -2.36948734719202        0.93625171331373
H           -0.53740819162875       -2.82181915433599        3.27091398915331
H            0.21089316178185        1.84994500833318        1.63739353603953
H           -1.06028009426285        3.24091622596160        3.51711985621822
H           -0.79816137056532        3.29177496821610        5.27861130145163
H            0.68443857951147        2.71562381823569        6.74834613268036
H            2.39243004234223        2.92366930678865        8.46951648370482
H            4.65080676063397        3.72424816207192        7.90532903025240
H            5.20635680942380        4.31188626189049        5.57106437055295
H            3.48337800122819        4.08994490214476        3.80928646885193
H           -1.12951065232882        1.04758501976475        6.39682209424408
H           -1.41486318335073       -1.35947588104294        6.96660770051402
H           -2.03849949667546       -2.27468662472215        5.57946391008653
H           -0.32850021860532       -2.40128283535010        6.02476914361213

          :  Hamiltonian                  GFN2-xTB          :
         :: total energy             -54.612083438107 Eh    ::
         :: gradient norm              0.000369226191 Eh/a0 ::
         :: HOMO-LUMO gap              2.870018918869 eV    ::
         :: SCC energy               -55.519458669927 Eh    ::
         :: -> dispersion             -0.037619519358 Eh    ::
         :: repulsion energy           0.907375231820 Eh    ::

    * Orbital Energies and Occupations

         #    Occupation            Energy/Eh            Energy/eV
      -------------------------------------------------------------
         1        2.0000           -0.8771452             -23.8683
       ...           ...                  ...                  ...
        38        2.0000           -0.5937512             -16.1568
        39        2.0000           -0.5909174             -16.0797
        40        2.0000           -0.5855507             -15.9336
        41        2.0000           -0.5740085             -15.6196
        42        2.0000           -0.5688903             -15.4803
        43        2.0000           -0.5574476             -15.1689
        44        2.0000           -0.5503046             -14.9746
        45        2.0000           -0.5423575             -14.7583
        46        2.0000           -0.5361248             -14.5887
        47        2.0000           -0.5286106             -14.3842
        48        2.0000           -0.5267189             -14.3327
        49        2.0000           -0.5232603             -14.2386
        50        2.0000           -0.5171374             -14.0720 (HOMO)
        51                         -0.4116662             -11.2020 (LUMO)
        52                         -0.4034136             -10.9774
        53                         -0.3554925              -9.6734
        54                         -0.3467020              -9.4342
        55                         -0.3401316              -9.2555
        56                         -0.3125931              -8.5061
        57                         -0.2304783              -6.2716
        58                         -0.2042903              -5.5590
        59                         -0.1673402              -4.5536
        60                         -0.1195982              -3.2544
        61                         -0.0830816              -2.2608
       ...                                ...                  ...
        97                          0.5546692              15.0933
      -------------------------------------------------------------
                  HL-Gap            0.1054713 Eh            2.8700 eV

     #   Z          covCN         q      C6AA      α(0)
     1   6 C        3.760    -0.126    22.972     6.833
     2   6 C        2.971     0.040    27.091     8.538
     3   6 C        2.931    -0.029    28.734     8.791
     4   6 C        2.907    -0.037    28.918     8.818
     5   6 C        3.122     0.031    27.137     8.531
     6   6 C        3.112     0.038    26.996     8.512
     7   6 C        2.913    -0.047    29.170     8.856
     8   7 N        2.827     0.034    20.648     6.749
     9   6 C        3.738    -0.044    21.444     6.608
    10   6 C        2.820     0.226    23.249     7.901
    11   8 O        0.858    -0.330    20.334     6.046
    12   6 C        2.969    -0.018    28.464     8.751
    13   6 C        2.919    -0.028    28.710     8.787
    14   6 C        2.917    -0.022    28.565     8.764
    15   6 C        2.920    -0.009    28.235     8.714
    16   6 C        2.916    -0.018    28.446     8.746
    17   6 C        2.928    -0.010    28.268     8.719
    18   6 C        3.066     0.058    26.627     8.461
    19   7 N        2.824     0.040    20.537     6.731
    20   6 C        3.691    -0.075    22.129     6.732
    21   1 H        0.925     0.070     2.087     2.259
    22   1 H        0.925     0.078     1.997     2.210
    23   1 H        0.925     0.077     2.015     2.220
    24   1 H        0.926     0.078     2.003     2.213
    25   1 H        0.926     0.069     2.096     2.264
    26   1 H        0.926     0.091     1.867     2.137
    27   1 H        0.924     0.104     1.752     2.070
    28   1 H        0.925     0.083     1.944     2.180
    29   1 H        0.926     0.028     2.610     2.526
    30   1 H        0.926     0.054     2.265     2.353
    31   1 H        0.926     0.065     2.142     2.289
    32   1 H        0.926     0.066     2.135     2.285
    33   1 H        0.926     0.077     2.012     2.218
    34   1 H        0.926     0.097     1.809     2.103
    35   1 H        0.925     0.091     1.874     2.141
    36   1 H        0.924     0.100     1.788     2.091
    37   1 H        0.924     0.099     1.797     2.096

Wiberg/Mayer (AO) data.
largest (>0.10) Wiberg bond orders for each atom

     #   Z sym  total        # sym  WBO       # sym  WBO       # sym  WBO
 ---------------------------------------------------------------------------
     1   6 C    3.988 --     2 C    1.040    21 H    0.982    23 H    0.962
                            22 H    0.958
     2   6 C    3.984 --     7 C    1.457     3 C    1.332     1 C    1.040
     3   6 C    3.987 --     4 C    1.515     2 C    1.332    24 H    0.965
     4   6 C    3.985 --     3 C    1.515     5 C    1.326    25 H    0.964
                             7 C    0.111
     5   6 C    3.949 --     4 C    1.326     6 C    1.272    19 N    1.125
     6   6 C    3.949 --     7 C    1.343     5 C    1.272     8 N    1.119
     7   6 C    3.981 --     2 C    1.457     6 C    1.343    26 H    0.955
                             4 C    0.111
     8   7 N    3.679 --    18 C    1.355     6 C    1.119     9 C    0.982
                            19 N    0.106
     9   6 C    3.941 --     8 N    0.982    28 H    0.963    27 H    0.954
                            10 C    0.916
    10   6 C    3.931 --    11 O    1.836    12 C    1.072     9 C    0.916
    11   8 O    2.107 --    10 C    1.836
    12   6 C    3.986 --    13 C    1.360    17 C    1.352    10 C    1.072
    13   6 C    3.993 --    14 C    1.469    12 C    1.360    29 H    0.965
                            16 C    0.103
    14   6 C    3.991 --    13 C    1.469    15 C    1.420    30 H    0.969
    15   6 C    3.986 --    16 C    1.428    14 C    1.420    31 H    0.968
    16   6 C    3.989 --    17 C    1.464    15 C    1.428    32 H    0.967
                            13 C    0.103
    17   6 C    3.984 --    16 C    1.464    12 C    1.352    33 H    0.964
    18   6 C    3.949 --    19 N    1.363     8 N    1.355    34 H    0.953
    19   7 N    3.685 --    18 C    1.363     5 C    1.125    20 C    0.992
                             8 N    0.106
    20   6 C    3.940 --    19 N    0.992    35 H    0.977    37 H    0.965
                            36 H    0.964
    21   1 H    0.995 --     1 C    0.982
    22   1 H    0.991 --     1 C    0.958
    23   1 H    0.992 --     1 C    0.962
    24   1 H    0.994 --     3 C    0.965
    25   1 H    0.994 --     4 C    0.964
    26   1 H    0.991 --     7 C    0.955
    27   1 H    0.988 --     9 C    0.954
    28   1 H    0.993 --     9 C    0.963
    29   1 H    0.999 --    13 C    0.965
    30   1 H    0.997 --    14 C    0.969
    31   1 H    0.995 --    15 C    0.968
    32   1 H    0.995 --    16 C    0.967
    33   1 H    0.994 --    17 C    0.964
    34   1 H    0.990 --    18 C    0.953
    35   1 H    0.991 --    20 C    0.977
    36   1 H    0.989 --    20 C    0.964
    37   1 H    0.989 --    20 C    0.965
 ---------------------------------------------------------------------------

molecular dipole:
                 x           y           z       tot (Debye)
 q only:       -0.027       0.641       8.962
   full:       -0.231       0.668       9.391      23.936

           -------------------------------------------------
          | TOTAL ENERGY              -54.612083438107 Eh   |
          | GRADIENT NORM               0.000369226191 Eh/α |
          | HOMO-LUMO GAP               2.870018918869 eV   |
           -------------------------------------------------

 * finished run on 2024/12/20 at 07:07:36.888
