   * xtb version 6.7.1 (edcfbbe) compiled by 'conda@3ef47c1a292c' on 2024-11-25

   ID    Z sym.   atoms
    1   17 Cl     1
    2   16 S      2
    3    8 O      3, 4
    4    6 C      5-8, 10-27
    5   15 P      9
    6    1 H      28-50

          program call               : xtb C0994.xyz --opt --namespace C0994 --charge +1
          :  Hamiltonian                  GFN2-xTB          :
 * total energy  :   -76.8548173 Eh     change       -0.6412222E-09 Eh
 * total energy  :   -76.8624831 Eh     change       -0.7665862E-02 Eh
 * total energy  :   -76.8650120 Eh     change       -0.2528891E-02 Eh
 * total energy  :   -76.8658192 Eh     change       -0.8072264E-03 Eh
 * total energy  :   -76.8666498 Eh     change       -0.8305610E-03 Eh
 * total energy  :   -76.8673166 Eh     change       -0.6667787E-03 Eh
 * total energy  :   -76.8678626 Eh     change       -0.5460588E-03 Eh
 * total energy  :   -76.8683153 Eh     change       -0.4526702E-03 Eh
 * total energy  :   -76.8686143 Eh     change       -0.2989543E-03 Eh
 * total energy  :   -76.8688369 Eh     change       -0.2226390E-03 Eh
 * total energy  :   -76.8760495 Eh     change       -0.6981405E-05 Eh
 * total energy  :   -76.8760567 Eh     change       -0.7189607E-05 Eh
 * total energy  :   -76.8760678 Eh     change       -0.1115467E-04 Eh
 * total energy  :   -76.8760759 Eh     change       -0.8068041E-05 Eh
 * total energy  :   -76.8760839 Eh     change       -0.7974188E-05 Eh
 * total energy  :   -76.8760926 Eh     change       -0.8741019E-05 Eh
 * total energy  :   -76.8761003 Eh     change       -0.7698376E-05 Eh
 * total energy  :   -76.8761059 Eh     change       -0.5559191E-05 Eh
 * total energy  :   -76.8761083 Eh     change       -0.2455099E-05 Eh
   *** GEOMETRY OPTIMIZATION CONVERGED AFTER 94 ITERATIONS ***

 final structure:
================
50
 xtb: 6.7.1 (edcfbbe)
Cl           0.21109212660503       -1.13068156663818        0.29428658456268
S            1.77749310373473       -0.07539804331226        1.09037329178353
O            1.27443538121605        1.23712404315324        1.28142306197523
O            2.22934715639496       -0.84003809831302        2.20335257323486
C            2.95338183217012       -0.12228789886971       -0.28435894867553
C            3.93569238118301       -1.25169730075669       -0.07676310082183
C            3.29847233043460       -2.64103569595347        0.00400729069968
C            2.54221706527485       -3.03979177998370       -1.26683887636862
P            2.33631383850208       -4.85343295480635       -1.37933885021502
C            1.28990571904407       -5.52957190469842       -0.07930279845282
C            0.51713733095298       -4.72869409784138        0.75402861517080
C           -0.30103988139235       -5.32909806960453        1.69648709039120
C           -0.35832924189632       -6.70950198703852        1.79871009690229
C            0.39431268602994       -7.50623905769706        0.94737602783189
C            1.21605716580335       -6.92128814836941        0.00387425472725
C            1.54427518776018       -5.24936502981162       -2.95293324114843
C            0.41328318986441       -4.52349632278763       -3.32317137691628
C           -0.25219887016683       -4.84786232616594       -4.49069847258243
C            0.19743546236879       -5.89625880608207       -5.27966065831428
C            1.31012098034951       -6.62959495334746       -4.89937574960750
C            1.98478870729405       -6.31455589905794       -3.73302351098941
C            3.99107101250187       -5.56866363529309       -1.31086365450095
C            4.44199982482433       -6.24515985010124       -0.18141530159058
C            5.73667258047262       -6.73415251515401       -0.15222768499175
C            6.57772266582343       -6.54472516249282       -1.23741622592602
C            6.13222771797661       -5.85738953643793       -2.35717553069214
C            4.84159138850121       -5.36423150263201       -2.39712352076030
H            2.36054444098594       -0.20772337001810       -1.18906062993189
H            3.43464206855943        0.85130999637444       -0.25279039816824
H            4.67202841246030       -1.23044536029435       -0.88512971412706
H            4.46508905039040       -1.07643700546677        0.86094274593921
H            4.10655859653220       -3.35650619419437        0.18378852032581
H            2.63626746675194       -2.67409976683052        0.86762372832343
H            1.55686560825323       -2.56932057105382       -1.30927235827798
H            3.11077107833703       -2.75330153497425       -2.15933116795262
H            0.53617187320175       -3.65389091579060        0.66479588111343
H           -0.89771664786502       -4.71216664600484        2.34983472749740
H           -0.99708969360099       -7.16860155971809        2.53699819992774
H            0.33664521392961       -8.58129255823830        1.01841727223042
H            1.80064240851000       -7.53256807721568       -0.67149950316569
H            0.05387535978953       -3.71913826779944       -2.69685485112406
H           -1.12556427094686       -4.28623995601931       -4.78335235319678
H           -0.32526594291673       -6.14639344245047       -6.18956588367658
H            1.65209237647795       -7.45101480130431       -5.50965896539370
H            2.85038124611087       -6.88831209970194       -3.43287044658757
H            3.78453811685570       -6.38630810610364        0.66456441930499
H            6.08885036603121       -7.26271062170478        0.71977011029760
H            7.58424840252629       -6.93181582206345       -1.21106035307026
H            6.79125330024848       -5.70719473784988       -3.19811910158588
H            4.48587232763539       -4.82945048156987       -3.26777126332952

          :  Hamiltonian                  GFN2-xTB          :
         :: total energy             -76.876108329854 Eh    ::
         :: gradient norm              0.000453426217 Eh/a0 ::
         :: HOMO-LUMO gap              3.940437566905 eV    ::
         :: SCC energy               -78.050245152826 Eh    ::
         :: -> dispersion             -0.065865226216 Eh    ::
         :: repulsion energy           1.174136822972 Eh    ::

    * Orbital Energies and Occupations

         #    Occupation            Energy/Eh            Energy/eV
      -------------------------------------------------------------
         1        2.0000           -1.1734636             -31.9316
       ...           ...                  ...                  ...
        58        2.0000           -0.5550851             -15.1046
        59        2.0000           -0.5528986             -15.0451
        60        2.0000           -0.5506367             -14.9836
        61        2.0000           -0.5487222             -14.9315
        62        2.0000           -0.5467489             -14.8778
        63        2.0000           -0.5442490             -14.8098
        64        2.0000           -0.5412775             -14.7289
        65        2.0000           -0.5390197             -14.6675
        66        2.0000           -0.5387035             -14.6589
        67        2.0000           -0.5348294             -14.5534
        68        2.0000           -0.5345261             -14.5452
        69        2.0000           -0.5309807             -14.4487
        70        2.0000           -0.5284387             -14.3795 (HOMO)
        71                         -0.3836303             -10.4391 (LUMO)
        72                         -0.3742788             -10.1846
        73                         -0.3629851              -9.8773
        74                         -0.3569006              -9.7118
        75                         -0.3517434              -9.5714
        76                         -0.3486454              -9.4871
        77                         -0.3403655              -9.2618
        78                         -0.2730451              -7.4299
        79                         -0.2643703              -7.1939
        80                         -0.2592172              -7.0537
        81                         -0.2517171              -6.8496
       ...                                ...                  ...
       146                          1.1630448              31.6481
      -------------------------------------------------------------
                  HL-Gap            0.1448084 Eh            3.9404 eV

     #   Z          covCN         q      C6AA      α(0)
     1  17 Cl       0.895    -0.276   107.912    15.892
     2  16 S        3.634     1.225   100.432    16.867
     3   8 O        0.861    -0.532    24.509     6.638
     4   8 O        0.860    -0.540    24.694     6.663
     5   6 C        3.799    -0.156    23.526     6.906
     6   6 C        3.852    -0.075    21.900     6.656
     7   6 C        3.881    -0.080    21.973     6.665
     8   6 C        3.750    -0.079    22.076     6.701
     9  15 P        4.333     0.151   153.704    22.271
    10   6 C        2.922     0.002    27.986     8.675
    11   6 C        2.982    -0.028    28.692     8.787
    12   6 C        2.920    -0.017    28.425     8.743
    13   6 C        2.919    -0.012    28.315     8.726
    14   6 C        2.918    -0.019    28.481     8.752
    15   6 C        3.037    -0.023    28.537     8.762
    16   6 C        2.921    -0.003    28.101     8.693
    17   6 C        3.016    -0.026    28.619     8.775
    18   6 C        2.919    -0.018    28.449     8.747
    19   6 C        2.920    -0.013    28.329     8.728
    20   6 C        2.919    -0.019    28.475     8.751
    21   6 C        2.991    -0.023    28.561     8.767
    22   6 C        2.921    -0.002    28.073     8.689
    23   6 C        2.990    -0.024    28.594     8.772
    24   6 C        2.919    -0.019    28.476     8.751
    25   6 C        2.920    -0.013    28.337     8.729
    26   6 C        2.918    -0.020    28.497     8.754
    27   6 C        3.018    -0.025    28.597     8.772
    28   1 H        0.925     0.097     1.817     2.108
    29   1 H        0.926     0.106     1.727     2.055
    30   1 H        0.924     0.078     1.998     2.210
    31   1 H        0.924     0.083     1.950     2.183
    32   1 H        0.924     0.069     2.099     2.266
    33   1 H        0.925     0.079     1.994     2.208
    34   1 H        0.926     0.105     1.739     2.062
    35   1 H        0.927     0.091     1.866     2.136
    36   1 H        0.926     0.072     2.067     2.248
    37   1 H        0.926     0.069     2.096     2.264
    38   1 H        0.926     0.070     2.090     2.261
    39   1 H        0.926     0.065     2.139     2.287
    40   1 H        0.925     0.053     2.285     2.364
    41   1 H        0.926     0.057     2.232     2.336
    42   1 H        0.926     0.067     2.114     2.274
    43   1 H        0.926     0.070     2.090     2.261
    44   1 H        0.926     0.066     2.130     2.282
    45   1 H        0.926     0.053     2.280     2.361
    46   1 H        0.926     0.057     2.231     2.336
    47   1 H        0.926     0.067     2.119     2.276
    48   1 H        0.926     0.069     2.092     2.262
    49   1 H        0.926     0.065     2.136     2.286
    50   1 H        0.925     0.053     2.284     2.363

Wiberg/Mayer (AO) data.
largest (>0.10) Wiberg bond orders for each atom

     #   Z sym  total        # sym  WBO       # sym  WBO       # sym  WBO
 ---------------------------------------------------------------------------
     1  17 Cl   1.065 --     2 S    0.760
     2  16 S    4.839 --     3 O    1.675     4 O    1.650     1 Cl   0.760
                             5 C    0.718
     3   8 O    1.993 --     2 S    1.675     4 O    0.118
     4   8 O    1.979 --     2 S    1.650     3 O    0.118     5 C    0.104
     5   6 C    3.966 --     6 C    1.019    28 H    0.964    29 H    0.960
                             2 S    0.718     4 O    0.104
     6   6 C    3.983 --     5 C    1.019     7 C    1.004    31 H    0.967
                            30 H    0.962
     7   6 C    3.986 --     6 C    1.004     8 C    0.989    33 H    0.964
                            32 H    0.961
     8   6 C    3.982 --     9 P    1.010     7 C    0.989    35 H    0.929
                            34 H    0.922
     9  15 P    4.603 --     8 C    1.010    10 C    0.995    22 C    0.992
                            16 C    0.988
    10   6 C    3.971 --    11 C    1.384    15 C    1.361     9 P    0.995
                            13 C    0.101
    11   6 C    3.985 --    12 C    1.439    10 C    1.384    36 H    0.950
                            14 C    0.104
    12   6 C    3.988 --    13 C    1.441    11 C    1.439    37 H    0.966
                            15 C    0.108
    13   6 C    3.978 --    12 C    1.441    14 C    1.425    38 H    0.967
                            10 C    0.101
    14   6 C    3.987 --    15 C    1.458    13 C    1.425    39 H    0.966
                            11 C    0.104
    15   6 C    3.990 --    14 C    1.458    10 C    1.361    40 H    0.954
                            12 C    0.108
    16   6 C    3.971 --    21 C    1.381    17 C    1.372     9 P    0.988
                            19 C    0.102
    17   6 C    3.989 --    18 C    1.453    16 C    1.372    41 H    0.956
                            20 C    0.107
    18   6 C    3.987 --    17 C    1.453    19 C    1.430    42 H    0.966
                            21 C    0.106
    19   6 C    3.978 --    20 C    1.437    18 C    1.430    43 H    0.968
                            16 C    0.102
    20   6 C    3.988 --    21 C    1.444    19 C    1.437    44 H    0.966
                            17 C    0.107
    21   6 C    3.988 --    20 C    1.444    16 C    1.381    45 H    0.957
                            18 C    0.106
    22   6 C    3.976 --    23 C    1.383    27 C    1.370     9 P    0.992
                            25 C    0.103
    23   6 C    3.989 --    24 C    1.443    22 C    1.383    46 H    0.957
                            26 C    0.105
    24   6 C    3.988 --    23 C    1.443    25 C    1.439    47 H    0.966
                            27 C    0.108
    25   6 C    3.980 --    24 C    1.439    26 C    1.428    48 H    0.968
                            22 C    0.103
    26   6 C    3.987 --    27 C    1.454    25 C    1.428    49 H    0.966
                            23 C    0.105
    27   6 C    3.989 --    26 C    1.454    22 C    1.370    50 H    0.956
                            24 C    0.108
    28   1 H    0.991 --     5 C    0.964
    29   1 H    0.988 --     5 C    0.960
    30   1 H    0.994 --     6 C    0.962
    31   1 H    0.993 --     6 C    0.967
    32   1 H    0.995 --     7 C    0.961
    33   1 H    0.994 --     7 C    0.964
    34   1 H    0.988 --     8 C    0.922
    35   1 H    0.991 --     8 C    0.929
    36   1 H    0.995 --    11 C    0.950
    37   1 H    0.994 --    12 C    0.966
    38   1 H    0.994 --    13 C    0.967
    39   1 H    0.995 --    14 C    0.966
    40   1 H    0.997 --    15 C    0.954
    41   1 H    0.996 --    17 C    0.956
    42   1 H    0.995 --    18 C    0.966
    43   1 H    0.994 --    19 C    0.968
    44   1 H    0.995 --    20 C    0.966
    45   1 H    0.997 --    21 C    0.957
    46   1 H    0.997 --    23 C    0.957
    47   1 H    0.995 --    24 C    0.966
    48   1 H    0.994 --    25 C    0.968
    49   1 H    0.995 --    26 C    0.966
    50   1 H    0.997 --    27 C    0.956
 ---------------------------------------------------------------------------

molecular dipole:
                 x           y           z       tot (Debye)
 q only:        5.644      -9.928      -3.831
   full:        5.611      -9.279      -3.505      28.965

           -------------------------------------------------
          | TOTAL ENERGY              -76.876108329854 Eh   |
          | GRADIENT NORM               0.000453426217 Eh/α |
          | HOMO-LUMO GAP               3.940437566905 eV   |
           -------------------------------------------------

 * finished run on 2024/12/20 at 07:07:57.375
