   * xtb version 6.7.1 (edcfbbe) compiled by 'conda@3ef47c1a292c' on 2024-11-25

   ID    Z sym.   atoms
    1    6 C      1, 2, 4-10, 12-21
    2    7 N      3
    3    8 O      11
    4    1 H      22-47

          program call               : xtb C0995.xyz --opt --namespace C0995 --charge +1
          :  Hamiltonian                  GFN2-xTB          :
 * total energy  :   -60.5154683 Eh     change       -0.1884537E-08 Eh
 * total energy  :   -60.5240436 Eh     change       -0.8575298E-02 Eh
 * total energy  :   -60.5265116 Eh     change       -0.2468012E-02 Eh
 * total energy  :   -60.5269461 Eh     change       -0.4345443E-03 Eh
 * total energy  :   -60.5273041 Eh     change       -0.3579615E-03 Eh
 * total energy  :   -60.5275175 Eh     change       -0.2134101E-03 Eh
 * total energy  :   -60.5277361 Eh     change       -0.2185991E-03 Eh
 * total energy  :   -60.5279717 Eh     change       -0.2356071E-03 Eh
 * total energy  :   -60.5281767 Eh     change       -0.2049350E-03 Eh
 * total energy  :   -60.5283345 Eh     change       -0.1578175E-03 Eh
 * total energy  :   -60.5291348 Eh     change       -0.1027540E-04 Eh
 * total energy  :   -60.5291438 Eh     change       -0.9042136E-05 Eh
 * total energy  :   -60.5291505 Eh     change       -0.6703088E-05 Eh
 * total energy  :   -60.5291564 Eh     change       -0.5816853E-05 Eh
 * total energy  :   -60.5291623 Eh     change       -0.5902088E-05 Eh
 * total energy  :   -60.5291684 Eh     change       -0.6117779E-05 Eh
 * total energy  :   -60.5291746 Eh     change       -0.6228800E-05 Eh
 * total energy  :   -60.5291805 Eh     change       -0.5939493E-05 Eh
 * total energy  :   -60.5291853 Eh     change       -0.4795664E-05 Eh
   *** GEOMETRY OPTIMIZATION CONVERGED AFTER 36 ITERATIONS ***

 final structure:
================
47
 xtb: 6.7.1 (edcfbbe)
C            1.20806867926346        0.46293707423810       -0.39413331789209
C            0.66992087557360       -0.34932621848636       -1.56506740093215
N            1.04457018787677       -1.79213441312272       -1.57893801843832
C            0.57777200416763       -2.47790688619648       -0.31572930044696
C           -0.91601694738989       -2.64260850150642       -0.18385256019184
C           -1.72600607379945       -1.60885153013343        0.27224053730238
C           -3.09648373728669       -1.79543343167717        0.37486862780566
C           -3.66732154493352       -3.00826523863240        0.05564978157303
C           -2.86071826738283       -4.07100226642799       -0.35789497787726
C           -1.48780745005297       -3.87328915075722       -0.48892300252701
O           -3.48089953628366       -5.22538295573809       -0.67838641200534
C           -2.81457295297189       -6.43546489352585       -0.60385002763238
C           -3.08702279833266       -7.37717380739779       -1.58764353674574
C           -2.50543951455701       -8.62999051764287       -1.51400425052170
C           -1.65293566032439       -8.94422820792656       -0.46847254122919
C           -1.39264923554881       -8.00490933706603        0.51511441949833
C           -1.97186729544622       -6.74977794044843        0.45548405963622
C            0.34729971219125       -2.47671179510053       -2.71450242773747
C            0.73977190574853       -2.08881869350112       -4.13034676927941
C            2.53093554498972       -1.98857653026179       -1.64571626250593
C            3.33881702510401       -1.02681384029305       -2.50846304640035
H            0.73000114074090        0.20735842607495        0.54694947179813
H            0.99145968830465        1.51043700085532       -0.58998674302257
H            2.28197578666116        0.36638691645779       -0.27076273377019
H           -0.42086824765846       -0.30049775409711       -1.56314200929649
H            1.02863008286271        0.08839101411086       -2.49562335694756
H            1.04128766957314       -3.46685291264013       -0.30248366326243
H            0.96416815768840       -1.90881056070063        0.52969691887880
H           -1.30329439638672       -0.66325854520006        0.57175798789338
H           -3.71921604768947       -0.98623352691783        0.72178343517918
H           -4.73006767493610       -3.16733916697915        0.13582120988460
H           -0.87093544099421       -4.69570947887640       -0.82278833474560
H           -3.76123632651070       -7.11873863760712       -2.38891421621113
H           -2.72163946294885       -9.36296986663016       -2.27567184691895
H           -1.20152744787569       -9.92237438987340       -0.41301923825813
H           -0.74439905398372       -8.25087099556198        1.34244328886452
H           -1.79209820423162       -6.02359922632181        1.23571726960537
H            0.51685230701523       -3.54839664616066       -2.59157708120064
H           -0.72040519556415       -2.29106977084263       -2.58085726544557
H            1.73779246165562       -2.42794172614354       -4.38944547872113
H            0.04676249541658       -2.58877096210714       -4.80341087209139
H            0.65359507046068       -1.02247672621852       -4.31553627246440
H            2.91387776655572       -1.92170571726180       -0.62528995240446
H            2.69734081707347       -3.00920997834393       -1.99625335299233
H            3.33710596031368       -0.01411062431457       -2.11866570388144
H            4.36908950394438       -1.37613945716438       -2.49387984844248
H            3.01841366991273       -1.00094760591989       -3.54276518549623

          :  Hamiltonian                  GFN2-xTB          :
         :: total energy             -60.529185336878 Eh    ::
         :: gradient norm              0.000199766569 Eh/a0 ::
         :: HOMO-LUMO gap              3.289113032578 eV    ::
         :: SCC energy               -61.503585268096 Eh    ::
         :: -> dispersion             -0.046438370382 Eh    ::
         :: repulsion energy           0.974399931217 Eh    ::

    * Orbital Energies and Occupations

         #    Occupation            Energy/Eh            Energy/eV
      -------------------------------------------------------------
         1        2.0000           -0.8461954             -23.0261
       ...           ...                  ...                  ...
        44        2.0000           -0.5819312             -15.8352
        45        2.0000           -0.5707144             -15.5299
        46        2.0000           -0.5680138             -15.4564
        47        2.0000           -0.5628933             -15.3171
        48        2.0000           -0.5569980             -15.1567
        49        2.0000           -0.5534156             -15.0592
        50        2.0000           -0.5390959             -14.6695
        51        2.0000           -0.5245271             -14.2731
        52        2.0000           -0.5169652             -14.0673
        53        2.0000           -0.5146382             -14.0040
        54        2.0000           -0.5009622             -13.6319
        55        2.0000           -0.4914754             -13.3737
        56        2.0000           -0.4726320             -12.8610 (HOMO)
        57                         -0.3517594              -9.5719 (LUMO)
        58                         -0.3371946              -9.1755
        59                         -0.3101449              -8.4395
        60                         -0.3032702              -8.2524
        61                         -0.2351035              -6.3975
        62                         -0.2075814              -5.6486
        63                         -0.1775014              -4.8301
        64                         -0.1609654              -4.3801
        65                         -0.1479861              -4.0269
        66                         -0.1453873              -3.9562
        67                         -0.0629283              -1.7124
       ...                                ...                  ...
       110                          0.5848996              15.9159
      -------------------------------------------------------------
                  HL-Gap            0.1208727 Eh            3.2891 eV

     #   Z          covCN         q      C6AA      α(0)
     1   6 C        3.751    -0.125    22.955     6.833
     2   6 C        3.750    -0.029    21.162     6.561
     3   7 N        3.616     0.100    19.519     6.562
     4   6 C        3.769    -0.039    21.299     6.577
     5   6 C        2.966    -0.009    28.247     8.718
     6   6 C        2.921    -0.054    29.354     8.885
     7   6 C        2.918    -0.025    28.634     8.775
     8   6 C        2.919    -0.047    29.163     8.856
     9   6 C        2.865     0.157    24.608     8.131
    10   6 C        2.922    -0.073    29.827     8.956
    11   8 O        1.709    -0.243    18.018     5.731
    12   6 C        2.870     0.135    25.055     8.205
    13   6 C        2.918    -0.048    29.199     8.861
    14   6 C        2.921    -0.025    28.630     8.775
    15   6 C        2.919    -0.032    28.802     8.801
    16   6 C        2.921    -0.029    28.717     8.788
    17   6 C        2.917    -0.056    29.381     8.889
    18   6 C        3.758    -0.028    21.120     6.552
    19   6 C        3.751    -0.126    22.978     6.836
    20   6 C        3.752    -0.027    21.114     6.553
    21   6 C        3.751    -0.130    23.051     6.847
    22   1 H        0.925     0.063     2.165     2.301
    23   1 H        0.925     0.079     1.993     2.208
    24   1 H        0.925     0.064     2.148     2.292
    25   1 H        0.924     0.085     1.927     2.171
    26   1 H        0.925     0.088     1.894     2.152
    27   1 H        0.924     0.076     2.022     2.224
    28   1 H        0.925     0.087     1.907     2.159
    29   1 H        0.926     0.043     2.414     2.430
    30   1 H        0.926     0.062     2.178     2.308
    31   1 H        0.926     0.074     2.040     2.234
    32   1 H        0.926     0.039     2.464     2.455
    33   1 H        0.926     0.056     2.244     2.343
    34   1 H        0.926     0.053     2.286     2.364
    35   1 H        0.926     0.050     2.315     2.379
    36   1 H        0.926     0.046     2.367     2.406
    37   1 H        0.926     0.036     2.499     2.472
    38   1 H        0.924     0.080     1.983     2.202
    39   1 H        0.924     0.083     1.952     2.185
    40   1 H        0.925     0.068     2.103     2.268
    41   1 H        0.925     0.082     1.963     2.191
    42   1 H        0.925     0.063     2.165     2.301
    43   1 H        0.924     0.081     1.972     2.196
    44   1 H        0.924     0.079     1.994     2.208
    45   1 H        0.925     0.068     2.106     2.269
    46   1 H        0.925     0.079     1.988     2.205
    47   1 H        0.925     0.070     2.088     2.260

Wiberg/Mayer (AO) data.
largest (>0.10) Wiberg bond orders for each atom

     #   Z sym  total        # sym  WBO       # sym  WBO       # sym  WBO
 ---------------------------------------------------------------------------
     1   6 C    3.984 --     2 C    1.021    24 H    0.978    22 H    0.976
                            23 H    0.975
     2   6 C    3.935 --     1 C    1.021    25 H    0.963    26 H    0.962
                             3 N    0.935
     3   7 N    3.796 --     2 C    0.935    18 C    0.932    20 C    0.929
                             4 C    0.913
     4   6 C    3.932 --     5 C    1.005    27 H    0.967    28 H    0.959
                             3 N    0.913
     5   6 C    3.978 --    10 C    1.410     6 C    1.409     4 C    1.005
                             8 C    0.103
     6   6 C    3.985 --     7 C    1.418     5 C    1.409    29 H    0.964
     7   6 C    3.989 --     8 C    1.471     6 C    1.418    30 H    0.968
     8   6 C    3.984 --     7 C    1.471     9 C    1.341    31 H    0.965
                             5 C    0.103
     9   6 C    3.941 --    10 C    1.365     8 C    1.341    11 O    1.079
    10   6 C    3.987 --     5 C    1.410     9 C    1.365    32 H    0.963
    11   8 O    2.323 --     9 C    1.079    12 C    0.987
    12   6 C    3.921 --    17 C    1.385    13 C    1.385    11 O    0.987
                            15 C    0.102
    13   6 C    3.986 --    14 C    1.447    12 C    1.385    33 H    0.967
                            16 C    0.110
    14   6 C    3.990 --    13 C    1.447    15 C    1.436    34 H    0.969
                            17 C    0.110
    15   6 C    3.988 --    16 C    1.438    14 C    1.436    35 H    0.970
                            12 C    0.102
    16   6 C    3.991 --    17 C    1.444    15 C    1.438    36 H    0.970
                            13 C    0.110
    17   6 C    3.990 --    16 C    1.444    12 C    1.385    37 H    0.967
                            14 C    0.110
    18   6 C    3.937 --    19 C    1.022    38 H    0.967    39 H    0.964
                             3 N    0.932
    19   6 C    3.983 --    18 C    1.022    40 H    0.979    42 H    0.979
                            41 H    0.973
    20   6 C    3.937 --    21 C    1.021    44 H    0.969    43 H    0.968
                             3 N    0.929
    21   6 C    3.981 --    20 C    1.021    45 H    0.978    47 H    0.976
                            46 H    0.973
    22   1 H    0.996 --     1 C    0.976
    23   1 H    0.993 --     1 C    0.975
    24   1 H    0.996 --     1 C    0.978
    25   1 H    0.993 --     2 C    0.963
    26   1 H    0.992 --     2 C    0.962
    27   1 H    0.994 --     4 C    0.967
    28   1 H    0.992 --     4 C    0.959
    29   1 H    0.998 --     6 C    0.964
    30   1 H    0.995 --     7 C    0.968
    31   1 H    0.994 --     8 C    0.965
    32   1 H    0.998 --    10 C    0.963
    33   1 H    0.997 --    13 C    0.967
    34   1 H    0.997 --    14 C    0.969
    35   1 H    0.997 --    15 C    0.970
    36   1 H    0.998 --    16 C    0.970
    37   1 H    0.999 --    17 C    0.967
    38   1 H    0.993 --    18 C    0.967
    39   1 H    0.993 --    18 C    0.964
    40   1 H    0.995 --    19 C    0.979
    41   1 H    0.993 --    19 C    0.973
    42   1 H    0.996 --    19 C    0.979
    43   1 H    0.993 --    20 C    0.968
    44   1 H    0.994 --    20 C    0.969
    45   1 H    0.995 --    21 C    0.978
    46   1 H    0.993 --    21 C    0.973
    47   1 H    0.995 --    21 C    0.976
 ---------------------------------------------------------------------------

molecular dipole:
                 x           y           z       tot (Debye)
 q only:        1.666      -3.928      -3.058
   full:        1.727      -4.006      -2.946      13.381

           -------------------------------------------------
          | TOTAL ENERGY              -60.529185336878 Eh   |
          | GRADIENT NORM               0.000199766569 Eh/α |
          | HOMO-LUMO GAP               3.289113032578 eV   |
           -------------------------------------------------

 * finished run on 2024/12/20 at 07:07:58.814
