   * xtb version 6.7.1 (edcfbbe) compiled by 'conda@3ef47c1a292c' on 2024-11-25

   ID    Z sym.   atoms
    1    6 C      1-14, 16-39
    2   15 P      15
    3    1 H      40-119

          program call               : xtb C0993.xyz --opt --namespace C0993 --charge +1
          :  Hamiltonian                  GFN2-xTB          :
 * total energy  :  -124.3597421 Eh     change       -0.2256826E-09 Eh
 * total energy  :  -124.3670783 Eh     change       -0.7336173E-02 Eh
 * total energy  :  -124.3689023 Eh     change       -0.1823997E-02 Eh
 * total energy  :  -124.3692356 Eh     change       -0.3333268E-03 Eh
 * total energy  :  -124.3694862 Eh     change       -0.2506146E-03 Eh
 * total energy  :  -124.3696638 Eh     change       -0.1775266E-03 Eh
 * total energy  :  -124.3698720 Eh     change       -0.2082346E-03 Eh
 * total energy  :  -124.3700871 Eh     change       -0.2150567E-03 Eh
 * total energy  :  -124.3702852 Eh     change       -0.1981692E-03 Eh
 * total energy  :  -124.3704762 Eh     change       -0.1909697E-03 Eh
 * total energy  :  -124.3752047 Eh     change       -0.7958202E-05 Eh
 * total energy  :  -124.3752151 Eh     change       -0.1040101E-04 Eh
 * total energy  :  -124.3752264 Eh     change       -0.1132200E-04 Eh
 * total energy  :  -124.3752364 Eh     change       -0.9982875E-05 Eh
 * total energy  :  -124.3752451 Eh     change       -0.8754548E-05 Eh
 * total energy  :  -124.3752534 Eh     change       -0.8218832E-05 Eh
 * total energy  :  -124.3752604 Eh     change       -0.7080294E-05 Eh
 * total energy  :  -124.3752663 Eh     change       -0.5823971E-05 Eh
 * total energy  :  -124.3752687 Eh     change       -0.2426039E-05 Eh
   *** GEOMETRY OPTIMIZATION CONVERGED AFTER 94 ITERATIONS ***

 final structure:
================
119
 xtb: 6.7.1 (edcfbbe)
C            0.98502180945438        0.49068274815093        0.44588746662738
C            0.76076578713038        0.67402172263001       -1.05036996757579
C            0.74209746455831       -0.64513126295775       -1.82395184339164
C           -0.37483048387006       -1.61066881910573       -1.42273875277613
C           -1.79455632402542       -1.07379365586665       -1.61627196679594
C           -2.14659616284424       -0.67440173468572       -3.05105805671172
C           -1.95116202957881       -1.77675777914921       -4.09355492493687
C           -2.75099358566246       -3.05335040076257       -3.83044726214840
C           -4.26997150562038       -2.89006761722064       -3.90246845765627
C           -4.81621766857674       -2.43124727014822       -5.25886235544924
C           -4.29472323249979       -3.21384291064752       -6.46725649928865
C           -4.61755126291656       -4.71420061681024       -6.41694405396149
C           -5.77975118313535       -5.12148995151918       -7.32134298093566
C           -5.44558324030755       -5.09787579522322       -8.81973609922930
P           -4.71317792124187       -6.64287911402927       -9.48137810554880
C           -5.79988024839831       -8.04173185284538       -9.00667441189991
C           -7.31144194708654       -7.80670579714555       -9.07047383036436
C           -7.87802500164898       -7.59625629330563      -10.47402799286614
C           -7.76857942746674       -8.80727037140106      -11.40380382799056
C           -8.46292466007107      -10.07322544868449      -10.89420559207921
C           -9.95080188387521       -9.91440542161052      -10.57383415404424
C          -10.81610572544881       -9.44724042223825      -11.74540263618491
C          -10.82067055339414      -10.42356790587024      -12.91545104914901
C           -4.57704281112612       -6.60918111034191      -11.31737326538689
C           -4.78242261281246       -5.25407357785109      -11.99735967209546
C           -3.58105196562209       -4.31781716690308      -11.86697895865187
C           -2.39647161453004       -4.68450700856220      -12.76532832004888
C           -2.66608901329195       -4.58272636521817      -14.26881301248771
C           -3.12141749304000       -3.20683037657582      -14.75912965400494
C           -2.15233062113802       -2.06216453117415      -14.45872842303174
C           -0.78957847128787       -2.24068744862141      -15.11727908281429
C           -3.09149817497786       -7.17169871431385       -8.79538553835145
C           -1.83550975014268       -6.43459334461951       -9.26601701562706
C           -1.58828114607726       -5.09943045317503       -8.56132115359736
C           -0.98709958693079       -5.26003459689498       -7.16129363583025
C            0.52542553442036       -5.49295712884236       -7.16659954550399
C            1.35759147469541       -4.25629553392863       -7.51456278493086
C            1.23124939429566       -3.08884045097751       -6.53301751649742
C            1.66017595034794       -3.44032575765791       -5.11320829798725
H            0.14419464753022       -0.01809676123789        0.91032051398390
H            1.10191403567311        1.45752452586140        0.92974749698352
H            1.88489636974899       -0.09337598208537        0.62729404171287
H           -0.17288432241043        1.21458039494920       -1.21502350688150
H            1.56764506406829        1.29072612723343       -1.45407284031907
H            0.66328905401356       -0.42230333291648       -2.89056721361090
H            1.69834058627815       -1.15207519806187       -1.66790518497383
H           -0.25394731271389       -2.53143717463449       -1.99822932206343
H           -0.25284844949665       -1.87719133488917       -0.37142585030797
H           -2.49778944752252       -1.83468658900653       -1.26962591315188
H           -1.93753119184105       -0.20031672611874       -0.97789806786422
H           -3.18627591441706       -0.33962949824682       -3.06738403522386
H           -1.53344749239867        0.17977718491539       -3.34476500975564
H           -2.21867027411385       -1.37179431199577       -5.07265572180255
H           -0.89312797093929       -2.04065567440112       -4.13386042736668
H           -2.43769585474242       -3.81915369580380       -4.54445935258583
H           -2.49907974602309       -3.43052693828097       -2.83847572692025
H           -4.72502785334851       -3.84506339715361       -3.62685293634791
H           -4.58984921364317       -2.16672800399962       -3.15171218447168
H           -5.90650378116892       -2.49981242837407       -5.22878085842571
H           -4.56341440838629       -1.38027609021048       -5.40716632517268
H           -4.72921973519853       -2.76871128617635       -7.36600696367783
H           -3.21649092372922       -3.07081617184340       -6.53292516048763
H           -3.73513209397681       -5.29387509361305       -6.68247957923714
H           -4.88002321993319       -4.98568058970887       -5.39533711487028
H           -6.12137254454238       -6.11604269719159       -7.02864947864087
H           -6.60773518639899       -4.43081140755372       -7.14975411921700
H           -6.36432716972595       -4.96460345957971       -9.40035073714471
H           -4.78644705861367       -4.26030586975898       -9.05336783784166
H           -5.52072016288437       -8.88438420266379       -9.64573272470390
H           -5.52066459970677       -8.30863942746485       -7.98178599050925
H           -7.79622713998936       -8.67505535592937       -8.62219782359328
H           -7.57822709751973       -6.94425884912711       -8.45793785249972
H           -8.93221875339153       -7.33780400415753      -10.36981497050539
H           -7.38543490134301       -6.73782640403544      -10.94123075591455
H           -8.20036552705046       -8.52962880884602      -12.36626248673647
H           -6.71790852076264       -9.05199887271285      -11.58739810988706
H           -8.34571710212988      -10.84656631324489      -11.65438944947980
H           -7.95427155043173      -10.43518945837148       -9.99718382838888
H          -10.32249592529495      -10.88409814216117      -10.23567022524142
H          -10.07609074182961       -9.21626963561536       -9.74290548270883
H          -11.83904804268560       -9.33240340143557      -11.38067760433607
H          -10.48495268603668       -8.46564197202246      -12.09055237093006
H          -11.10610450735525      -11.41754224562177      -12.57927811055227
H          -11.53429553346340      -10.10114413188728      -13.66939561174128
H           -9.84173539563728      -10.48589017062909      -13.38433373207739
H           -3.59182050392196       -7.00811159305799      -11.57119645194517
H           -5.31766279791344       -7.32096934906243      -11.68790581346546
H           -4.97595309148022       -5.43536555332016      -13.05507329163829
H           -5.67176416295492       -4.76611636622311      -11.59366959025340
H           -3.89992367425187       -3.30468422617689      -12.11100748063284
H           -3.24239060109734       -4.31294670091788      -10.82676196465342
H           -1.56567062086111       -4.02549422387878      -12.51049757216493
H           -2.06756047333163       -5.70608991995790      -12.55467191050613
H           -1.74782670344312       -4.85720168497615      -14.78947377645677
H           -3.42143917199754       -5.31731616666556      -14.55851852983228
H           -3.25715313669398       -3.26911277392380      -15.84094742953008
H           -4.09644213310427       -2.96733997470473      -14.32827567572230
H           -2.60156620280222       -1.13771843549990      -14.82779909155752
H           -2.02468704072455       -1.95032999835496      -13.38002253511611
H           -0.90310630205538       -2.40554928216591      -16.18614383272726
H           -0.18388051090078       -1.34956203893673      -14.97264522902472
H           -0.25158867912608       -3.08514767590420      -14.69339082976156
H           -3.16659692588683       -7.15039335570316       -7.70580288697908
H           -3.02389971455038       -8.22485552570642       -9.09539243839487
H           -0.98014531660164       -7.08708684314916       -9.08112301281120
H           -1.88444164078079       -6.27322937528192      -10.34347094720167
H           -0.90346627795419       -4.50689922763759       -9.16826204931545
H           -2.52677290900128       -4.54497971346295       -8.49933578040010
H           -1.19738467486141       -4.36491325559472       -6.57630513623683
H           -1.46392848931598       -6.10008813501834       -6.64933147797212
H            0.82390577979532       -5.84933055797378       -6.18042865699346
H            0.76936107201549       -6.28337716796906       -7.88062218041157
H            2.40543793002268       -4.56117025224729       -7.55267111947427
H            1.09041477157918       -3.90103665466274       -8.51276759618261
H            1.86385903135178       -2.27780463265776       -6.89988153108332
H            0.20578909057522       -2.71320936293827       -6.52201192624420
H            2.65231039815948       -3.88553144150055       -5.11532515014982
H            1.69276947080964       -2.54420199042227       -4.49799917589266
H            0.96807370015514       -4.14080413235642       -4.65157815191377

          :  Hamiltonian                  GFN2-xTB          :
         :: total energy            -124.375268685129 Eh    ::
         :: gradient norm              0.000225558858 Eh/a0 ::
         :: HOMO-LUMO gap              4.485633565623 eV    ::
         :: SCC energy              -126.210262797562 Eh    ::
         :: -> dispersion             -0.113774530034 Eh    ::
         :: repulsion energy           1.834994112433 Eh    ::

    * Orbital Energies and Occupations

         #    Occupation            Energy/Eh            Energy/eV
      -------------------------------------------------------------
         1        2.0000           -0.8352810             -22.7292
       ...           ...                  ...                  ...
       106        2.0000           -0.4970567             -13.5256
       107        2.0000           -0.4958908             -13.4939
       108        2.0000           -0.4938016             -13.4370
       109        2.0000           -0.4934768             -13.4282
       110        2.0000           -0.4921244             -13.3914
       111        2.0000           -0.4906553             -13.3514
       112        2.0000           -0.4903585             -13.3433
       113        2.0000           -0.4825975             -13.1321
       114        2.0000           -0.4805761             -13.0771
       115        2.0000           -0.4757836             -12.9467
       116        2.0000           -0.4665534             -12.6956
       117        2.0000           -0.4612287             -12.5507
       118        2.0000           -0.4595655             -12.5054 (HOMO)
       119                         -0.2947215              -8.0198 (LUMO)
       120                         -0.2771719              -7.5422
       121                         -0.2595362              -7.0623
       122                         -0.1897692              -5.1639
       123                         -0.1110366              -3.0215
       124                         -0.0710348              -1.9330
       125                         -0.0514211              -1.3992
       126                         -0.0470674              -1.2808
       127                         -0.0450493              -1.2259
       128                         -0.0397737              -1.0823
       129                         -0.0350749              -0.9544
       ...                                ...                  ...
       241                          0.8101624              22.0456
      -------------------------------------------------------------
                  HL-Gap            0.1648440 Eh            4.4856 eV

     #   Z          covCN         q      C6AA      α(0)
     1   6 C        3.751    -0.102    22.514     6.767
     2   6 C        3.799    -0.052    21.516     6.604
     3   6 C        3.800    -0.056    21.577     6.614
     4   6 C        3.800    -0.057    21.604     6.618
     5   6 C        3.800    -0.057    21.604     6.618
     6   6 C        3.800    -0.057    21.605     6.618
     7   6 C        3.800    -0.057    21.599     6.617
     8   6 C        3.800    -0.058    21.610     6.619
     9   6 C        3.800    -0.059    21.635     6.623
    10   6 C        3.800    -0.060    21.659     6.626
    11   6 C        3.800    -0.061    21.667     6.628
    12   6 C        3.801    -0.070    21.831     6.652
    13   6 C        3.845    -0.063    21.668     6.621
    14   6 C        3.749    -0.066    21.833     6.664
    15  15 P        3.878     0.181   152.423    22.178
    16   6 C        3.749    -0.078    22.057     6.698
    17   6 C        3.835    -0.065    21.713     6.629
    18   6 C        3.800    -0.064    21.729     6.637
    19   6 C        3.800    -0.059    21.631     6.622
    20   6 C        3.800    -0.060    21.663     6.627
    21   6 C        3.800    -0.061    21.665     6.627
    22   6 C        3.799    -0.054    21.546     6.609
    23   6 C        3.751    -0.105    22.564     6.774
    24   6 C        3.750    -0.077    22.029     6.694
    25   6 C        3.836    -0.063    21.680     6.624
    26   6 C        3.800    -0.065    21.746     6.640
    27   6 C        3.800    -0.059    21.629     6.622
    28   6 C        3.800    -0.061    21.670     6.628
    29   6 C        3.800    -0.061    21.665     6.627
    30   6 C        3.799    -0.054    21.544     6.609
    31   6 C        3.751    -0.105    22.565     6.774
    32   6 C        3.749    -0.073    21.966     6.684
    33   6 C        3.831    -0.064    21.699     6.628
    34   6 C        3.801    -0.064    21.720     6.635
    35   6 C        3.800    -0.059    21.643     6.624
    36   6 C        3.800    -0.062    21.684     6.630
    37   6 C        3.800    -0.060    21.656     6.626
    38   6 C        3.799    -0.053    21.535     6.607
    39   6 C        3.751    -0.103    22.531     6.769
    40   1 H        0.925     0.035     2.523     2.484
    41   1 H        0.925     0.033     2.539     2.492
    42   1 H        0.925     0.034     2.531     2.488
    43   1 H        0.924     0.031     2.573     2.508
    44   1 H        0.924     0.027     2.624     2.533
    45   1 H        0.924     0.025     2.655     2.548
    46   1 H        0.924     0.027     2.624     2.533
    47   1 H        0.924     0.026     2.647     2.544
    48   1 H        0.924     0.034     2.537     2.491
    49   1 H        0.924     0.026     2.642     2.542
    50   1 H        0.924     0.035     2.520     2.483
    51   1 H        0.924     0.027     2.631     2.537
    52   1 H        0.924     0.033     2.545     2.495
    53   1 H        0.924     0.022     2.696     2.568
    54   1 H        0.924     0.036     2.504     2.475
    55   1 H        0.924     0.021     2.723     2.580
    56   1 H        0.924     0.038     2.478     2.462
    57   1 H        0.924     0.022     2.697     2.568
    58   1 H        0.924     0.042     2.423     2.434
    59   1 H        0.924     0.029     2.602     2.523
    60   1 H        0.924     0.040     2.446     2.446
    61   1 H        0.924     0.025     2.657     2.549
    62   1 H        0.925     0.041     2.442     2.444
    63   1 H        0.925     0.037     2.495     2.470
    64   1 H        0.925     0.058     2.226     2.333
    65   1 H        0.924     0.047     2.359     2.402
    66   1 H        0.924     0.063     2.160     2.298
    67   1 H        0.929     0.088     1.899     2.155
    68   1 H        0.926     0.095     1.835     2.118
    69   1 H        0.927     0.085     1.925     2.170
    70   1 H        0.927     0.078     1.996     2.209
    71   1 H        0.924     0.067     2.116     2.275
    72   1 H        0.924     0.049     2.337     2.391
    73   1 H        0.924     0.057     2.232     2.336
    74   1 H        0.924     0.027     2.627     2.534
    75   1 H        0.924     0.046     2.367     2.406
    76   1 H        0.924     0.016     2.795     2.614
    77   1 H        0.924     0.044     2.392     2.419
    78   1 H        0.924     0.025     2.658     2.549
    79   1 H        0.924     0.039     2.459     2.452
    80   1 H        0.924     0.026     2.639     2.540
    81   1 H        0.924     0.035     2.518     2.481
    82   1 H        0.924     0.027     2.622     2.532
    83   1 H        0.925     0.039     2.457     2.451
    84   1 H        0.925     0.039     2.467     2.456
    85   1 H        0.925     0.033     2.548     2.496
    86   1 H        0.926     0.089     1.893     2.152
    87   1 H        0.927     0.090     1.878     2.143
    88   1 H        0.924     0.069     2.101     2.267
    89   1 H        0.924     0.042     2.417     2.431
    90   1 H        0.925     0.055     2.258     2.350
    91   1 H        0.924     0.032     2.561     2.503
    92   1 H        0.924     0.046     2.373     2.409
    93   1 H        0.924     0.020     2.739     2.588
    94   1 H        0.924     0.045     2.387     2.416
    95   1 H        0.924     0.026     2.648     2.545
    96   1 H        0.924     0.039     2.461     2.453
    97   1 H        0.924     0.026     2.643     2.542
    98   1 H        0.924     0.034     2.526     2.485
    99   1 H        0.924     0.027     2.629     2.536
   100   1 H        0.925     0.039     2.457     2.451
   101   1 H        0.925     0.038     2.476     2.461
   102   1 H        0.925     0.033     2.545     2.495
   103   1 H        0.926     0.089     1.890     2.150
   104   1 H        0.929     0.081     1.973     2.196
   105   1 H        0.924     0.064     2.154     2.295
   106   1 H        0.924     0.050     2.320     2.382
   107   1 H        0.925     0.053     2.287     2.365
   108   1 H        0.924     0.032     2.559     2.502
   109   1 H        0.925     0.046     2.376     2.410
   110   1 H        0.924     0.022     2.704     2.572
   111   1 H        0.924     0.044     2.400     2.422
   112   1 H        0.924     0.027     2.623     2.533
   113   1 H        0.924     0.038     2.471     2.458
   114   1 H        0.924     0.026     2.649     2.545
   115   1 H        0.924     0.034     2.526     2.485
   116   1 H        0.924     0.027     2.629     2.535
   117   1 H        0.925     0.038     2.472     2.459
   118   1 H        0.925     0.038     2.474     2.460
   119   1 H        0.925     0.032     2.559     2.502

Wiberg/Mayer (AO) data.
largest (>0.10) Wiberg bond orders for each atom

     #   Z sym  total        # sym  WBO       # sym  WBO       # sym  WBO
 ---------------------------------------------------------------------------
     1   6 C    3.997 --     2 C    1.020    42 H    0.988    41 H    0.987
                            40 H    0.986
     2   6 C    3.998 --     1 C    1.020     3 C    1.008    44 H    0.978
                            43 H    0.976
     3   6 C    3.998 --     2 C    1.008     4 C    1.008    46 H    0.977
                            45 H    0.975
     4   6 C    3.998 --     5 C    1.008     3 C    1.008    48 H    0.975
                            47 H    0.975
     5   6 C    3.997 --     4 C    1.008     6 C    1.008    49 H    0.975
                            50 H    0.974
     6   6 C    3.997 --     5 C    1.008     7 C    1.008    51 H    0.976
                            52 H    0.975
     7   6 C    3.998 --     8 C    1.008     6 C    1.008    53 H    0.975
                            54 H    0.973
     8   6 C    3.997 --     9 C    1.008     7 C    1.008    55 H    0.973
                            56 H    0.973
     9   6 C    3.996 --     8 C    1.008    10 C    1.007    58 H    0.973
                            57 H    0.973
    10   6 C    3.996 --    11 C    1.007     9 C    1.007    59 H    0.978
                            60 H    0.976
    11   6 C    3.996 --    10 C    1.007    12 C    1.003    61 H    0.974
                            62 H    0.973
    12   6 C    3.992 --    13 C    1.008    11 C    1.003    64 H    0.968
                            63 H    0.966
    13   6 C    3.987 --    12 C    1.008    14 C    0.983    66 H    0.970
                            65 H    0.964
    14   6 C    3.984 --    15 P    0.999    13 C    0.983    68 H    0.931
                            67 H    0.926
    15  15 P    4.541 --    16 C    1.009    32 C    1.001    14 C    0.999
                            24 C    0.992
    16   6 C    3.989 --    15 P    1.009    17 C    0.990    70 H    0.936
                            69 H    0.933
    17   6 C    3.986 --    18 C    1.008    16 C    0.990    72 H    0.968
                            71 H    0.965
    18   6 C    3.994 --    17 C    1.008    19 C    1.007    73 H    0.971
                            74 H    0.964
    19   6 C    3.996 --    18 C    1.007    20 C    1.006    75 H    0.974
                            76 H    0.970
    20   6 C    3.996 --    21 C    1.008    19 C    1.006    78 H    0.975
                            77 H    0.974
    21   6 C    3.996 --    22 C    1.008    20 C    1.008    79 H    0.976
                            80 H    0.976
    22   6 C    3.998 --    23 C    1.020    21 C    1.008    81 H    0.978
                            82 H    0.976
    23   6 C    3.996 --    22 C    1.020    83 H    0.987    84 H    0.987
                            85 H    0.986
    24   6 C    3.985 --    15 P    0.992    25 C    0.991    87 H    0.931
                            86 H    0.931
    25   6 C    3.988 --    26 C    1.007    24 C    0.991    89 H    0.968
                            88 H    0.964
    26   6 C    3.994 --    25 C    1.007    27 C    1.007    90 H    0.971
                            91 H    0.962
    27   6 C    3.996 --    26 C    1.007    28 C    1.007    92 H    0.973
                            93 H    0.971
    28   6 C    3.995 --    29 C    1.008    27 C    1.007    94 H    0.974
                            95 H    0.974
    29   6 C    3.997 --    30 C    1.008    28 C    1.008    96 H    0.976
                            97 H    0.976
    30   6 C    3.998 --    31 C    1.020    29 C    1.008    98 H    0.978
                            99 H    0.976
    31   6 C    3.996 --    30 C    1.020   100 H    0.987   101 H    0.987
                           102 H    0.986
    32   6 C    3.986 --    15 P    1.001    33 C    0.992   103 H    0.931
                           104 H    0.929
    33   6 C    3.985 --    34 C    1.007    32 C    0.992   105 H    0.965
                           106 H    0.962
    34   6 C    3.994 --    33 C    1.007    35 C    1.006   107 H    0.970
                           108 H    0.965
    35   6 C    3.995 --    36 C    1.007    34 C    1.006   110 H    0.973
                           109 H    0.968
    36   6 C    3.996 --    37 C    1.008    35 C    1.007   112 H    0.974
                           111 H    0.974
    37   6 C    3.996 --    36 C    1.008    38 C    1.008   113 H    0.976
                           114 H    0.974
    38   6 C    3.997 --    39 C    1.020    37 C    1.008   115 H    0.978
                           116 H    0.974
    39   6 C    3.996 --    38 C    1.020   117 H    0.987   119 H    0.986
                           118 H    0.985
    40   1 H    0.999 --     1 C    0.986
    41   1 H    0.999 --     1 C    0.987
    42   1 H    0.999 --     1 C    0.988
    43   1 H    0.999 --     2 C    0.976
    44   1 H    0.999 --     2 C    0.978
    45   1 H    0.999 --     3 C    0.975
    46   1 H    0.999 --     3 C    0.977
    47   1 H    0.999 --     4 C    0.975
    48   1 H    0.999 --     4 C    0.975
    49   1 H    0.999 --     5 C    0.975
    50   1 H    0.999 --     5 C    0.974
    51   1 H    0.999 --     6 C    0.976
    52   1 H    0.999 --     6 C    0.975
    53   1 H    0.999 --     7 C    0.975
    54   1 H    0.999 --     7 C    0.973
    55   1 H    1.000 --     8 C    0.973
    56   1 H    0.999 --     8 C    0.973
    57   1 H    0.999 --     9 C    0.973
    58   1 H    0.998 --     9 C    0.973
    59   1 H    0.999 --    10 C    0.978
    60   1 H    0.998 --    10 C    0.976
    61   1 H    0.999 --    11 C    0.974
    62   1 H    0.998 --    11 C    0.973
    63   1 H    0.999 --    12 C    0.966
    64   1 H    0.996 --    12 C    0.968
    65   1 H    0.998 --    13 C    0.964
    66   1 H    0.996 --    13 C    0.970
    67   1 H    0.992 --    14 C    0.926
    68   1 H    0.991 --    14 C    0.931
    69   1 H    0.993 --    16 C    0.933
    70   1 H    0.994 --    16 C    0.936
    71   1 H    0.995 --    17 C    0.965
    72   1 H    0.998 --    17 C    0.968
    73   1 H    0.997 --    18 C    0.971
    74   1 H    0.999 --    18 C    0.964
    75   1 H    0.998 --    19 C    0.974
    76   1 H    1.000 --    19 C    0.970
    77   1 H    0.998 --    20 C    0.974
    78   1 H    0.999 --    20 C    0.975
    79   1 H    0.998 --    21 C    0.976
    80   1 H    0.999 --    21 C    0.976
    81   1 H    0.999 --    22 C    0.978
    82   1 H    0.999 --    22 C    0.976
    83   1 H    0.998 --    23 C    0.987
    84   1 H    0.998 --    23 C    0.987
    85   1 H    0.999 --    23 C    0.986
    86   1 H    0.992 --    24 C    0.931
    87   1 H    0.992 --    24 C    0.931
    88   1 H    0.995 --    25 C    0.964
    89   1 H    0.998 --    25 C    0.968
    90   1 H    0.997 --    26 C    0.971
    91   1 H    0.999 --    26 C    0.962
    92   1 H    0.998 --    27 C    0.973
    93   1 H    1.000 --    27 C    0.971
    94   1 H    0.998 --    28 C    0.974
    95   1 H    0.999 --    28 C    0.974
    96   1 H    0.998 --    29 C    0.976
    97   1 H    0.999 --    29 C    0.976
    98   1 H    0.999 --    30 C    0.978
    99   1 H    0.999 --    30 C    0.976
   100   1 H    0.998 --    31 C    0.987
   101   1 H    0.999 --    31 C    0.987
   102   1 H    0.999 --    31 C    0.986
   103   1 H    0.992 --    32 C    0.931
   104   1 H    0.993 --    32 C    0.929
   105   1 H    0.995 --    33 C    0.965
   106   1 H    0.997 --    33 C    0.962
   107   1 H    0.997 --    34 C    0.970
   108   1 H    0.999 --    34 C    0.965
   109   1 H    0.998 --    35 C    0.968
   110   1 H    0.999 --    35 C    0.973
   111   1 H    0.998 --    36 C    0.974
   112   1 H    0.999 --    36 C    0.974
   113   1 H    0.998 --    37 C    0.976
   114   1 H    0.999 --    37 C    0.974
   115   1 H    0.999 --    38 C    0.978
   116   1 H    0.999 --    38 C    0.974
   117   1 H    0.999 --    39 C    0.987
   118   1 H    0.999 --    39 C    0.985
   119   1 H    0.999 --    39 C    0.986
 ---------------------------------------------------------------------------

molecular dipole:
                 x           y           z       tot (Debye)
 q only:       -8.637     -11.833     -17.771
   full:       -8.704     -12.039     -17.802      58.933

           -------------------------------------------------
          | TOTAL ENERGY             -124.375268685129 Eh   |
          | GRADIENT NORM               0.000225558858 Eh/α |
          | HOMO-LUMO GAP               4.485633565623 eV   |
           -------------------------------------------------

 * finished run on 2024/12/20 at 07:07:52.409
