   * xtb version 6.7.1 (edcfbbe) compiled by 'conda@3ef47c1a292c' on 2024-11-25

   ID    Z sym.   atoms
    1    6 C      1-4, 6-12
    2    7 N      5
    3    1 H      13-30

          program call               : xtb C0998.xyz --opt --namespace C0998 --charge +1
          :  Hamiltonian                  GFN2-xTB          :
 * total energy  :   -35.2774075 Eh     change       -0.7342038E-10 Eh
 * total energy  :   -35.2799133 Eh     change       -0.2505767E-02 Eh
 * total energy  :   -35.2803638 Eh     change       -0.4505309E-03 Eh
 * total energy  :   -35.2804534 Eh     change       -0.8962262E-04 Eh
 * total energy  :   -35.2805457 Eh     change       -0.9229829E-04 Eh
 * total energy  :   -35.2806060 Eh     change       -0.6028918E-04 Eh
 * total energy  :   -35.2806764 Eh     change       -0.7040156E-04 Eh
 * total energy  :   -35.2807514 Eh     change       -0.7495424E-04 Eh
 * total energy  :   -35.2808038 Eh     change       -0.5243001E-04 Eh
 * total energy  :   -35.2808242 Eh     change       -0.2033591E-04 Eh
 * total energy  :   -35.2811318 Eh     change       -0.1298013E-04 Eh
 * total energy  :   -35.2811470 Eh     change       -0.1519989E-04 Eh
 * total energy  :   -35.2811446 Eh     change        0.2443286E-05 Eh
 * total energy  :   -35.2811763 Eh     change       -0.3175330E-04 Eh
 * total energy  :   -35.2811836 Eh     change       -0.7255694E-05 Eh
 * total energy  :   -35.2811883 Eh     change       -0.4706414E-05 Eh
 * total energy  :   -35.2811955 Eh     change       -0.7242365E-05 Eh
 * total energy  :   -35.2812015 Eh     change       -0.5966898E-05 Eh
 * total energy  :   -35.2812055 Eh     change       -0.4031496E-05 Eh
   *** GEOMETRY OPTIMIZATION CONVERGED AFTER 41 ITERATIONS ***

 final structure:
================
30
 xtb: 6.7.1 (edcfbbe)
C            1.20507773086540       -0.47370192345228       -0.50775203187679
C            0.60127134772385       -1.72425322074579        0.12115437991928
C            0.91547019703767       -1.86276041366082        1.61085934830876
C            0.23936705160089       -0.80280626553669        2.49261466579930
N           -1.20244016499419       -0.97865614809758        2.49513337065768
C           -1.96058455865726       -0.29085483309013        1.63798478574637
C           -3.33282586743181       -0.48677880963587        1.56031211897483
C           -4.16398985714020        0.27975302489844        0.59261414169443
C           -3.89982241550976       -1.43040931917573        2.41350237354179
C           -3.10783312960735       -2.14718130623020        3.30820264646424
C           -1.74509269807018       -1.88772088978040        3.30986584904214
C           -3.69760024421945       -3.14142779012906        4.24543566542723
H            0.78422977171178        0.44138906150464       -0.09650090132865
H            1.02002111316075       -0.47152126693820       -1.57809491979409
H            2.28042891649344       -0.45320921453624       -0.35163999929102
H           -0.48026513119553       -1.74195598035323       -0.04104270885809
H            1.01323971963257       -2.59741382046386       -0.38590813124221
H            0.61523644930931       -2.85468952557730        1.95507923480829
H            1.99202479417225       -1.77170340251285        1.75737640929359
H            0.60545896522559       -0.89296959726403        3.51692924940558
H            0.47780785736519        0.19483176726553        2.12397245843674
H           -1.46701379776393        0.43381453543502        1.00848559609248
H           -3.58335180230733        1.04104314513082        0.08183264215477
H           -4.58396478363297       -0.39447698965596       -0.15209861258337
H           -4.99845216072920        0.75509987563229        1.10342299455259
H           -4.96465538075958       -1.60626633228677        2.38262831467651
H           -1.07809951704914       -2.41207087920313        3.97780141308933
H           -2.94857680215975       -3.83708304453717        4.61078182051782
H           -4.12722929456566       -2.62512011564880        5.10344281195945
H           -4.49860630850662       -3.69650032135525        3.76488501440923

          :  Hamiltonian                  GFN2-xTB          :
         :: total energy             -35.281205520913 Eh    ::
         :: gradient norm              0.000881845492 Eh/a0 ::
         :: HOMO-LUMO gap              2.996419787232 eV    ::
         :: SCC energy               -35.865140546818 Eh    ::
         :: -> dispersion             -0.022920345443 Eh    ::
         :: repulsion energy           0.583935025905 Eh    ::

    * Orbital Energies and Occupations

         #    Occupation            Energy/Eh            Energy/eV
      -------------------------------------------------------------
         1        2.0000           -0.8642234             -23.5167
       ...           ...                  ...                  ...
        21        2.0000           -0.6311877             -17.1755
        22        2.0000           -0.6183899             -16.8272
        23        2.0000           -0.6181664             -16.8212
        24        2.0000           -0.6133363             -16.6897
        25        2.0000           -0.6032503             -16.4153
        26        2.0000           -0.6015420             -16.3688
        27        2.0000           -0.5951743             -16.1955
        28        2.0000           -0.5909584             -16.0808
        29        2.0000           -0.5808945             -15.8069
        30        2.0000           -0.5757015             -15.6656
        31        2.0000           -0.5654304             -15.3861
        32        2.0000           -0.5571664             -15.1613
        33        2.0000           -0.5512667             -15.0007 (HOMO)
        34                         -0.4411503             -12.0043 (LUMO)
        35                         -0.4053511             -11.0302
        36                         -0.2920165              -7.9462
        37                         -0.1609859              -4.3806
        38                         -0.0753021              -2.0491
        39                         -0.0605050              -1.6464
        40                         -0.0458265              -1.2470
        41                         -0.0397790              -1.0824
        42                         -0.0261510              -0.7116
        43                         -0.0049178              -0.1338
        44                         -0.0007762              -0.0211
       ...                                ...                  ...
        66                          0.4396358              11.9631
      -------------------------------------------------------------
                  HL-Gap            0.1101164 Eh            2.9964 eV

     #   Z          covCN         q      C6AA      α(0)
     1   6 C        3.752    -0.113    22.725     6.798
     2   6 C        3.800    -0.061    21.674     6.629
     3   6 C        3.802    -0.069    21.829     6.652
     4   6 C        3.761    -0.033    21.210     6.565
     5   7 N        2.747     0.103    19.469     6.553
     6   6 C        2.898     0.012    27.736     8.635
     7   6 C        2.959     0.043    27.027     8.527
     8   6 C        3.759    -0.131    23.073     6.848
     9   6 C        2.936    -0.020    28.495     8.755
    10   6 C        2.959     0.044    27.010     8.524
    11   6 C        2.901     0.011    27.780     8.642
    12   6 C        3.759    -0.132    23.078     6.849
    13   1 H        0.925     0.030     2.585     2.514
    14   1 H        0.925     0.055     2.256     2.349
    15   1 H        0.925     0.053     2.282     2.362
    16   1 H        0.924     0.029     2.605     2.524
    17   1 H        0.924     0.061     2.190     2.314
    18   1 H        0.924     0.052     2.296     2.370
    19   1 H        0.924     0.079     1.994     2.208
    20   1 H        0.924     0.086     1.922     2.168
    21   1 H        0.925     0.092     1.856     2.130
    22   1 H        0.926     0.100     1.783     2.088
    23   1 H        0.925     0.075     2.034     2.230
    24   1 H        0.925     0.093     1.850     2.127
    25   1 H        0.925     0.091     1.870     2.138
    26   1 H        0.926     0.094     1.840     2.121
    27   1 H        0.926     0.097     1.811     2.105
    28   1 H        0.925     0.077     2.013     2.219
    29   1 H        0.925     0.095     1.835     2.119
    30   1 H        0.925     0.088     1.901     2.156

Wiberg/Mayer (AO) data.
largest (>0.10) Wiberg bond orders for each atom

     #   Z sym  total        # sym  WBO       # sym  WBO       # sym  WBO
 ---------------------------------------------------------------------------
     1   6 C    3.993 --     2 C    1.021    15 H    0.986    14 H    0.985
                            13 H    0.983
     2   6 C    3.994 --     1 C    1.021     3 C    1.009    16 H    0.974
                            17 H    0.971
     3   6 C    3.983 --     2 C    1.009     4 C    0.977    18 H    0.974
                            19 H    0.965
     4   6 C    3.936 --     3 C    0.977     5 N    0.965    20 H    0.963
                            21 H    0.961
     5   7 N    3.763 --     6 C    1.327    11 C    1.326     4 C    0.965
     6   6 C    3.958 --     7 C    1.400     5 N    1.327    22 H    0.953
     7   6 C    3.983 --     6 C    1.400     9 C    1.396     8 C    1.043
     8   6 C    3.983 --     7 C    1.043    23 H    0.981    25 H    0.958
                            24 H    0.951
     9   6 C    3.980 --     7 C    1.396    10 C    1.392    26 H    0.961
    10   6 C    3.982 --    11 C    1.407     9 C    1.392    12 C    1.043
    11   6 C    3.960 --    10 C    1.407     5 N    1.326    27 H    0.955
    12   6 C    3.983 --    10 C    1.043    28 H    0.977    30 H    0.967
                            29 H    0.946
    13   1 H    0.999 --     1 C    0.983
    14   1 H    0.997 --     1 C    0.985
    15   1 H    0.997 --     1 C    0.986
    16   1 H    0.999 --     2 C    0.974
    17   1 H    0.996 --     2 C    0.971
    18   1 H    0.997 --     3 C    0.974
    19   1 H    0.992 --     3 C    0.965
    20   1 H    0.992 --     4 C    0.963
    21   1 H    0.991 --     4 C    0.961
    22   1 H    0.989 --     6 C    0.953
    23   1 H    0.994 --     8 C    0.981
    24   1 H    0.991 --     8 C    0.951
    25   1 H    0.991 --     8 C    0.958
    26   1 H    0.991 --     9 C    0.961
    27   1 H    0.990 --    11 C    0.955
    28   1 H    0.994 --    12 C    0.977
    29   1 H    0.991 --    12 C    0.946
    30   1 H    0.992 --    12 C    0.967
 ---------------------------------------------------------------------------

molecular dipole:
                 x           y           z       tot (Debye)
 q only:       -3.645      -2.288       4.294
   full:       -3.625      -2.259       4.374      15.539

           -------------------------------------------------
          | TOTAL ENERGY              -35.281205520913 Eh   |
          | GRADIENT NORM               0.000881845492 Eh/α |
          | HOMO-LUMO GAP               2.996419787232 eV   |
           -------------------------------------------------

 * finished run on 2024/12/20 at 07:08:02.234
