   * xtb version 6.7.1 (edcfbbe) compiled by 'conda@3ef47c1a292c' on 2024-11-25

   ID    Z sym.   atoms
    1    6 C      1, 2, 4-9
    2   15 P      3
    3    1 H      10-29

          program call               : xtb C0991.xyz --opt --namespace C0991 --charge +1
          :  Hamiltonian                  GFN2-xTB          :
 * total energy  :   -29.4509599 Eh     change       -0.5093241E-09 Eh
 * total energy  :   -29.4557973 Eh     change       -0.4837434E-02 Eh
 * total energy  :   -29.4570187 Eh     change       -0.1221394E-02 Eh
 * total energy  :   -29.4571271 Eh     change       -0.1083375E-03 Eh
 * total energy  :   -29.4571548 Eh     change       -0.2770637E-04 Eh
 * total energy  :   -29.4571919 Eh     change       -0.3709593E-04 Eh
 * total energy  :   -29.4571957 Eh     change       -0.3870393E-05 Eh
 * total energy  :   -29.4572256 Eh     change       -0.2980681E-04 Eh
 * total energy  :   -29.4573061 Eh     change       -0.8055729E-04 Eh
 * total energy  :   -29.4573416 Eh     change       -0.3550741E-04 Eh
 * total energy  :   -29.4573659 Eh     change       -0.2425156E-04 Eh
 * total energy  :   -29.4573876 Eh     change       -0.2168105E-04 Eh
 * total energy  :   -29.4573934 Eh     change       -0.5843094E-05 Eh
 * total energy  :   -29.4573962 Eh     change       -0.2848451E-05 Eh
   *** GEOMETRY OPTIMIZATION CONVERGED AFTER 14 ITERATIONS ***

 final structure:
================
29
 xtb: 6.7.1 (edcfbbe)
C            0.98681501380095       -0.10768263212767       -0.05862606735378
C            0.61280818790649       -0.46862363568613        1.37613734048923
P            1.15094999704072        0.79747345190600        2.57585547206962
C            0.60471642574102        2.45678493902285        2.04510463322785
C           -0.91203419714413        2.58846156103047        1.94813752351121
C            0.39309907991393        0.44399110714688        4.20073474152361
C            0.92204103489951       -0.81882189052441        4.87282920698332
C            2.97688052711987        0.85956729761105        2.70308572182681
C            3.67148641513978       -0.48918463356453        2.53692476775554
H            0.43890775607799        0.76570629178742       -0.40278809625085
H            0.74005344573291       -0.93526629798792       -0.71881572905459
H            2.05162411132176        0.09222880818411       -0.15506118860450
H           -0.47002020332410       -0.58252654483324        1.47798667129010
H            1.07615814748372       -1.41458738284079        1.66861391649196
H            1.00767236790293        3.17527863464739        2.76544132959440
H            1.07169752047209        2.66027629985009        1.07721124978278
H           -1.38363109647653        2.46909060681516        2.92015469818271
H           -1.16694299361841        3.57728760573946        1.57544911610267
H           -1.33219283276211        1.85567130946009        1.26324898142613
H            0.57432995059300        1.31724935475113        4.83505253442329
H           -0.68547441307389        0.36045981264212        4.03999649914488
H            1.97769382336176       -0.72562799727358        5.11447044632870
H            0.38375217907342       -0.98348215829843        5.80297945589383
H            0.77668395995817       -1.69469352561815        4.24482698126953
H            3.33148794327720        1.56009752853986        1.94191907387020
H            3.20696693970612        1.29148949643642        3.68150836652602
H            3.52314043092621       -0.89183597454629        1.53861288022579
H            4.74096075348990       -0.35976086998128        2.68509712002371
H            3.32048972545978       -1.21869056228793        3.26132235329982

          :  Hamiltonian                  GFN2-xTB          :
         :: total energy             -29.457396245109 Eh    ::
         :: gradient norm              0.000589179712 Eh/a0 ::
         :: HOMO-LUMO gap              7.722629244311 eV    ::
         :: SCC energy               -29.896312091146 Eh    ::
         :: -> dispersion             -0.021791314066 Eh    ::
         :: repulsion energy           0.438915846038 Eh    ::

    * Orbital Energies and Occupations

         #    Occupation            Energy/Eh            Energy/eV
      -------------------------------------------------------------
         1        2.0000           -0.8560111             -23.2932
       ...           ...                  ...                  ...
        16        2.0000           -0.6428489             -17.4928
        17        2.0000           -0.6347933             -17.2736
        18        2.0000           -0.6271359             -17.0652
        19        2.0000           -0.6206570             -16.8889
        20        2.0000           -0.6172240             -16.7955
        21        2.0000           -0.6117502             -16.6466
        22        2.0000           -0.6023869             -16.3918
        23        2.0000           -0.5980055             -16.2726
        24        2.0000           -0.5923512             -16.1187
        25        2.0000           -0.5911374             -16.0857
        26        2.0000           -0.5804110             -15.7938
        27        2.0000           -0.5788221             -15.7506
        28        2.0000           -0.5767139             -15.6932 (HOMO)
        29                         -0.2929125              -7.9706 (LUMO)
        30                         -0.2822177              -7.6795
        31                         -0.2789908              -7.5917
        32                         -0.1973527              -5.3702
        33                         -0.1201899              -3.2705
        34                         -0.0839754              -2.2851
        35                         -0.0425967              -1.1591
        36                         -0.0365184              -0.9937
        37                         -0.0287129              -0.7813
        38                         -0.0233264              -0.6347
        39                         -0.0184393              -0.5018
       ...                                ...                  ...
        61                          0.7550787              20.5467
      -------------------------------------------------------------
                  HL-Gap            0.2838014 Eh            7.7226 eV

     #   Z          covCN         q      C6AA      α(0)
     1   6 C        3.826    -0.117    22.721     6.783
     2   6 C        3.749    -0.067    21.850     6.667
     3  15 P        3.985     0.184   152.304    22.169
     4   6 C        3.749    -0.073    21.965     6.684
     5   6 C        3.818    -0.118    22.742     6.787
     6   6 C        3.749    -0.071    21.918     6.677
     7   6 C        3.810    -0.117    22.727     6.786
     8   6 C        3.749    -0.069    21.894     6.674
     9   6 C        3.804    -0.118    22.755     6.791
    10   1 H        0.925     0.065     2.143     2.289
    11   1 H        0.925     0.078     2.004     2.214
    12   1 H        0.925     0.063     2.167     2.302
    13   1 H        0.926     0.093     1.851     2.128
    14   1 H        0.927     0.097     1.814     2.106
    15   1 H        0.927     0.091     1.873     2.140
    16   1 H        0.927     0.094     1.839     2.121
    17   1 H        0.925     0.063     2.168     2.303
    18   1 H        0.925     0.079     1.988     2.205
    19   1 H        0.925     0.064     2.158     2.297
    20   1 H        0.927     0.092     1.861     2.133
    21   1 H        0.927     0.094     1.843     2.123
    22   1 H        0.925     0.065     2.142     2.289
    23   1 H        0.925     0.078     1.995     2.209
    24   1 H        0.925     0.061     2.182     2.310
    25   1 H        0.926     0.091     1.870     2.138
    26   1 H        0.927     0.093     1.852     2.128
    27   1 H        0.925     0.065     2.138     2.287
    28   1 H        0.925     0.077     2.006     2.215
    29   1 H        0.925     0.065     2.144     2.290

Wiberg/Mayer (AO) data.
largest (>0.10) Wiberg bond orders for each atom

     #   Z sym  total        # sym  WBO       # sym  WBO       # sym  WBO
 ---------------------------------------------------------------------------
     1   6 C    3.985 --     2 C    1.000    10 H    0.979    11 H    0.978
                            12 H    0.977
     2   6 C    3.988 --     3 P    1.009     1 C    1.000    13 H    0.935
                            14 H    0.931
     3  15 P    4.562 --     4 C    1.013     6 C    1.010     2 C    1.009
                             8 C    1.006
     4   6 C    3.989 --     3 P    1.013     5 C    1.002    15 H    0.935
                            16 H    0.934
     5   6 C    3.983 --     4 C    1.002    17 H    0.980    19 H    0.978
                            18 H    0.977
     6   6 C    3.989 --     3 P    1.010     7 C    1.001    20 H    0.935
                            21 H    0.933
     7   6 C    3.985 --     6 C    1.001    24 H    0.979    22 H    0.978
                            23 H    0.977
     8   6 C    3.988 --     3 P    1.006     9 C    1.001    25 H    0.937
                            26 H    0.934
     9   6 C    3.982 --     8 C    1.001    27 H    0.979    29 H    0.977
                            28 H    0.977
    10   1 H    0.996 --     1 C    0.979
    11   1 H    0.994 --     1 C    0.978
    12   1 H    0.996 --     1 C    0.977
    13   1 H    0.991 --     2 C    0.935
    14   1 H    0.991 --     2 C    0.931
    15   1 H    0.992 --     4 C    0.935
    16   1 H    0.991 --     4 C    0.934
    17   1 H    0.996 --     5 C    0.980
    18   1 H    0.993 --     5 C    0.977
    19   1 H    0.996 --     5 C    0.978
    20   1 H    0.991 --     6 C    0.935
    21   1 H    0.991 --     6 C    0.933
    22   1 H    0.996 --     7 C    0.978
    23   1 H    0.993 --     7 C    0.977
    24   1 H    0.996 --     7 C    0.979
    25   1 H    0.992 --     8 C    0.937
    26   1 H    0.991 --     8 C    0.934
    27   1 H    0.996 --     9 C    0.979
    28   1 H    0.993 --     9 C    0.977
    29   1 H    0.996 --     9 C    0.977
 ---------------------------------------------------------------------------

molecular dipole:
                 x           y           z       tot (Debye)
 q only:        2.180       1.278       4.745
   full:        2.177       1.361       4.788      13.808

           -------------------------------------------------
          | TOTAL ENERGY              -29.457396245109 Eh   |
          | GRADIENT NORM               0.000589179712 Eh/α |
          | HOMO-LUMO GAP               7.722629244311 eV   |
           -------------------------------------------------

 * finished run on 2024/12/20 at 07:07:35.197
