   * xtb version 6.7.1 (edcfbbe) compiled by 'conda@3ef47c1a292c' on 2024-11-25

   ID    Z sym.   atoms
    1   17 Cl     1, 25, 26
    2    6 C      2-8, 10, 12, 13, 15, 16, 18-24
    3    8 O      9, 17
    4    7 N      11, 14
    5    1 H      27-42

          program call               : xtb C0996.xyz --opt --namespace C0996 --charge +1
          :  Hamiltonian                  GFN2-xTB          :
 * total energy  :   -76.0366469 Eh     change       -0.2777824E-08 Eh
 * total energy  :   -76.0464919 Eh     change       -0.9844995E-02 Eh
 * total energy  :   -76.0491033 Eh     change       -0.2611440E-02 Eh
 * total energy  :   -76.0495791 Eh     change       -0.4757334E-03 Eh
 * total energy  :   -76.0498748 Eh     change       -0.2957403E-03 Eh
 * total energy  :   -76.0500749 Eh     change       -0.2000614E-03 Eh
 * total energy  :   -76.0502485 Eh     change       -0.1736671E-03 Eh
 * total energy  :   -76.0504428 Eh     change       -0.1942549E-03 Eh
 * total energy  :   -76.0506601 Eh     change       -0.2173156E-03 Eh
 * total energy  :   -76.0508966 Eh     change       -0.2364784E-03 Eh
 * total energy  :   -76.0527711 Eh     change       -0.3595799E-04 Eh
 * total energy  :   -76.0528015 Eh     change       -0.3040317E-04 Eh
 * total energy  :   -76.0528179 Eh     change       -0.1638783E-04 Eh
 * total energy  :   -76.0528471 Eh     change       -0.2914052E-04 Eh
 * total energy  :   -76.0528557 Eh     change       -0.8659063E-05 Eh
 * total energy  :   -76.0528608 Eh     change       -0.5095003E-05 Eh
 * total energy  :   -76.0528673 Eh     change       -0.6490770E-05 Eh
 * total energy  :   -76.0528733 Eh     change       -0.6033255E-05 Eh
 * total energy  :   -76.0528770 Eh     change       -0.3609285E-05 Eh
   *** GEOMETRY OPTIMIZATION CONVERGED AFTER 33 ITERATIONS ***

 final structure:
================
42
 xtb: 6.7.1 (edcfbbe)
Cl          -1.90176934911175        0.33842024224906        0.86937083383223
C           -0.20866142092736        0.26468277571006        0.61381752840270
C            0.41829391793325       -0.96649309531675        0.44562364021200
C            1.77978087724004       -1.01121948941248        0.24535961252238
C            2.54371690585204        0.16271139417421        0.20098943137662
C            1.89802648179760        1.39074808070013        0.37730087286547
C            0.53603928398775        1.44152711016970        0.58279605322347
C            3.98749166534062        0.01421576783643       -0.01180934155578
O            4.55920260605587       -1.04630426034981       -0.01904184963792
C            4.80651827392928        1.30731632761743       -0.26293294662922
N            4.35534367407478        1.98628766298456       -1.45253050406262
C            3.93452973471965        1.35892378009272       -2.58727569845876
C            3.59637589459181        2.31834516191253       -3.49001894085816
N            3.83112439852925        3.51434459539815       -2.88279309321595
C            4.29911905587012        3.31120944285188       -1.64655956180430
C            4.66839472241027        4.37517094089308       -0.69591066852155
O            3.62184958600880        4.76572662415421       -3.36514458514145
C            3.74890205562134        4.92510673158072       -4.78196629657739
C            4.95199680055446        4.25819145572433       -5.39464806910186
C            4.80492957733230        3.47917874319318       -6.53891901349069
C            5.88753325408997        2.87450772341792       -7.14631273490115
C            7.15533724504662        3.03554157740923       -6.60092449867096
C            7.33102015200429        3.80646226660094       -5.45985048934858
C            6.23519694626428        4.41488219235103       -4.87125042888431
Cl           6.50015682982482        5.39168779236744       -3.46950613995757
Cl           8.51371397119146        2.28663047392237       -7.33565783370355
H           -0.16170249654753       -1.87456538604554        0.47843866456390
H            2.28668571253608       -1.95596019227188        0.11916304748711
H            2.45097538394745        2.31718649478349        0.38219124499937
H            0.03996346482941        2.38762734391462        0.72981788287126
H            4.73109933310457        1.97056588165549        0.60004413042651
H            5.85186085713780        1.00270530770805       -0.38390826873082
H            3.90562492889831        0.29231800207614       -2.67655748932822
H            3.22511723985012        2.22296828960958       -4.48792936846701
H            3.98814143102230        4.40332561561174        0.15605374619842
H            5.67869794005187        4.22098971631640       -0.31944409871206
H            4.62254720620771        5.33587805893944       -1.20260611356031
H            2.83338453690483        4.58328367758274       -5.27793626945269
H            3.81418686876965        6.01288575768332       -4.88102318773450
H            3.82369567967563        3.35990033049897       -6.97381311080342
H            5.75521249124190        2.28452464653508       -8.03809123342915
H            8.31601628212743        3.94214443715296       -5.04268485422865

          :  Hamiltonian                  GFN2-xTB          :
         :: total energy             -76.052876955401 Eh    ::
         :: gradient norm              0.000728411863 Eh/a0 ::
         :: HOMO-LUMO gap              2.636049227164 eV    ::
         :: SCC energy               -77.024287626982 Eh    ::
         :: -> dispersion             -0.051918973791 Eh    ::
         :: repulsion energy           0.971410671582 Eh    ::

    * Orbital Energies and Occupations

         #    Occupation            Energy/Eh            Energy/eV
      -------------------------------------------------------------
         1        2.0000           -1.1726367             -31.9091
       ...           ...                  ...                  ...
        55        2.0000           -0.5661149             -15.4048
        56        2.0000           -0.5646687             -15.3654
        57        2.0000           -0.5617002             -15.2846
        58        2.0000           -0.5562836             -15.1372
        59        2.0000           -0.5521296             -15.0242
        60        2.0000           -0.5361789             -14.5902
        61        2.0000           -0.5360364             -14.5863
        62        2.0000           -0.5264181             -14.3246
        63        2.0000           -0.5231310             -14.2351
        64        2.0000           -0.5175335             -14.0828
        65        2.0000           -0.5160267             -14.0418
        66        2.0000           -0.5066673             -13.7871
        67        2.0000           -0.5065820             -13.7848 (HOMO)
        68                         -0.4097090             -11.1487 (LUMO)
        69                         -0.3938417             -10.7170
        70                         -0.3699497             -10.0668
        71                         -0.3624294              -9.8622
        72                         -0.3610297              -9.8241
        73                         -0.3520721              -9.5804
        74                         -0.3233840              -8.7997
        75                         -0.2634377              -7.1685
        76                         -0.2488573              -6.7718
        77                         -0.2360680              -6.4237
        78                         -0.2286498              -6.2219
       ...                                ...                  ...
       135                          0.5496761              14.9574
      -------------------------------------------------------------
                  HL-Gap            0.0968730 Eh            2.6360 eV

     #   Z          covCN         q      C6AA      α(0)
     1  17 Cl       0.970    -0.106   102.456    15.486
     2   6 C        2.887     0.115    25.462     8.273
     3   6 C        2.951    -0.031    28.770     8.797
     4   6 C        2.928    -0.011    28.293     8.723
     5   6 C        2.968    -0.025    28.612     8.774
     6   6 C        2.920    -0.030    28.742     8.792
     7   6 C        2.955    -0.037    28.909     8.819
     8   6 C        2.819     0.225    23.264     7.903
     9   8 O        0.857    -0.320    20.142     6.017
    10   6 C        3.740    -0.053    21.599     6.631
    11   7 N        2.875     0.045    20.452     6.717
    12   6 C        3.061    -0.012    28.253     8.717
    13   6 C        3.026    -0.032    28.781     8.800
    14   7 N        2.912     0.189    18.097     6.318
    15   6 C        3.081     0.093    25.859     8.337
    16   6 C        3.754    -0.136    23.164     6.863
    17   8 O        1.768    -0.195    17.249     5.608
    18   6 C        3.688     0.055    19.831     6.374
    19   6 C        2.993    -0.023    28.566     8.767
    20   6 C        2.927    -0.036    28.900     8.816
    21   6 C        2.952    -0.040    28.984     8.830
    22   6 C        2.888     0.108    25.618     8.298
    23   6 C        3.001    -0.050    29.231     8.869
    24   6 C        2.890     0.091    25.985     8.357
    25  17 Cl       0.968    -0.151   103.871    15.592
    26  17 Cl       0.970    -0.109   102.565    15.494
    27   1 H        0.926     0.086     1.921     2.167
    28   1 H        0.926     0.090     1.880     2.144
    29   1 H        0.926     0.041     2.441     2.443
    30   1 H        0.926     0.075     2.030     2.228
    31   1 H        0.924     0.099     1.796     2.096
    32   1 H        0.924     0.110     1.695     2.036
    33   1 H        0.926     0.110     1.694     2.035
    34   1 H        0.927     0.110     1.697     2.037
    35   1 H        0.924     0.100     1.789     2.092
    36   1 H        0.925     0.104     1.745     2.065
    37   1 H        0.925     0.115     1.652     2.010
    38   1 H        0.924     0.070     2.084     2.258
    39   1 H        0.924     0.115     1.657     2.013
    40   1 H        0.926     0.068     2.110     2.272
    41   1 H        0.926     0.089     1.888     2.149
    42   1 H        0.926     0.093     1.851     2.128

Wiberg/Mayer (AO) data.
largest (>0.10) Wiberg bond orders for each atom

     #   Z sym  total        # sym  WBO       # sym  WBO       # sym  WBO
 ---------------------------------------------------------------------------
     1  17 Cl   1.190 --     2 C    1.032
     2   6 C    3.928 --     3 C    1.376     7 C    1.368     1 Cl   1.032
     3   6 C    3.985 --     4 C    1.477     2 C    1.376    27 H    0.963
     4   6 C    3.982 --     3 C    1.477     5 C    1.347    28 H    0.961
     5   6 C    3.987 --     6 C    1.354     4 C    1.347     8 C    1.068
     6   6 C    3.992 --     7 C    1.482     5 C    1.354    29 H    0.965
     7   6 C    3.987 --     6 C    1.482     2 C    1.368    30 H    0.965
     8   6 C    3.930 --     9 O    1.840     5 C    1.068    10 C    0.930
     9   8 O    2.096 --     8 C    1.840
    10   6 C    3.935 --    11 N    0.976    31 H    0.952    32 H    0.949
                             8 C    0.930
    11   7 N    3.690 --    15 C    1.305    12 C    1.217    10 C    0.976
    12   6 C    3.948 --    13 C    1.587    11 N    1.217    33 H    0.959
    13   6 C    3.940 --    12 C    1.587    14 N    1.199    34 H    0.958
    14   7 N    3.712 --    15 C    1.305    13 C    1.199    17 O    1.009
    15   6 C    3.941 --    11 N    1.305    14 N    1.305    16 C    1.047
    16   6 C    3.971 --    15 C    1.047    37 H    0.965    36 H    0.953
                            35 H    0.946
    17   8 O    2.134 --    14 N    1.009    18 C    0.932
    18   6 C    3.908 --    19 C    1.005    38 H    0.965    39 H    0.939
                            17 O    0.932
    19   6 C    3.982 --    20 C    1.398    24 C    1.367    18 C    1.005
    20   6 C    3.988 --    21 C    1.454    19 C    1.398    40 H    0.963
                            23 C    0.102
    21   6 C    3.985 --    20 C    1.454    22 C    1.382    41 H    0.963
    22   6 C    3.933 --    23 C    1.391    21 C    1.382    26 Cl   1.024
    23   6 C    3.984 --    24 C    1.414    22 C    1.391    42 H    0.961
                            20 C    0.102
    24   6 C    3.925 --    23 C    1.414    19 C    1.367    25 Cl   0.987
    25  17 Cl   1.130 --    24 C    0.987
    26  17 Cl   1.181 --    22 C    1.024
    27   1 H    0.992 --     3 C    0.963
    28   1 H    0.992 --     4 C    0.961
    29   1 H    0.998 --     6 C    0.965
    30   1 H    0.994 --     7 C    0.965
    31   1 H    0.990 --    10 C    0.952
    32   1 H    0.987 --    10 C    0.949
    33   1 H    0.987 --    12 C    0.959
    34   1 H    0.988 --    13 C    0.958
    35   1 H    0.990 --    16 C    0.946
    36   1 H    0.989 --    16 C    0.953
    37   1 H    0.986 --    16 C    0.965
    38   1 H    0.995 --    18 C    0.965
    39   1 H    0.985 --    18 C    0.939
    40   1 H    0.995 --    20 C    0.963
    41   1 H    0.991 --    21 C    0.963
    42   1 H    0.991 --    23 C    0.961
 ---------------------------------------------------------------------------

molecular dipole:
                 x           y           z       tot (Debye)
 q only:        6.895       5.446      -4.711
   full:        6.953       5.702      -4.837      25.952

           -------------------------------------------------
          | TOTAL ENERGY              -76.052876955401 Eh   |
          | GRADIENT NORM               0.000728411863 Eh/α |
          | HOMO-LUMO GAP               2.636049227164 eV   |
           -------------------------------------------------

 * finished run on 2024/12/20 at 07:08:00.785
