   * xtb version 6.7.1 (edcfbbe) compiled by 'conda@3ef47c1a292c' on 2024-11-25

   ID    Z sym.   atoms
    1    6 C      1-4, 6
    2   16 S      5
    3    7 N      7, 8
    4    1 H      9-21

          program call               : xtb C0997.xyz --opt --namespace C0997 --charge +1
          :  Hamiltonian                  GFN2-xTB          :
 * total energy  :   -26.0015649 Eh     change       -0.1757954E-09 Eh
 * total energy  :   -26.0047266 Eh     change       -0.3161688E-02 Eh
 * total energy  :   -26.0059131 Eh     change       -0.1186481E-02 Eh
 * total energy  :   -26.0065719 Eh     change       -0.6587826E-03 Eh
 * total energy  :   -26.0072496 Eh     change       -0.6777767E-03 Eh
 * total energy  :   -26.0079922 Eh     change       -0.7425317E-03 Eh
 * total energy  :   -26.0085877 Eh     change       -0.5955806E-03 Eh
 * total energy  :   -26.0090488 Eh     change       -0.4610896E-03 Eh
 * total energy  :   -26.0093543 Eh     change       -0.3054624E-03 Eh
 * total energy  :   -26.0095320 Eh     change       -0.1776967E-03 Eh
 * total energy  :   -26.0119952 Eh     change       -0.4139035E-04 Eh
 * total energy  :   -26.0120197 Eh     change       -0.2451716E-04 Eh
 * total energy  :   -26.0120607 Eh     change       -0.4099820E-04 Eh
 * total energy  :   -26.0120776 Eh     change       -0.1695668E-04 Eh
 * total energy  :   -26.0120877 Eh     change       -0.1010807E-04 Eh
 * total energy  :   -26.0120947 Eh     change       -0.6983274E-05 Eh
 * total energy  :   -26.0120903 Eh     change        0.4382279E-05 Eh
 * total energy  :   -26.0120970 Eh     change       -0.6649660E-05 Eh
 * total energy  :   -26.0121002 Eh     change       -0.3239714E-05 Eh
   *** GEOMETRY OPTIMIZATION CONVERGED AFTER 44 ITERATIONS ***

 final structure:
================
21
 xtb: 6.7.1 (edcfbbe)
C            1.08023114267830       -0.39928216806506       -0.11489174013114
C            0.31703548308095        0.10925083158429       -1.33003413151975
C            0.62305568196512       -0.57215529908872       -2.66696231650129
C           -0.17367721221219       -1.85042120261351       -2.90955595900456
S            0.49871372802869       -1.99638113148604        0.58580165476836
C            1.54969192871576       -3.21813643289230       -0.03748244204387
N            2.43490562723116       -2.99647160751844       -0.99388563961776
N            1.42983785108010       -4.41828058693985        0.51141826484974
H            0.91291015850818        0.28178566534158        0.72130389238879
H            2.15404025416362       -0.46774085042374       -0.28282445300087
H           -0.75475690949702        0.05191860877895       -1.13450727602031
H            0.57303569504238        1.16797437881590       -1.41485590540867
H            0.36568261258065        0.12976080241314       -3.46117327176007
H            1.69905398610119       -0.75577326643385       -2.75925317843816
H           -1.23717029250044       -1.62680472260823       -2.91042867621176
H            0.07911855602530       -2.26656160243534       -3.88116434509553
H            0.00723899044307       -2.61271821864440       -2.15584008867906
H            3.03916594263511       -3.73329958543635       -1.32725506373621
H            2.44529182111583       -2.12208369792786       -1.50057001162087
H            0.77330982135401       -4.56982888741254        1.26151524504911
H            1.98064513346168       -5.20614102700603        0.20450544173545

          :  Hamiltonian                  GFN2-xTB          :
         :: total energy             -26.012100224481 Eh    ::
         :: gradient norm              0.000344376002 Eh/a0 ::
         :: HOMO-LUMO gap              3.400741221543 eV    ::
         :: SCC energy               -26.358453948755 Eh    ::
         :: -> dispersion             -0.015011402527 Eh    ::
         :: repulsion energy           0.346353724274 Eh    ::

    * Orbital Energies and Occupations

         #    Occupation            Energy/Eh            Energy/eV
      -------------------------------------------------------------
         1        2.0000           -0.9081528             -24.7121
       ...           ...                  ...                  ...
        12        2.0000           -0.6924357             -18.8421
        13        2.0000           -0.6773086             -18.4305
        14        2.0000           -0.6606464             -17.9771
        15        2.0000           -0.6472806             -17.6134
        16        2.0000           -0.6380522             -17.3623
        17        2.0000           -0.6198583             -16.8672
        18        2.0000           -0.6164125             -16.7734
        19        2.0000           -0.6117605             -16.6469
        20        2.0000           -0.5961568             -16.2223
        21        2.0000           -0.5715630             -15.5530
        22        2.0000           -0.5701365             -15.5142
        23        2.0000           -0.5633918             -15.3307
        24        2.0000           -0.5486835             -14.9304 (HOMO)
        25                         -0.4237085             -11.5297 (LUMO)
        26                         -0.3675205             -10.0007
        27                         -0.3283105              -8.9338
        28                         -0.1935776              -5.2675
        29                         -0.1868801              -5.0853
        30                         -0.1696296              -4.6159
        31                         -0.1291653              -3.5148
        32                         -0.1052226              -2.8633
        33                         -0.0627390              -1.7072
        34                         -0.0398448              -1.0842
        35                         -0.0352814              -0.9601
       ...                                ...                  ...
        50                          0.3547527               9.6533
      -------------------------------------------------------------
                  HL-Gap            0.1249749 Eh            3.4007 eV

     #   Z          covCN         q      C6AA      α(0)
     1   6 C        3.792    -0.033    21.168     6.552
     2   6 C        3.813    -0.073    21.885     6.659
     3   6 C        3.799    -0.061    21.675     6.629
     4   6 C        3.751    -0.115    22.769     6.805
     5  16 S        2.074     0.027   139.945    19.910
     6   6 C        2.795     0.192    23.897     8.008
     7   7 N        2.677    -0.209    25.561     7.509
     8   7 N        2.726    -0.204    25.434     7.490
     9   1 H        0.925     0.094     1.838     2.120
    10   1 H        0.925     0.072     2.067     2.248
    11   1 H        0.924     0.073     2.054     2.241
    12   1 H        0.924     0.073     2.053     2.241
    13   1 H        0.924     0.064     2.150     2.293
    14   1 H        0.924     0.025     2.662     2.551
    15   1 H        0.925     0.057     2.235     2.338
    16   1 H        0.925     0.052     2.294     2.368
    17   1 H        0.925     0.021     2.711     2.575
    18   1 H        0.860     0.228     0.973     1.545
    19   1 H        0.860     0.243     0.912     1.496
    20   1 H        0.860     0.241     0.918     1.501
    21   1 H        0.860     0.233     0.953     1.529

Wiberg/Mayer (AO) data.
largest (>0.10) Wiberg bond orders for each atom

     #   Z sym  total        # sym  WBO       # sym  WBO       # sym  WBO
 ---------------------------------------------------------------------------
     1   6 C    3.946 --     2 C    1.013    10 H    0.961     5 S    0.959
                             9 H    0.958
     2   6 C    3.985 --     1 C    1.013     3 C    1.006    11 H    0.970
                            12 H    0.959
     3   6 C    3.994 --     4 C    1.020     2 C    1.006    13 H    0.973
                            14 H    0.965
     4   6 C    3.993 --     3 C    1.020    15 H    0.985    16 H    0.985
                            17 H    0.985
     5  16 S    2.467 --     6 C    1.206     1 C    0.959
     6   6 C    3.971 --     7 N    1.371     8 N    1.366     5 S    1.206
     7   7 N    3.449 --     6 C    1.371    18 H    0.920    19 H    0.899
                             8 N    0.124
     8   7 N    3.455 --     6 C    1.366    20 H    0.923    21 H    0.921
                             7 N    0.124
     9   1 H    0.991 --     1 C    0.958
    10   1 H    0.995 --     1 C    0.961
    11   1 H    0.995 --     2 C    0.970
    12   1 H    0.994 --     2 C    0.959
    13   1 H    0.996 --     3 C    0.973
    14   1 H    0.999 --     3 C    0.965
    15   1 H    0.997 --     4 C    0.985
    16   1 H    0.997 --     4 C    0.985
    17   1 H    1.000 --     4 C    0.985
    18   1 H    0.948 --     7 N    0.920
    19   1 H    0.941 --     7 N    0.899
    20   1 H    0.942 --     8 N    0.923
    21   1 H    0.945 --     8 N    0.921
 ---------------------------------------------------------------------------

molecular dipole:
                 x           y           z       tot (Debye)
 q only:        3.012      -5.226      -0.844
   full:        3.239      -5.227      -0.954      15.818

           -------------------------------------------------
          | TOTAL ENERGY              -26.012100224481 Eh   |
          | GRADIENT NORM               0.000344376002 Eh/α |
          | HOMO-LUMO GAP               3.400741221543 eV   |
           -------------------------------------------------

 * finished run on 2024/12/20 at 07:08:01.349
