   * xtb version 6.7.1 (edcfbbe) compiled by 'conda@3ef47c1a292c' on 2024-11-25

   ID    Z sym.   atoms
    1    6 C      1-3, 5-15
    2    7 N      4
    3    1 H      16-39

          program call               : xtb C0990.xyz --opt --namespace C0990 --charge +1
          :  Hamiltonian                  GFN2-xTB          :
 * total energy  :   -44.7559497 Eh     change       -0.6936887E-09 Eh
 * total energy  :   -44.7587757 Eh     change       -0.2825912E-02 Eh
 * total energy  :   -44.7593141 Eh     change       -0.5384053E-03 Eh
 * total energy  :   -44.7594394 Eh     change       -0.1253908E-03 Eh
 * total energy  :   -44.7595543 Eh     change       -0.1148559E-03 Eh
 * total energy  :   -44.7596525 Eh     change       -0.9823450E-04 Eh
 * total energy  :   -44.7597568 Eh     change       -0.1042576E-03 Eh
 * total energy  :   -44.7598761 Eh     change       -0.1193286E-03 Eh
 * total energy  :   -44.7599734 Eh     change       -0.9728632E-04 Eh
 * total energy  :   -44.7600294 Eh     change       -0.5602038E-04 Eh
 * total energy  :   -44.7604953 Eh     change       -0.1646651E-04 Eh
 * total energy  :   -44.7605191 Eh     change       -0.2379141E-04 Eh
 * total energy  :   -44.7605363 Eh     change       -0.1723598E-04 Eh
 * total energy  :   -44.7605461 Eh     change       -0.9781366E-05 Eh
 * total energy  :   -44.7605551 Eh     change       -0.9035207E-05 Eh
 * total energy  :   -44.7605686 Eh     change       -0.1347662E-04 Eh
 * total energy  :   -44.7605886 Eh     change       -0.1997841E-04 Eh
 * total energy  :   -44.7606034 Eh     change       -0.1481671E-04 Eh
 * total energy  :   -44.7606080 Eh     change       -0.4589984E-05 Eh
   *** GEOMETRY OPTIMIZATION CONVERGED AFTER 34 ITERATIONS ***

 final structure:
================
39
 xtb: 6.7.1 (edcfbbe)
C            1.63556818072323       -0.06868889920460        1.12358501589187
C            0.72965830853114        1.10589515838516        1.02180346871884
C           -0.40272096771555        1.21239382551584        1.81299554428444
N           -1.23568294907787        2.25665893595148        1.73071391880873
C           -0.99519440791846        3.25065190389132        0.87298372993106
C            0.11505600095960        3.21902818398214        0.05013732407365
C            0.98477704075298        2.14525541847053        0.12097802129403
C           -2.35878539546024        2.33775627373146        2.64666837004700
C           -1.91535750145910        2.92532782336576        3.99480174400615
C           -1.50809150487062        4.39691186811849        3.92956408054005
C           -2.63948886730193        5.36507973621161        3.57274100083318
C           -3.84279119234078        5.32980979958360        4.51846408674275
C           -3.51944029325345        5.60442234302398        5.98872085755240
C           -2.85421539100567        6.95500531487735        6.26057347254077
C           -3.71653697725970        8.14374860213999        5.85333401442424
H            1.67774329154821       -0.59137501786835        0.16903167332870
H            1.30567601438561       -0.76480565846591        1.88855231748229
H            2.64851071528431        0.25654373783909        1.35565012028060
H           -0.65374254373946        0.44217675024437        2.52794452123229
H           -1.70009708363288        4.06717596651632        0.84155224959113
H            0.29002237981388        4.03066578312513       -0.63730267602148
H            1.85606207331838        2.10273422442931       -0.51434791876175
H           -3.13650506716388        2.96257113332207        2.20729318064071
H           -2.76032283713826        1.33433267403179        2.79979023130591
H           -2.74477123439918        2.81074663322890        4.69106094476413
H           -1.07823491136733        2.33822892356333        4.37927416571929
H           -1.11339199374661        4.67199163710924        4.90755587518636
H           -0.69018823523875        4.52493891762910        3.21296569757342
H           -2.22283663326888        6.37265699915657        3.56874243170335
H           -3.00096239024843        5.17216929339000        2.55841908233303
H           -4.56054796505567        6.07378281050001        4.17111612354036
H           -4.33957011459200        4.35872013199661        4.44906487622925
H           -4.45712988232096        5.56302747374810        6.54699463164528
H           -2.87801858182630        4.81141681043156        6.38049200117258
H           -2.65415867474440        7.01828758784653        7.33231045488292
H           -1.89068995334838        7.01074945658759        5.74960618113963
H           -4.69537707125729        8.08192735992742        6.32324708960729
H           -3.24612306240381        9.07184323904243        6.16813817035069
H           -3.85324032215118        8.18560684463227        4.77530392539198

          :  Hamiltonian                  GFN2-xTB          :
         :: total energy             -44.760607996326 Eh    ::
         :: gradient norm              0.000394240066 Eh/a0 ::
         :: HOMO-LUMO gap              1.330707999672 eV    ::
         :: SCC energy               -45.481573984233 Eh    ::
         :: -> dispersion             -0.031433224082 Eh    ::
         :: repulsion energy           0.720965987907 Eh    ::

    * Orbital Energies and Occupations

         #    Occupation            Energy/Eh            Energy/eV
      -------------------------------------------------------------
         1        2.0000           -0.8706480             -23.6915
       ...           ...                  ...                  ...
        30        2.0000           -0.5919883             -16.1088
        31        2.0000           -0.5896295             -16.0446
        32        2.0000           -0.5834981             -15.8778
        33        2.0000           -0.5765493             -15.6887
        34        2.0000           -0.5703148             -15.5191
        35        2.0000           -0.5588957             -15.2083
        36        2.0000           -0.5550612             -15.1040
        37        2.0000           -0.5390687             -14.6688
        38        2.0000           -0.5320977             -14.4791
        39        2.0000           -0.5272203             -14.3464
        40        2.0000           -0.5060280             -13.7697
        41        2.0000           -0.5020552             -13.6616
        42        2.0000           -0.4975933             -13.5402 (HOMO)
        43                         -0.4486906             -12.2095 (LUMO)
        44                         -0.4153410             -11.3020
        45                         -0.2988509              -8.1321
        46                         -0.1630773              -4.4376
        47                         -0.0784264              -2.1341
        48                         -0.0619276              -1.6851
        49                         -0.0427986              -1.1646
        50                         -0.0375463              -1.0217
        51                         -0.0330411              -0.8991
        52                         -0.0120373              -0.3276
        53                         -0.0087395              -0.2378
       ...                                ...                  ...
        84                          0.4476068              12.1800
      -------------------------------------------------------------
                  HL-Gap            0.0489026 Eh            1.3307 eV

     #   Z          covCN         q      C6AA      α(0)
     1   6 C        3.759    -0.133    23.109     6.853
     2   6 C        2.961     0.049    26.908     8.508
     3   6 C        2.900     0.016    27.645     8.621
     4   7 N        2.749     0.109    19.366     6.536
     5   6 C        2.892     0.027    27.390     8.581
     6   6 C        2.913    -0.015    28.394     8.738
     7   6 C        2.930    -0.003    28.108     8.695
     8   6 C        3.760    -0.035    21.238     6.570
     9   6 C        3.801    -0.068    21.811     6.649
    10   6 C        3.800    -0.066    21.759     6.641
    11   6 C        3.800    -0.061    21.677     6.629
    12   6 C        3.800    -0.062    21.697     6.632
    13   6 C        3.800    -0.061    21.681     6.629
    14   6 C        3.799    -0.054    21.553     6.610
    15   6 C        3.751    -0.105    22.575     6.776
    16   1 H        0.925     0.096     1.819     2.109
    17   1 H        0.925     0.077     2.010     2.217
    18   1 H        0.925     0.095     1.827     2.114
    19   1 H        0.926     0.101     1.776     2.084
    20   1 H        0.926     0.107     1.726     2.055
    21   1 H        0.926     0.102     1.766     2.078
    22   1 H        0.926     0.100     1.786     2.090
    23   1 H        0.925     0.095     1.836     2.119
    24   1 H        0.924     0.086     1.919     2.166
    25   1 H        0.925     0.083     1.948     2.182
    26   1 H        0.924     0.049     2.328     2.386
    27   1 H        0.925     0.065     2.136     2.285
    28   1 H        0.924     0.023     2.694     2.567
    29   1 H        0.924     0.052     2.299     2.371
    30   1 H        0.924     0.017     2.786     2.610
    31   1 H        0.924     0.048     2.348     2.396
    32   1 H        0.924     0.025     2.658     2.550
    33   1 H        0.924     0.041     2.435     2.440
    34   1 H        0.924     0.026     2.646     2.544
    35   1 H        0.924     0.036     2.500     2.473
    36   1 H        0.924     0.027     2.626     2.534
    37   1 H        0.925     0.040     2.447     2.446
    38   1 H        0.925     0.040     2.454     2.450
    39   1 H        0.925     0.033     2.546     2.495

Wiberg/Mayer (AO) data.
largest (>0.10) Wiberg bond orders for each atom

     #   Z sym  total        # sym  WBO       # sym  WBO       # sym  WBO
 ---------------------------------------------------------------------------
     1   6 C    3.983 --     2 C    1.046    17 H    0.981    18 H    0.953
                            16 H    0.951
     2   6 C    3.981 --     3 C    1.423     7 C    1.366     1 C    1.046
     3   6 C    3.959 --     2 C    1.423     4 N    1.320    19 H    0.954
     4   7 N    3.766 --     5 C    1.333     3 C    1.320     8 C    0.964
     5   6 C    3.959 --     6 C    1.437     4 N    1.333    20 H    0.953
     6   6 C    3.983 --     7 C    1.452     5 C    1.437    21 H    0.960
     7   6 C    3.975 --     6 C    1.452     2 C    1.366    22 H    0.962
     8   6 C    3.934 --     9 C    0.973     4 N    0.964    24 H    0.963
                            23 H    0.960
     9   6 C    3.981 --    10 C    1.009    26 H    0.974     8 C    0.973
                            25 H    0.961
    10   6 C    3.993 --     9 C    1.009    11 C    1.007    28 H    0.973
                            27 H    0.967
    11   6 C    3.995 --    12 C    1.007    10 C    1.007    30 H    0.973
                            29 H    0.973
    12   6 C    3.995 --    13 C    1.008    11 C    1.007    32 H    0.975
                            31 H    0.973
    13   6 C    3.996 --    14 C    1.008    12 C    1.008    33 H    0.976
                            34 H    0.976
    14   6 C    3.997 --    15 C    1.020    13 C    1.008    35 H    0.978
                            36 H    0.976
    15   6 C    3.996 --    14 C    1.020    37 H    0.987    38 H    0.987
                            39 H    0.986
    16   1 H    0.990 --     1 C    0.951
    17   1 H    0.994 --     1 C    0.981
    18   1 H    0.991 --     1 C    0.953
    19   1 H    0.990 --     3 C    0.954
    20   1 H    0.988 --     5 C    0.953
    21   1 H    0.989 --     6 C    0.960
    22   1 H    0.990 --     7 C    0.962
    23   1 H    0.991 --     8 C    0.960
    24   1 H    0.992 --     8 C    0.963
    25   1 H    0.991 --     9 C    0.961
    26   1 H    0.998 --     9 C    0.974
    27   1 H    0.995 --    10 C    0.967
    28   1 H    0.999 --    10 C    0.973
    29   1 H    0.997 --    11 C    0.973
    30   1 H    1.000 --    11 C    0.973
    31   1 H    0.998 --    12 C    0.973
    32   1 H    0.999 --    12 C    0.975
    33   1 H    0.998 --    13 C    0.976
    34   1 H    0.999 --    13 C    0.976
    35   1 H    0.999 --    14 C    0.978
    36   1 H    0.999 --    14 C    0.976
    37   1 H    0.998 --    15 C    0.987
    38   1 H    0.998 --    15 C    0.987
    39   1 H    0.999 --    15 C    0.986
 ---------------------------------------------------------------------------

molecular dipole:
                 x           y           z       tot (Debye)
 q only:       -1.212       4.303       3.234
   full:       -1.238       4.268       3.152      13.848

           -------------------------------------------------
          | TOTAL ENERGY              -44.760607996326 Eh   |
          | GRADIENT NORM               0.000394240066 Eh/α |
          | HOMO-LUMO GAP               1.330707999672 eV   |
           -------------------------------------------------

 * finished run on 2024/12/20 at 07:07:34.587
