   * xtb version 6.7.1 (edcfbbe) compiled by 'conda@3ef47c1a292c' on 2024-11-25

   ID    Z sym.   atoms
    1    6 C      1-3, 5, 6, 8-10
    2    7 N      4, 7
    3    1 H      11-25

          program call               : xtb C0999.xyz --opt --namespace C0999 --charge +1
          :  Hamiltonian                  GFN2-xTB          :
 * total energy  :   -30.2615029 Eh     change       -0.2386763E-08 Eh
 * total energy  :   -30.2648222 Eh     change       -0.3319344E-02 Eh
 * total energy  :   -30.2654292 Eh     change       -0.6069529E-03 Eh
 * total energy  :   -30.2655360 Eh     change       -0.1068148E-03 Eh
 * total energy  :   -30.2655965 Eh     change       -0.6053503E-04 Eh
 * total energy  :   -30.2656165 Eh     change       -0.1999801E-04 Eh
 * total energy  :   -30.2656406 Eh     change       -0.2402918E-04 Eh
 * total energy  :   -30.2656639 Eh     change       -0.2336064E-04 Eh
 * total energy  :   -30.2656744 Eh     change       -0.1047053E-04 Eh
 * total energy  :   -30.2656808 Eh     change       -0.6420645E-05 Eh
 * total energy  :   -30.2657517 Eh     change       -0.9349208E-05 Eh
 * total energy  :   -30.2657609 Eh     change       -0.9259838E-05 Eh
 * total energy  :   -30.2657684 Eh     change       -0.7475634E-05 Eh
 * total energy  :   -30.2657874 Eh     change       -0.1898409E-04 Eh
 * total energy  :   -30.2658071 Eh     change       -0.1970293E-04 Eh
 * total energy  :   -30.2658258 Eh     change       -0.1866086E-04 Eh
 * total energy  :   -30.2658272 Eh     change       -0.1427484E-05 Eh
 * total energy  :   -30.2658480 Eh     change       -0.2079428E-04 Eh
 * total energy  :   -30.2658524 Eh     change       -0.4432172E-05 Eh
   *** GEOMETRY OPTIMIZATION CONVERGED AFTER 23 ITERATIONS ***

 final structure:
================
25
 xtb: 6.7.1 (edcfbbe)
C            0.64028131208059       -0.03504820565185        0.16107530686531
C            0.28999982718362        0.91347457960852       -0.97913558158608
C            1.01327737722516        0.55932934645794       -2.28418597889342
N            0.61615838944964       -0.77084158210159       -2.73034267309214
C            1.42146338185155       -1.86480977518276       -2.78923987630402
C            0.66764272053808       -2.90421603922933       -3.24422460225414
N           -0.59002237008074       -2.42719768945022       -3.45374978988042
C           -0.59694795375812       -1.13557982859806       -3.13652928177280
C           -1.69972761019995       -3.19130157105785       -3.95669827587799
C            0.74412318393432        1.57916569608779       -3.38690433649005
H            0.32507766528417       -1.05462157807144       -0.05280107044432
H            0.14255451719828        0.28477857101875        1.07148602000608
H            1.71135009191727       -0.03500316069780        0.34688864813465
H           -0.78864640512826        0.91469142045301       -1.14539354195561
H            0.58171989776107        1.92707391774942       -0.70515865096725
H            2.08927099368017        0.50679662886932       -2.09207527582036
H            2.45473855262755       -1.83727492291261       -2.50963329298326
H            0.93617764848942       -3.92452035784822       -3.42697124847667
H           -1.45239605154483       -0.49268979446292       -3.20080388719910
H           -2.62599966834659       -2.63986850127732       -3.81590093694547
H           -1.56664622682692       -3.39443891384032       -5.02008670009236
H           -1.76538242037809       -4.14199992797895       -3.42971444119248
H            1.19003472708862        2.53075644565998       -3.11398575168359
H            1.18455067430286        1.25764322721076       -4.32782957586452
H           -0.32161225434903        1.73597201524523       -3.53059520522986

          :  Hamiltonian                  GFN2-xTB          :
         :: total energy             -30.265852414667 Eh    ::
         :: gradient norm              0.000762345108 Eh/a0 ::
         :: HOMO-LUMO gap              4.376835309707 eV    ::
         :: SCC energy               -30.731813366056 Eh    ::
         :: -> dispersion             -0.017900418488 Eh    ::
         :: repulsion energy           0.465960951389 Eh    ::

    * Orbital Energies and Occupations

         #    Occupation            Energy/Eh            Energy/eV
      -------------------------------------------------------------
         1        2.0000           -0.8958846             -24.3783
       ...           ...                  ...                  ...
        16        2.0000           -0.6744202             -18.3519
        17        2.0000           -0.6616291             -18.0038
        18        2.0000           -0.6422354             -17.4761
        19        2.0000           -0.6409876             -17.4422
        20        2.0000           -0.6380096             -17.3611
        21        2.0000           -0.6254713             -17.0199
        22        2.0000           -0.6110241             -16.6268
        23        2.0000           -0.6028674             -16.4049
        24        2.0000           -0.5940481             -16.1649
        25        2.0000           -0.5882141             -16.0061
        26        2.0000           -0.5842140             -15.8973
        27        2.0000           -0.5691611             -15.4877
        28        2.0000           -0.5676124             -15.4455 (HOMO)
        29                         -0.4067666             -11.0687 (LUMO)
        30                         -0.3705493             -10.0832
        31                         -0.1896677              -5.1611
        32                         -0.1343508              -3.6559
        33                         -0.0825484              -2.2463
        34                         -0.0537935              -1.4638
        35                         -0.0502975              -1.3687
        36                         -0.0279883              -0.7616
        37                         -0.0243155              -0.6617
        38                         -0.0031400              -0.0854
        39                         -0.0014734              -0.0401
       ...                                ...                  ...
        55                          0.4623919              12.5823
      -------------------------------------------------------------
                  HL-Gap            0.1608457 Eh            4.3768 eV

     #   Z          covCN         q      C6AA      α(0)
     1   6 C        3.752    -0.116    22.778     6.806
     2   6 C        3.803    -0.071    21.858     6.656
     3   6 C        3.790     0.022    20.223     6.404
     4   7 N        2.870     0.064    20.116     6.661
     5   6 C        3.078    -0.005    28.054     8.684
     6   6 C        3.072    -0.010    28.182     8.704
     7   7 N        2.868     0.076    19.919     6.629
     8   6 C        3.103     0.049    26.781     8.480
     9   6 C        3.693    -0.086    22.334     6.762
    10   6 C        3.755    -0.129    23.027     6.842
    11   1 H        0.925     0.032     2.557     2.500
    12   1 H        0.925     0.067     2.122     2.278
    13   1 H        0.925     0.053     2.288     2.365
    14   1 H        0.924     0.051     2.311     2.378
    15   1 H        0.925     0.076     2.020     2.222
    16   1 H        0.924     0.081     1.967     2.193
    17   1 H        0.926     0.107     1.720     2.051
    18   1 H        0.926     0.109     1.709     2.044
    19   1 H        0.926     0.112     1.675     2.024
    20   1 H        0.925     0.099     1.792     2.093
    21   1 H        0.924     0.106     1.727     2.055
    22   1 H        0.925     0.107     1.721     2.052
    23   1 H        0.925     0.083     1.949     2.183
    24   1 H        0.925     0.062     2.180     2.309
    25   1 H        0.925     0.060     2.195     2.317

Wiberg/Mayer (AO) data.
largest (>0.10) Wiberg bond orders for each atom

     #   Z sym  total        # sym  WBO       # sym  WBO       # sym  WBO
 ---------------------------------------------------------------------------
     1   6 C    3.992 --     2 C    1.020    11 H    0.988    13 H    0.986
                            12 H    0.982
     2   6 C    3.987 --     1 C    1.020     3 C    0.978    14 H    0.974
                            15 H    0.968
     3   6 C    3.935 --    10 C    0.997     2 C    0.978    16 H    0.959
                             4 N    0.942
     4   7 N    3.716 --     8 C    1.365     5 C    1.237     3 C    0.942
     5   6 C    3.952 --     6 C    1.587     4 N    1.237    17 H    0.961
     6   6 C    3.947 --     5 C    1.587     7 N    1.228    18 H    0.961
     7   7 N    3.722 --     8 C    1.361     6 C    1.228     9 C    0.991
     8   6 C    3.948 --     4 N    1.365     7 N    1.361    19 H    0.953
     9   6 C    3.934 --     7 N    0.991    20 H    0.975    22 H    0.966
                            21 H    0.959
    10   6 C    3.984 --     3 C    0.997    24 H    0.983    25 H    0.983
                            23 H    0.977
    11   1 H    0.999 --     1 C    0.988
    12   1 H    0.995 --     1 C    0.982
    13   1 H    0.997 --     1 C    0.986
    14   1 H    0.997 --     2 C    0.974
    15   1 H    0.994 --     2 C    0.968
    16   1 H    0.993 --     3 C    0.959
    17   1 H    0.988 --     5 C    0.961
    18   1 H    0.988 --     6 C    0.961
    19   1 H    0.987 --     8 C    0.953
    20   1 H    0.990 --     9 C    0.975
    21   1 H    0.988 --     9 C    0.959
    22   1 H    0.988 --     9 C    0.966
    23   1 H    0.993 --    10 C    0.977
    24   1 H    0.996 --    10 C    0.983
    25   1 H    0.996 --    10 C    0.983
 ---------------------------------------------------------------------------

molecular dipole:
                 x           y           z       tot (Debye)
 q only:       -0.092      -2.581      -5.635
   full:       -0.125      -2.622      -5.687      15.921

           -------------------------------------------------
          | TOTAL ENERGY              -30.265852414667 Eh   |
          | GRADIENT NORM               0.000762345108 Eh/α |
          | HOMO-LUMO GAP               4.376835309707 eV   |
           -------------------------------------------------

 * finished run on 2024/12/20 at 07:08:02.821
