   * xtb version 6.7.1 (edcfbbe) compiled by 'conda@3ef47c1a292c' on 2024-11-25

   ID    Z sym.   atoms
    1    6 C      1-3, 5, 6, 8-21
    2    7 N      4
    3    8 O      7
    4    1 H      22-41

          program call               : xtb C1003.xyz --opt --namespace C1003 --charge +1
          :  Hamiltonian                  GFN2-xTB          :
 * total energy  :   -57.3325155 Eh     change       -0.2210093E-08 Eh
 * total energy  :   -57.3626816 Eh     change       -0.3016616E-01 Eh
 * total energy  :   -57.3689229 Eh     change       -0.6241231E-02 Eh
 * total energy  :   -57.3707694 Eh     change       -0.1846559E-02 Eh
 * total energy  :   -57.3712668 Eh     change       -0.4974045E-03 Eh
 * total energy  :   -57.3714978 Eh     change       -0.2310150E-03 Eh
 * total energy  :   -57.3718042 Eh     change       -0.3063830E-03 Eh
 * total energy  :   -57.3720641 Eh     change       -0.2598332E-03 Eh
 * total energy  :   -57.3723958 Eh     change       -0.3317029E-03 Eh
 * total energy  :   -57.3726858 Eh     change       -0.2900076E-03 Eh
 * total energy  :   -57.3737864 Eh     change       -0.1640822E-04 Eh
 * total energy  :   -57.3738015 Eh     change       -0.1507786E-04 Eh
 * total energy  :   -57.3738089 Eh     change       -0.7348112E-05 Eh
 * total energy  :   -57.3738180 Eh     change       -0.9139845E-05 Eh
 * total energy  :   -57.3738257 Eh     change       -0.7733094E-05 Eh
 * total energy  :   -57.3738327 Eh     change       -0.7012301E-05 Eh
 * total energy  :   -57.3738408 Eh     change       -0.8104596E-05 Eh
 * total energy  :   -57.3738457 Eh     change       -0.4852291E-05 Eh
 * total energy  :   -57.3738485 Eh     change       -0.2841101E-05 Eh
   *** GEOMETRY OPTIMIZATION CONVERGED AFTER 40 ITERATIONS ***

 final structure:
================
41
 xtb: 6.7.1 (edcfbbe)
C            0.79754910559123       -0.02367921705227       -0.15743141850494
C           -0.39584932823316       -0.09271012828864       -0.09070442147255
C           -1.83989948907420       -0.17062963041407       -0.01428907771870
N           -2.32353244323985       -0.43649856689734        1.37689491504511
C           -1.76592808311933        0.61045490009543        2.32062396295065
C           -2.12764782942717        2.05179039830445        1.90543561436614
O           -2.93490571668351        2.26141689000968        1.02343512060301
C           -1.46507104843215        3.12852984087352        2.64275930735257
C           -0.44677822742442        2.93911964409138        3.58324590630589
C            0.10841786701704        4.02703026420509        4.22629819601864
C           -0.33192951317454        5.31288533804097        3.94596446108463
C           -1.33519344613290        5.51417838957004        3.01030838825311
C           -1.89605689282525        4.43278736591221        2.36391330367130
C           -2.19700507879649        0.38370172466767        3.75390005486219
C           -3.38527527244154        0.92757655601547        4.23251707523578
C           -3.76105113077790        0.73083733394222        5.55011783716548
C           -2.95486701654653       -0.00427946347677        6.40267035785964
C           -1.76319164303817       -0.53565561674894        5.93741532957421
C           -1.38369060048359       -0.34086646486329        4.62154481893177
C           -3.79758710151673       -0.45516502087767        1.37663043903614
C           -1.83742267700368       -1.76713237751795        1.78722877591581
H            1.84276531515798        0.04018337582321       -0.23879748745902
H           -2.27386233352160        0.77057207324142       -0.36324402809719
H           -2.19304611949874       -0.97922436083152       -0.66064323571276
H           -0.67765425647850        0.51026966467681        2.24375679723325
H           -0.07743436907452        1.95398140714594        3.81985249461924
H            0.89318256780335        3.87405626433611        4.95091644745692
H            0.10911441221656        6.15501277742913        4.45629312629301
H           -1.67856440149826        6.51254041047113        2.78752116726273
H           -2.67955048986314        4.57054828652263        1.63406673452006
H           -4.01357234840872        1.51938608236551        3.58345550248149
H           -4.68326965974044        1.15836256289087        5.91040193407464
H           -3.24895762433583       -0.15517672927348        7.42908903218310
H           -1.12437221854654       -1.09880664913538        6.59939269182930
H           -0.44312860227135       -0.74491364005766        4.27355308928614
H           -4.15446941860510       -1.20956778564230        0.67793122366293
H           -4.16346073928842       -0.69488700356737        2.37297226299691
H           -4.18065224567858        0.51776612035507        1.07368400269501
H           -2.24245782691560       -2.52712424340480        1.12094292938898
H           -0.75017077660819       -1.80044076947381        1.73147131249735
H           -2.15556329910382       -1.98687000347790        2.80447505628087

          :  Hamiltonian                  GFN2-xTB          :
         :: total energy             -57.373848538538 Eh    ::
         :: gradient norm              0.000949458684 Eh/a0 ::
         :: HOMO-LUMO gap              3.022009742968 eV    ::
         :: SCC energy               -58.392401752370 Eh    ::
         :: -> dispersion             -0.046164897184 Eh    ::
         :: repulsion energy           1.018553213832 Eh    ::

    * Orbital Energies and Occupations

         #    Occupation            Energy/Eh            Energy/eV
      -------------------------------------------------------------
         1        2.0000           -0.8527952             -23.2057
       ...           ...                  ...                  ...
        41        2.0000           -0.5938434             -16.1593
        42        2.0000           -0.5912259             -16.0881
        43        2.0000           -0.5645834             -15.3631
        44        2.0000           -0.5564204             -15.1410
        45        2.0000           -0.5527312             -15.0406
        46        2.0000           -0.5488879             -14.9360
        47        2.0000           -0.5464873             -14.8707
        48        2.0000           -0.5370612             -14.6142
        49        2.0000           -0.5358612             -14.5815
        50        2.0000           -0.5322025             -14.4820
        51        2.0000           -0.5266015             -14.3296
        52        2.0000           -0.5230501             -14.2329
        53        2.0000           -0.5213498             -14.1866 (HOMO)
        54                         -0.4102929             -11.1646 (LUMO)
        55                         -0.3611772              -9.8281
        56                         -0.3504256              -9.5356
        57                         -0.3392586              -9.2317
        58                         -0.3156214              -8.5885
        59                         -0.3131624              -8.5216
        60                         -0.2934404              -7.9849
        61                         -0.2346122              -6.3841
        62                         -0.2037249              -5.5436
        63                         -0.1985013              -5.4015
        64                         -0.1489554              -4.0533
       ...                                ...                  ...
       104                          1.2867541              35.0144
      -------------------------------------------------------------
                  HL-Gap            0.1110568 Eh            3.0220 eV

     #   Z          covCN         q      C6AA      α(0)
     1   6 C        1.909    -0.078    33.226     9.309
     2   6 C        1.963    -0.029    31.856     9.115
     3   6 C        3.767    -0.022    20.999     6.531
     4   7 N        3.622     0.132    18.986     6.472
     5   6 C        3.805    -0.014    20.816     6.495
     6   6 C        2.825     0.228    23.213     7.895
     7   8 O        0.857    -0.376    21.215     6.175
     8   6 C        2.970    -0.019    28.473     8.753
     9   6 C        2.918    -0.027    28.666     8.780
    10   6 C        2.918    -0.020    28.517     8.757
    11   6 C        2.920    -0.007    28.200     8.708
    12   6 C        2.916    -0.018    28.467     8.749
    13   6 C        2.929    -0.010    28.271     8.720
    14   6 C        2.972    -0.007    28.196     8.710
    15   6 C        2.922    -0.037    28.915     8.818
    16   6 C        2.919    -0.022    28.549     8.762
    17   6 C        2.920    -0.018    28.461     8.748
    18   6 C        2.919    -0.022    28.564     8.764
    19   6 C        2.922    -0.039    28.976     8.827
    20   6 C        3.716    -0.092    22.387     6.759
    21   6 C        3.723    -0.089    22.304     6.744
    22   1 H        0.928     0.120     1.614     1.987
    23   1 H        0.924     0.128     1.550     1.947
    24   1 H        0.924     0.099     1.795     2.095
    25   1 H        0.924     0.085     1.925     2.170
    26   1 H        0.926     0.039     2.467     2.456
    27   1 H        0.926     0.059     2.213     2.326
    28   1 H        0.926     0.067     2.122     2.278
    29   1 H        0.926     0.066     2.132     2.283
    30   1 H        0.926     0.075     2.033     2.230
    31   1 H        0.926     0.044     2.393     2.419
    32   1 H        0.926     0.060     2.194     2.316
    33   1 H        0.926     0.063     2.159     2.298
    34   1 H        0.926     0.060     2.200     2.319
    35   1 H        0.926     0.039     2.465     2.455
    36   1 H        0.925     0.088     1.900     2.155
    37   1 H        0.925     0.092     1.864     2.135
    38   1 H        0.925     0.121     1.607     1.983
    39   1 H        0.925     0.093     1.849     2.127
    40   1 H        0.925     0.094     1.842     2.123
    41   1 H        0.925     0.095     1.831     2.116

Wiberg/Mayer (AO) data.
largest (>0.10) Wiberg bond orders for each atom

     #   Z sym  total        # sym  WBO       # sym  WBO       # sym  WBO
 ---------------------------------------------------------------------------
     1   6 C    3.965 --     2 C    2.891    22 H    0.963
     2   6 C    3.979 --     1 C    2.891     3 C    1.053
     3   6 C    3.934 --     2 C    1.053    24 H    0.946    23 H    0.934
                             4 N    0.919
     4   7 N    3.810 --    21 C    0.961    20 C    0.958     3 C    0.919
                             5 C    0.901
     5   6 C    3.934 --    14 C    0.978     6 C    0.947    25 H    0.938
                             4 N    0.901
     6   6 C    3.931 --     7 O    1.776     8 C    1.079     5 C    0.947
     7   8 O    2.070 --     6 C    1.776
     8   6 C    3.985 --     9 C    1.353    13 C    1.350     6 C    1.079
     9   6 C    3.992 --    10 C    1.473     8 C    1.353    26 H    0.964
                            12 C    0.102
    10   6 C    3.990 --     9 C    1.473    11 C    1.417    27 H    0.968
    11   6 C    3.985 --    12 C    1.427    10 C    1.417    28 H    0.968
    12   6 C    3.989 --    13 C    1.464    11 C    1.427    29 H    0.967
                             9 C    0.102
    13   6 C    3.984 --    12 C    1.464     8 C    1.350    30 H    0.964
    14   6 C    3.976 --    15 C    1.408    19 C    1.402     5 C    0.978
                            17 C    0.108
    15   6 C    3.991 --    16 C    1.442    14 C    1.408    31 H    0.966
                            18 C    0.108
    16   6 C    3.990 --    15 C    1.442    17 C    1.440    32 H    0.968
                            19 C    0.109
    17   6 C    3.987 --    16 C    1.440    18 C    1.435    33 H    0.968
                            14 C    0.108
    18   6 C    3.989 --    19 C    1.446    17 C    1.435    34 H    0.968
                            15 C    0.108
    19   6 C    3.990 --    18 C    1.446    14 C    1.402    35 H    0.967
                            16 C    0.109
    20   6 C    3.922 --    36 H    0.975    37 H    0.972    38 H    0.963
                             4 N    0.958
    21   6 C    3.932 --    39 H    0.974    40 H    0.973    41 H    0.971
                             4 N    0.961
    22   1 H    0.985 --     1 C    0.963
    23   1 H    0.984 --     3 C    0.934
    24   1 H    0.989 --     3 C    0.946
    25   1 H    0.992 --     5 C    0.938
    26   1 H    0.999 --     9 C    0.964
    27   1 H    0.996 --    10 C    0.968
    28   1 H    0.995 --    11 C    0.968
    29   1 H    0.995 --    12 C    0.967
    30   1 H    0.994 --    13 C    0.964
    31   1 H    0.998 --    15 C    0.966
    32   1 H    0.996 --    16 C    0.968
    33   1 H    0.995 --    17 C    0.968
    34   1 H    0.996 --    18 C    0.968
    35   1 H    0.998 --    19 C    0.967
    36   1 H    0.992 --    20 C    0.975
    37   1 H    0.991 --    20 C    0.972
    38   1 H    0.985 --    20 C    0.963
    39   1 H    0.991 --    21 C    0.974
    40   1 H    0.991 --    21 C    0.973
    41   1 H    0.991 --    21 C    0.971
 ---------------------------------------------------------------------------

molecular dipole:
                 x           y           z       tot (Debye)
 q only:       -3.392       0.366       4.608
   full:       -3.260       0.263       4.662      14.474

           -------------------------------------------------
          | TOTAL ENERGY              -57.373848538538 Eh   |
          | GRADIENT NORM               0.000949458684 Eh/α |
          | HOMO-LUMO GAP               3.022009742968 eV   |
           -------------------------------------------------

 * finished run on 2024/12/20 at 07:08:07.617
