   * xtb version 6.7.1 (edcfbbe) compiled by 'conda@3ef47c1a292c' on 2024-11-25

   ID    Z sym.   atoms
    1    6 C      1-8, 10-12, 14-16, 18-23
    2    7 N      9, 17
    3   17 Cl     13, 26
    4    8 O      24, 25
    5    1 H      27-55

          program call               : xtb C1007.xyz --opt --namespace C1007 --charge +1
          :  Hamiltonian                  GFN2-xTB          :
 * total energy  :   -80.3932688 Eh     change       -0.5806683E-08 Eh
 * total energy  :   -80.4014498 Eh     change       -0.8180959E-02 Eh
 * total energy  :   -80.4036259 Eh     change       -0.2176134E-02 Eh
 * total energy  :   -80.4042193 Eh     change       -0.5934174E-03 Eh
 * total energy  :   -80.4049054 Eh     change       -0.6860059E-03 Eh
 * total energy  :   -80.4053323 Eh     change       -0.4269225E-03 Eh
 * total energy  :   -80.4058890 Eh     change       -0.5567336E-03 Eh
 * total energy  :   -80.4065226 Eh     change       -0.6336193E-03 Eh
 * total energy  :   -80.4071751 Eh     change       -0.6524947E-03 Eh
 * total energy  :   -80.4076453 Eh     change       -0.4701824E-03 Eh
 * total energy  :   -80.4137749 Eh     change       -0.1182998E-04 Eh
 * total energy  :   -80.4137843 Eh     change       -0.9414764E-05 Eh
 * total energy  :   -80.4137937 Eh     change       -0.9396567E-05 Eh
 * total energy  :   -80.4138057 Eh     change       -0.1206704E-04 Eh
 * total energy  :   -80.4138111 Eh     change       -0.5319569E-05 Eh
 * total energy  :   -80.4138165 Eh     change       -0.5432190E-05 Eh
 * total energy  :   -80.4138283 Eh     change       -0.1176765E-04 Eh
 * total energy  :   -80.4138342 Eh     change       -0.5961025E-05 Eh
 * total energy  :   -80.4138375 Eh     change       -0.3266733E-05 Eh
   *** GEOMETRY OPTIMIZATION CONVERGED AFTER 76 ITERATIONS ***

 final structure:
================
55
 xtb: 6.7.1 (edcfbbe)
C            1.19697962718232       -0.27681563863898       -1.52285469717244
C            0.88687747494946       -1.75178587066910       -1.74922240131827
C            1.37338304251131       -2.65219363025528       -0.61222382893251
C            0.74643015411992       -2.36429521593764        0.75370585698921
C           -0.77978494120876       -2.47151801139306        0.80751604710140
C           -1.33900291653452       -3.85526771743604        0.46663761338267
C           -1.01732872885299       -4.93362756812965        1.50335257456467
C           -1.80698974972110       -4.78991225394240        2.81027989758687
N           -3.20283174467433       -5.14209944171690        2.64727208588995
C           -4.22334004384232       -4.25147161868957        2.38410419691877
C           -4.24033260830988       -2.87191310179926        2.22812014032483
C           -5.46369182001786       -2.26976951350659        1.99380613664000
Cl          -5.53473043717535       -0.57020715675843        1.78604262021289
C           -6.65400962875071       -3.02794346131749        1.93124067801209
C           -6.63658758888212       -4.40288487522617        2.08862729046490
C           -5.40545525072968       -5.00706597208868        2.30591991030945
N           -5.04847427803904       -6.32447895739004        2.51178793439339
C           -3.72361447886282       -6.37572370654934        2.71753605159134
C           -2.96320125951849       -7.59497995365574        3.04352522508714
C           -5.98960944781253       -7.42392585012484        2.49564381516632
C           -6.53203682614647       -7.69647587335655        1.08727656789925
C           -5.49278700557285       -8.29688468909189        0.13084753647268
C           -5.08547871742487       -9.68392637966476        0.57981248576107
O           -4.40902295243079       -9.90269310511027        1.55628978044172
O           -5.57287470208585      -10.62836733612297       -0.19891679141160
Cl          -8.14743818675887       -2.23228579268148        1.66103842164612
H            0.64026364144033        0.12082491136134       -0.67786439424348
H            0.92942351119693        0.30180539004893       -2.40359396383303
H            2.25862295753940       -0.13695398070149       -1.33293890475082
H           -0.18717234820224       -1.88129420315895       -1.89806378225800
H            1.38041071469176       -2.07655984410646       -2.66778702499680
H            1.19500588324331       -3.69441447784960       -0.88689046723153
H            2.45396234179327       -2.52909451738442       -0.51287646937128
H            1.18890506173787       -3.04565376495807        1.48433321633539
H            1.02053405811979       -1.35413209945698        1.06035480716729
H           -1.09782928601060       -2.17449986000392        1.81043524174837
H           -1.20904272726105       -1.75144447140324        0.11038596803294
H           -2.42234837488444       -3.78435274767017        0.33859611866244
H           -0.92518584734942       -4.16897450875313       -0.49132331470598
H           -1.21760378035421       -5.91702764593726        1.07252077670266
H            0.04369501874158       -4.89263324397278        1.74694344873073
H           -1.37692269299070       -5.42936341174604        3.58334162720690
H           -1.76505483107342       -3.75968383260294        3.16314771379842
H           -3.34885665759403       -2.27072514192461        2.27780340515429
H           -7.55743179033804       -4.95961650736440        2.05282920906955
H           -1.90833027087147       -7.47450414305147        2.82021964726649
H           -3.06338075239562       -7.81997176327647        4.10705780991847
H           -3.33914955949052       -8.46021289700696        2.49515353402114
H           -5.50139315007356       -8.31623974822869        2.88730502979720
H           -6.81953094521325       -7.16076973193107        3.15654260167426
H           -7.37311983704568       -8.38467704481642        1.17800931295759
H           -6.90271619858957       -6.76928531760262        0.64974581717772
H           -5.92082815986117       -8.37197183128963       -0.86739326059629
H           -4.60515122369848       -7.66267742618273        0.09286956345423
H           -5.32156174058862      -11.52015344786604        0.09566158503665

          :  Hamiltonian                  GFN2-xTB          :
         :: total energy             -80.413837488245 Eh    ::
         :: gradient norm              0.000276664282 Eh/a0 ::
         :: HOMO-LUMO gap              2.272594752744 eV    ::
         :: SCC energy               -81.431507538871 Eh    ::
         :: -> dispersion             -0.058054985127 Eh    ::
         :: repulsion energy           1.017670050626 Eh    ::

    * Orbital Energies and Occupations

         #    Occupation            Energy/Eh            Energy/eV
      -------------------------------------------------------------
         1        2.0000           -1.1630348             -31.6478
       ...           ...                  ...                  ...
        60        2.0000           -0.5479614             -14.9108
        61        2.0000           -0.5434001             -14.7867
        62        2.0000           -0.5369030             -14.6099
        63        2.0000           -0.5319465             -14.4750
        64        2.0000           -0.5284885             -14.3809
        65        2.0000           -0.5280057             -14.3678
        66        2.0000           -0.5259535             -14.3119
        67        2.0000           -0.5221751             -14.2091
        68        2.0000           -0.5171856             -14.0733
        69        2.0000           -0.5111279             -13.9085
        70        2.0000           -0.4970023             -13.5241
        71        2.0000           -0.4935194             -13.4293
        72        2.0000           -0.4898575             -13.3297 (HOMO)
        73                         -0.4063412             -11.0571 (LUMO)
        74                         -0.3672478              -9.9933
        75                         -0.3555277              -9.6744
        76                         -0.3522273              -9.5846
        77                         -0.2555179              -6.9530
        78                         -0.2483714              -6.7585
        79                         -0.2411051              -6.5608
        80                         -0.1767585              -4.8098
        81                         -0.1275687              -3.4713
        82                         -0.1010277              -2.7491
        83                         -0.0972581              -2.6465
       ...                                ...                  ...
       143                          0.5259077              14.3107
      -------------------------------------------------------------
                  HL-Gap            0.0835163 Eh            2.2726 eV

     #   Z          covCN         q      C6AA      α(0)
     1   6 C        3.751    -0.105    22.563     6.774
     2   6 C        3.799    -0.054    21.547     6.609
     3   6 C        3.800    -0.061    21.667     6.627
     4   6 C        3.800    -0.061    21.680     6.629
     5   6 C        3.800    -0.061    21.673     6.628
     6   6 C        3.800    -0.066    21.768     6.643
     7   6 C        3.801    -0.069    21.823     6.651
     8   6 C        3.740    -0.022    21.053     6.547
     9   7 N        2.829     0.017    20.957     6.799
    10   6 C        3.094     0.037    27.064     8.527
    11   6 C        2.954    -0.051    29.254     8.871
    12   6 C        2.921     0.093    25.937     8.352
    13  17 Cl       1.004    -0.080   101.654    15.425
    14   6 C        2.921     0.093    25.933     8.351
    15   6 C        2.953    -0.053    29.312     8.880
    16   6 C        3.097     0.033    27.152     8.540
    17   7 N        2.828     0.016    20.967     6.801
    18   6 C        3.073     0.123    25.234     8.236
    19   6 C        3.755    -0.154    23.534     6.917
    20   6 C        3.740    -0.028    21.160     6.563
    21   6 C        3.803    -0.067    21.780     6.644
    22   6 C        3.802    -0.099    22.381     6.735
    23   6 C        2.690     0.365    20.802     7.464
    24   8 O        0.856    -0.429    22.261     6.326
    25   8 O        1.660    -0.344    19.788     6.005
    26  17 Cl       1.003    -0.080   101.671    15.426
    27   1 H        0.925     0.033     2.541     2.493
    28   1 H        0.925     0.038     2.479     2.462
    29   1 H        0.925     0.039     2.459     2.452
    30   1 H        0.924     0.027     2.625     2.534
    31   1 H        0.924     0.034     2.528     2.486
    32   1 H        0.924     0.026     2.644     2.543
    33   1 H        0.924     0.039     2.456     2.451
    34   1 H        0.924     0.027     2.633     2.538
    35   1 H        0.924     0.045     2.383     2.414
    36   1 H        0.924     0.020     2.729     2.583
    37   1 H        0.924     0.047     2.352     2.398
    38   1 H        0.924     0.026     2.647     2.544
    39   1 H        0.925     0.058     2.225     2.333
    40   1 H        0.924     0.043     2.413     2.429
    41   1 H        0.925     0.072     2.066     2.248
    42   1 H        0.924     0.076     2.022     2.224
    43   1 H        0.925     0.088     1.900     2.156
    44   1 H        0.926     0.102     1.767     2.079
    45   1 H        0.926     0.096     1.824     2.112
    46   1 H        0.925     0.093     1.846     2.125
    47   1 H        0.924     0.104     1.752     2.070
    48   1 H        0.924     0.135     1.498     1.914
    49   1 H        0.925     0.103     1.756     2.072
    50   1 H        0.924     0.085     1.925     2.170
    51   1 H        0.924     0.076     2.021     2.223
    52   1 H        0.925     0.070     2.086     2.258
    53   1 H        0.925     0.089     1.888     2.149
    54   1 H        0.924     0.067     2.120     2.277
    55   1 H        0.804     0.348     0.594     1.211

Wiberg/Mayer (AO) data.
largest (>0.10) Wiberg bond orders for each atom

     #   Z sym  total        # sym  WBO       # sym  WBO       # sym  WBO
 ---------------------------------------------------------------------------
     1   6 C    3.996 --     2 C    1.020    29 H    0.987    28 H    0.987
                            27 H    0.986
     2   6 C    3.998 --     1 C    1.020     3 C    1.008    31 H    0.978
                            30 H    0.976
     3   6 C    3.997 --     2 C    1.008     4 C    1.008    33 H    0.976
                            32 H    0.975
     4   6 C    3.996 --     3 C    1.008     5 C    1.007    35 H    0.974
                            34 H    0.974
     5   6 C    3.996 --     6 C    1.007     4 C    1.007    37 H    0.973
                            36 H    0.970
     6   6 C    3.993 --     5 C    1.007     7 C    1.007    38 H    0.975
                            39 H    0.969
     7   6 C    3.985 --     6 C    1.007     8 C    0.987    40 H    0.974
                            41 H    0.965
     8   6 C    3.939 --     7 C    0.987     9 N    0.966    42 H    0.964
                            43 H    0.959
     9   7 N    3.661 --    18 C    1.325    10 C    1.132     8 C    0.966
    10   6 C    3.962 --    11 C    1.339    16 C    1.269     9 N    1.132
    11   6 C    3.978 --    12 C    1.441    10 C    1.339    44 H    0.951
                            15 C    0.103
    12   6 C    3.936 --    11 C    1.441    14 C    1.288    13 Cl   1.040
    13  17 Cl   1.205 --    12 C    1.040
    14   6 C    3.936 --    15 C    1.440    12 C    1.288    26 Cl   1.040
    15   6 C    3.979 --    14 C    1.440    16 C    1.341    45 H    0.957
                            11 C    0.103
    16   6 C    3.961 --    15 C    1.341    10 C    1.269    17 N    1.130
    17   7 N    3.658 --    18 C    1.318    16 C    1.130    20 C    0.972
    18   6 C    3.940 --     9 N    1.325    17 N    1.318    19 C    1.054
    19   6 C    3.966 --    18 C    1.054    46 H    0.966    47 H    0.935
                            48 H    0.929
    20   6 C    3.943 --    21 C    0.994    17 N    0.972    50 H    0.959
                            49 H    0.958
    21   6 C    3.987 --    20 C    0.994    22 C    0.989    51 H    0.970
                            52 H    0.968
    22   6 C    3.992 --    21 C    0.989    23 C    0.971    53 H    0.970
                            54 H    0.962
    23   6 C    3.913 --    24 O    1.719    25 O    1.191    22 C    0.971
    24   8 O    2.029 --    23 C    1.719    25 O    0.181
    25   8 O    2.254 --    23 C    1.191    55 H    0.852    24 O    0.181
    26  17 Cl   1.204 --    14 C    1.040
    27   1 H    0.999 --     1 C    0.986
    28   1 H    0.999 --     1 C    0.987
    29   1 H    0.998 --     1 C    0.987
    30   1 H    0.999 --     2 C    0.976
    31   1 H    0.999 --     2 C    0.978
    32   1 H    0.999 --     3 C    0.975
    33   1 H    0.998 --     3 C    0.976
    34   1 H    0.999 --     4 C    0.974
    35   1 H    0.998 --     4 C    0.974
    36   1 H    1.000 --     5 C    0.970
    37   1 H    0.998 --     5 C    0.973
    38   1 H    0.999 --     6 C    0.975
    39   1 H    0.996 --     6 C    0.969
    40   1 H    0.998 --     7 C    0.974
    41   1 H    0.994 --     7 C    0.965
    42   1 H    0.993 --     8 C    0.964
    43   1 H    0.992 --     8 C    0.959
    44   1 H    0.989 --    11 C    0.951
    45   1 H    0.990 --    15 C    0.957
    46   1 H    0.990 --    19 C    0.966
    47   1 H    0.983 --    19 C    0.935
    48   1 H    0.980 --    19 C    0.929
    49   1 H    0.989 --    20 C    0.958
    50   1 H    0.992 --    20 C    0.959
    51   1 H    0.993 --    21 C    0.970
    52   1 H    0.995 --    21 C    0.968
    53   1 H    0.992 --    22 C    0.970
    54   1 H    0.996 --    22 C    0.962
    55   1 H    0.879 --    25 O    0.852
 ---------------------------------------------------------------------------

molecular dipole:
                 x           y           z       tot (Debye)
 q only:       -7.360     -11.888       3.841
   full:       -7.776     -11.487       3.829      36.576

           -------------------------------------------------
          | TOTAL ENERGY              -80.413837488245 Eh   |
          | GRADIENT NORM               0.000276664282 Eh/α |
          | HOMO-LUMO GAP               2.272594752744 eV   |
           -------------------------------------------------

 * finished run on 2024/12/20 at 07:08:13.194
