   * xtb version 6.7.1 (edcfbbe) compiled by 'conda@3ef47c1a292c' on 2024-11-25

   ID    Z sym.   atoms
    1    8 O      1, 14
    2    6 C      2, 4, 6-13, 15-20
    3    7 N      3, 5
    4    1 H      21-35

          program call               : xtb C1008.xyz --opt --namespace C1008 --charge +1
          :  Hamiltonian                  GFN2-xTB          :
 * total energy  :   -55.4875653 Eh     change       -0.6572094E-09 Eh
 * total energy  :   -55.4948907 Eh     change       -0.7325369E-02 Eh
 * total energy  :   -55.4969805 Eh     change       -0.2089748E-02 Eh
 * total energy  :   -55.4973136 Eh     change       -0.3331277E-03 Eh
 * total energy  :   -55.4975121 Eh     change       -0.1985003E-03 Eh
 * total energy  :   -55.4976701 Eh     change       -0.1580535E-03 Eh
 * total energy  :   -55.4979097 Eh     change       -0.2395939E-03 Eh
 * total energy  :   -55.4981771 Eh     change       -0.2673836E-03 Eh
 * total energy  :   -55.4984733 Eh     change       -0.2962058E-03 Eh
 * total energy  :   -55.4987442 Eh     change       -0.2708650E-03 Eh
 * total energy  :   -55.5037892 Eh     change       -0.2359339E-04 Eh
 * total energy  :   -55.5038014 Eh     change       -0.1225832E-04 Eh
 * total energy  :   -55.5038133 Eh     change       -0.1185145E-04 Eh
 * total energy  :   -55.5038262 Eh     change       -0.1288028E-04 Eh
 * total energy  :   -55.5038377 Eh     change       -0.1157917E-04 Eh
 * total energy  :   -55.5038418 Eh     change       -0.4091742E-05 Eh
 * total energy  :   -55.5038483 Eh     change       -0.6475748E-05 Eh
 * total energy  :   -55.5038512 Eh     change       -0.2857513E-05 Eh
 * total energy  :   -55.5038543 Eh     change       -0.3117604E-05 Eh
   *** GEOMETRY OPTIMIZATION CONVERGED AFTER 60 ITERATIONS ***

 final structure:
================
35
 xtb: 6.7.1 (edcfbbe)
O            2.45155942215567       -0.91028006220547       -0.34344356644093
C            1.51280163876500       -0.22065671518406        0.39498224378094
N            1.48749225444460       -0.68518779707960        1.78190396868976
C            0.89860312753913       -1.80703326484330        2.19321103533214
N            1.12711530782037       -2.02610921163729        3.48369031674997
C            1.88022265595518       -0.97022153451676        3.96596643812297
C            2.12869791745713       -0.12141664268079        2.87006804223310
C            2.88687063222090        1.03377541355907        3.01203624352451
C            3.37910778171891        1.30999369266355        4.27161818456865
C            3.12887251483719        0.47002542420462        5.35904968860454
C            2.37952266956342       -0.68182025050972        5.22905468791011
C            0.41709094635856       -3.00618208366071        4.24878891279717
C           -1.10555894639505       -2.73492833186146        4.06577800263760
O           -1.44089252954652       -1.95204882513113        3.20615797222385
C           -2.02161643595042       -3.46206536214419        4.93606394484888
C           -1.61197421313639       -4.46545519040460        5.82175991379286
C           -2.54573644784282       -5.11946676587508        6.60044107684211
C           -3.89027004853111       -4.78473093149441        6.51575775310167
C           -4.30712513434975       -3.79396147707281        5.63958404073462
C           -3.38253134456604       -3.13851442256002        4.85285455341970
H            3.34473385698158       -0.56869900958765       -0.21106863577894
H            1.67554465670001        0.86303566484319        0.40998790253609
H            0.53616824943076       -0.43878717284814       -0.04846085475560
H            0.35489821990169       -2.46428882555775        1.54157062005086
H            3.08603530980607        1.69117490506407        2.18153721346469
H            3.97251840019877        2.19747557174121        4.42241643008858
H            3.53317554605628        0.72964876134170        6.32420073881689
H            2.19592743720525       -1.32209405581502        6.07633054705944
H            0.63069718209303       -4.01343530800389        3.87999046368408
H            0.70449851976449       -2.92975767164162        5.29612772367776
H           -0.57444179718025       -4.75151937630378        5.89780226610938
H           -2.22700401933795       -5.89620926716006        7.27801338580944
H           -4.61099284711281       -5.30120272235614        7.13030287409658
H           -5.35200573741321       -3.53641757714073        5.57012926768695
H           -3.68703474561042       -2.36584957814624        4.16340660397196

          :  Hamiltonian                  GFN2-xTB          :
         :: total energy             -55.503854289841 Eh    ::
         :: gradient norm              0.000561014126 Eh/a0 ::
         :: HOMO-LUMO gap              3.064946228905 eV    ::
         :: SCC energy               -56.367212512293 Eh    ::
         :: -> dispersion             -0.035297967275 Eh    ::
         :: repulsion energy           0.863358222453 Eh    ::

    * Orbital Energies and Occupations

         #    Occupation            Energy/Eh            Energy/eV
      -------------------------------------------------------------
         1        2.0000           -0.8745252             -23.7970
       ...           ...                  ...                  ...
        38        2.0000           -0.5985471             -16.2873
        39        2.0000           -0.5951131             -16.1939
        40        2.0000           -0.5918309             -16.1045
        41        2.0000           -0.5825501             -15.8520
        42        2.0000           -0.5801319             -15.7862
        43        2.0000           -0.5704189             -15.5219
        44        2.0000           -0.5570436             -15.1579
        45        2.0000           -0.5498620             -14.9625
        46        2.0000           -0.5466851             -14.8761
        47        2.0000           -0.5363140             -14.5938
        48        2.0000           -0.5284106             -14.3788
        49        2.0000           -0.5278213             -14.3627
        50        2.0000           -0.5236749             -14.2499 (HOMO)
        51                         -0.4110402             -11.1850 (LUMO)
        52                         -0.4089903             -11.1292
        53                         -0.3632397              -9.8843
        54                         -0.3554742              -9.6729
        55                         -0.3400346              -9.2528
        56                         -0.3125170              -8.5040
        57                         -0.2379167              -6.4740
        58                         -0.2030066              -5.5241
        59                         -0.1761783              -4.7941
        60                         -0.1339781              -3.6457
        61                         -0.0833369              -2.2677
       ...                                ...                  ...
        95                          0.5520139              15.0211
      -------------------------------------------------------------
                  HL-Gap            0.1126347 Eh            3.0649 eV

     #   Z          covCN         q      C6AA      α(0)
     1   8 O        1.657    -0.401    20.860     6.166
     2   6 C        3.614     0.125    18.995     6.290
     3   7 N        2.823    -0.001    21.280     6.851
     4   6 C        3.064     0.089    25.950     8.353
     5   7 N        2.829     0.044    20.476     6.721
     6   6 C        3.112     0.041    26.934     8.502
     7   6 C        3.109     0.045    26.852     8.490
     8   6 C        2.909    -0.034    28.846     8.807
     9   6 C        2.925    -0.018    28.447     8.747
    10   6 C        2.925    -0.018    28.461     8.749
    11   6 C        2.909    -0.031    28.783     8.797
    12   6 C        3.745    -0.045    21.448     6.606
    13   6 C        2.823     0.227    23.233     7.898
    14   8 O        0.857    -0.355    20.801     6.115
    15   6 C        2.970    -0.016    28.409     8.743
    16   6 C        2.919    -0.026    28.660     8.779
    17   6 C        2.917    -0.019    28.475     8.750
    18   6 C        2.920    -0.006    28.173     8.704
    19   6 C        2.916    -0.017    28.440     8.745
    20   6 C        2.927    -0.009    28.232     8.714
    21   1 H        0.805     0.319     0.666     1.282
    22   1 H        0.924     0.071     2.071     2.250
    23   1 H        0.924     0.100     1.788     2.091
    24   1 H        0.926     0.123     1.592     1.973
    25   1 H        0.926     0.068     2.107     2.270
    26   1 H        0.926     0.081     1.967     2.193
    27   1 H        0.926     0.081     1.972     2.196
    28   1 H        0.926     0.067     2.117     2.275
    29   1 H        0.924     0.099     1.792     2.093
    30   1 H        0.925     0.100     1.787     2.091
    31   1 H        0.926     0.043     2.409     2.427
    32   1 H        0.926     0.063     2.169     2.303
    33   1 H        0.926     0.069     2.101     2.267
    34   1 H        0.926     0.067     2.118     2.276
    35   1 H        0.926     0.074     2.042     2.234

Wiberg/Mayer (AO) data.
largest (>0.10) Wiberg bond orders for each atom

     #   Z sym  total        # sym  WBO       # sym  WBO       # sym  WBO
 ---------------------------------------------------------------------------
     1   8 O    2.015 --     2 C    1.044    21 H    0.883
     2   6 C    3.929 --     1 O    1.044    22 H    0.959    23 H    0.956
                             3 N    0.937
     3   7 N    3.652 --     4 C    1.353     7 C    1.118     2 C    0.937
     4   6 C    3.950 --     5 N    1.366     3 N    1.353    24 H    0.950
     5   7 N    3.677 --     4 C    1.366     6 C    1.111    12 C    0.997
     6   6 C    3.951 --    11 C    1.348     7 C    1.276     5 N    1.111
     7   6 C    3.952 --     8 C    1.346     6 C    1.276     3 N    1.118
     8   6 C    3.986 --     9 C    1.488     7 C    1.346    25 H    0.963
                            11 C    0.118
     9   6 C    3.985 --     8 C    1.488    10 C    1.384    26 H    0.966
    10   6 C    3.983 --    11 C    1.487     9 C    1.384    27 H    0.966
    11   6 C    3.987 --    10 C    1.487     6 C    1.348    28 H    0.962
                             8 C    0.118
    12   6 C    3.949 --     5 N    0.997    30 H    0.955    29 H    0.942
                            13 C    0.920
    13   6 C    3.927 --    14 O    1.801    15 C    1.082    12 C    0.920
    14   8 O    2.115 --    13 C    1.801
    15   6 C    3.981 --    16 C    1.351    20 C    1.347    13 C    1.082
    16   6 C    3.991 --    17 C    1.473    15 C    1.351    31 H    0.966
                            19 C    0.102
    17   6 C    3.990 --    16 C    1.473    18 C    1.417    32 H    0.968
    18   6 C    3.985 --    19 C    1.427    17 C    1.417    33 H    0.968
    19   6 C    3.988 --    20 C    1.464    18 C    1.427    34 H    0.967
                            16 C    0.102
    20   6 C    3.984 --    19 C    1.464    15 C    1.347    35 H    0.964
    21   1 H    0.898 --     1 O    0.883
    22   1 H    0.994 --     2 C    0.959
    23   1 H    0.989 --     2 C    0.956
    24   1 H    0.984 --     4 C    0.950
    25   1 H    0.995 --     8 C    0.963
    26   1 H    0.993 --     9 C    0.966
    27   1 H    0.993 --    10 C    0.966
    28   1 H    0.995 --    11 C    0.962
    29   1 H    0.989 --    12 C    0.942
    30   1 H    0.990 --    12 C    0.955
    31   1 H    0.998 --    16 C    0.966
    32   1 H    0.996 --    17 C    0.968
    33   1 H    0.995 --    18 C    0.968
    34   1 H    0.995 --    19 C    0.967
    35   1 H    0.994 --    20 C    0.964
 ---------------------------------------------------------------------------

molecular dipole:
                 x           y           z       tot (Debye)
 q only:        1.851      -3.115       7.204
   full:        1.963      -3.172       7.283      20.799

           -------------------------------------------------
          | TOTAL ENERGY              -55.503854289841 Eh   |
          | GRADIENT NORM               0.000561014126 Eh/α |
          | HOMO-LUMO GAP               3.064946228905 eV   |
           -------------------------------------------------

 * finished run on 2024/12/20 at 07:08:14.997
