   * xtb version 6.7.1 (edcfbbe) compiled by 'conda@3ef47c1a292c' on 2024-11-25

   ID    Z sym.   atoms
    1    6 C      1-4, 6, 7, 9-11
    2    7 N      5, 8
    3    1 H      12-28

          program call               : xtb C1000.xyz --opt --namespace C1000 --charge +1
          :  Hamiltonian                  GFN2-xTB          :
 * total energy  :   -33.4249242 Eh     change       -0.2268763E-10 Eh
 * total energy  :   -33.4280749 Eh     change       -0.3150754E-02 Eh
 * total energy  :   -33.4287913 Eh     change       -0.7163865E-03 Eh
 * total energy  :   -33.4289367 Eh     change       -0.1453298E-03 Eh
 * total energy  :   -33.4290443 Eh     change       -0.1075882E-03 Eh
 * total energy  :   -33.4290847 Eh     change       -0.4040287E-04 Eh
 * total energy  :   -33.4291639 Eh     change       -0.7925722E-04 Eh
 * total energy  :   -33.4292401 Eh     change       -0.7623535E-04 Eh
 * total energy  :   -33.4292943 Eh     change       -0.5419685E-04 Eh
 * total energy  :   -33.4293245 Eh     change       -0.3013076E-04 Eh
 * total energy  :   -33.4294309 Eh     change       -0.3002563E-04 Eh
 * total energy  :   -33.4294414 Eh     change       -0.1043114E-04 Eh
 * total energy  :   -33.4294556 Eh     change       -0.1426349E-04 Eh
 * total energy  :   -33.4294736 Eh     change       -0.1798069E-04 Eh
 * total energy  :   -33.4294841 Eh     change       -0.1049561E-04 Eh
 * total energy  :   -33.4294908 Eh     change       -0.6676522E-05 Eh
 * total energy  :   -33.4294982 Eh     change       -0.7458185E-05 Eh
 * total energy  :   -33.4295060 Eh     change       -0.7802210E-05 Eh
 * total energy  :   -33.4295090 Eh     change       -0.2979230E-05 Eh
   *** GEOMETRY OPTIMIZATION CONVERGED AFTER 22 ITERATIONS ***

 final structure:
================
28
 xtb: 6.7.1 (edcfbbe)
C            1.26386485696639       -0.01327865647127        0.19336510686071
C            0.62890725702808        1.34482598188905        0.46830287476290
C            1.01132526525534        2.40816840529826       -0.56212017811310
C            0.43770111222842        2.15332759445537       -1.96231356706210
N           -1.00539941614651        2.22297764038080       -1.95900370659700
C           -1.85746928052311        1.17518091357199       -1.79352756252541
C           -3.12382220069480        1.67780415551961       -1.78820361689735
N           -3.02487582019745        3.02534059726686       -1.95008030585092
C           -1.73416531336796        3.33254936800044       -2.04383852177366
C           -4.13217653119774        3.95735391973758       -1.95271446009225
C           -4.51825069505033        4.34402968598899       -0.52827018322572
H            0.91211736818086       -0.45065794420061       -0.73810046999371
H            1.02277231898382       -0.70411051401923        0.99605032740606
H            2.34543274069518        0.07755536214702        0.14060824723934
H           -0.45847175723982        1.24426393384064        0.52196073634817
H            0.96665361070562        1.69286591887172        1.44509220914837
H            0.67812276372278        3.38876878243272       -0.21587796245693
H            2.09706298997872        2.43973823153579       -0.65455405608687
H            0.81968260909017        2.90366935814218       -2.65739423544421
H            0.73304009421995        1.16480342639558       -2.31487359969457
H           -1.51945123544073        0.16314473269486       -1.70324904107928
H           -4.06454967922222        1.17615807003722       -1.68793937006269
H           -1.34207444688209        4.32154799374857       -2.18169401083249
H           -3.83797025732446        4.84270866511727       -2.51921794462912
H           -4.97679492872239        3.48182091572373       -2.45517109616775
H           -3.69129906452278        4.83457336184426       -0.02103601908246
H           -5.35772850519067        5.03158518096686       -0.55806393108731
H           -4.81281385533167        3.46915491908275        0.04549433698910

          :  Hamiltonian                  GFN2-xTB          :
         :: total energy             -33.429509012787 Eh    ::
         :: gradient norm              0.000331040023 Eh/a0 ::
         :: HOMO-LUMO gap              3.845891940722 eV    ::
         :: SCC energy               -33.941404085575 Eh    ::
         :: -> dispersion             -0.020091971401 Eh    ::
         :: repulsion energy           0.511895072788 Eh    ::

    * Orbital Energies and Occupations

         #    Occupation            Energy/Eh            Energy/eV
      -------------------------------------------------------------
         1        2.0000           -0.8946743             -24.3453
       ...           ...                  ...                  ...
        19        2.0000           -0.6512252             -17.7207
        20        2.0000           -0.6484159             -17.6443
        21        2.0000           -0.6342773             -17.2596
        22        2.0000           -0.6162750             -16.7697
        23        2.0000           -0.6074673             -16.5300
        24        2.0000           -0.6033902             -16.4191
        25        2.0000           -0.5968685             -16.2416
        26        2.0000           -0.5931263             -16.1398
        27        2.0000           -0.5902261             -16.0609
        28        2.0000           -0.5843058             -15.8998
        29        2.0000           -0.5626661             -15.3109
        30        2.0000           -0.5537491             -15.0683
        31        2.0000           -0.5476392             -14.9020 (HOMO)
        32                         -0.4063052             -11.0561 (LUMO)
        33                         -0.3694744             -10.0539
        34                         -0.1843819              -5.0173
        35                         -0.1303658              -3.5474
        36                         -0.0634873              -1.7276
        37                         -0.0505242              -1.3748
        38                         -0.0491819              -1.3383
        39                         -0.0351233              -0.9558
        40                         -0.0295904              -0.8052
        41                         -0.0204468              -0.5564
        42                         -0.0104141              -0.2834
       ...                                ...                  ...
        61                          0.4642183              12.6320
      -------------------------------------------------------------
                  HL-Gap            0.1413339 Eh            3.8459 eV

     #   Z          covCN         q      C6AA      α(0)
     1   6 C        3.752    -0.114    22.734     6.799
     2   6 C        3.800    -0.061    21.669     6.628
     3   6 C        3.802    -0.071    21.852     6.655
     4   6 C        3.742    -0.028    21.157     6.562
     5   7 N        2.868     0.071    20.001     6.642
     6   6 C        3.075    -0.005    28.061     8.685
     7   6 C        3.074    -0.007    28.122     8.695
     8   7 N        2.869     0.066    20.087     6.657
     9   6 C        3.103     0.046    26.840     8.489
    10   6 C        3.741    -0.022    21.048     6.546
    11   6 C        3.753    -0.124    22.940     6.830
    12   1 H        0.925     0.032     2.561     2.502
    13   1 H        0.925     0.055     2.263     2.352
    14   1 H        0.925     0.052     2.293     2.368
    15   1 H        0.924     0.029     2.606     2.524
    16   1 H        0.924     0.058     2.217     2.328
    17   1 H        0.924     0.049     2.335     2.389
    18   1 H        0.925     0.077     2.009     2.217
    19   1 H        0.924     0.082     1.962     2.191
    20   1 H        0.924     0.095     1.827     2.114
    21   1 H        0.926     0.110     1.701     2.039
    22   1 H        0.926     0.107     1.722     2.052
    23   1 H        0.926     0.110     1.693     2.035
    24   1 H        0.924     0.085     1.928     2.171
    25   1 H        0.924     0.092     1.858     2.132
    26   1 H        0.925     0.063     2.163     2.300
    27   1 H        0.925     0.085     1.925     2.170
    28   1 H        0.925     0.067     2.117     2.275

Wiberg/Mayer (AO) data.
largest (>0.10) Wiberg bond orders for each atom

     #   Z sym  total        # sym  WBO       # sym  WBO       # sym  WBO
 ---------------------------------------------------------------------------
     1   6 C    3.993 --     2 C    1.021    14 H    0.986    13 H    0.985
                            12 H    0.984
     2   6 C    3.994 --     1 C    1.021     3 C    1.008    15 H    0.975
                            16 H    0.973
     3   6 C    3.984 --     2 C    1.008     4 C    0.981    17 H    0.975
                            18 H    0.966
     4   6 C    3.935 --     3 C    0.981     5 N    0.968    19 H    0.965
                            20 H    0.961
     5   7 N    3.720 --     9 C    1.362     6 C    1.231     4 C    0.968
     6   6 C    3.950 --     7 C    1.586     5 N    1.231    21 H    0.960
     7   6 C    3.949 --     6 C    1.586     8 N    1.231    22 H    0.961
     8   7 N    3.717 --     9 C    1.362     7 C    1.231    10 C    0.966
     9   6 C    3.948 --     5 N    1.362     8 N    1.362    23 H    0.955
    10   6 C    3.938 --    11 C    1.001    24 H    0.967     8 N    0.966
                            25 H    0.963
    11   6 C    3.981 --    10 C    1.001    26 H    0.985    28 H    0.984
                            27 H    0.976
    12   1 H    0.999 --     1 C    0.984
    13   1 H    0.997 --     1 C    0.985
    14   1 H    0.997 --     1 C    0.986
    15   1 H    0.999 --     2 C    0.975
    16   1 H    0.996 --     2 C    0.973
    17   1 H    0.998 --     3 C    0.975
    18   1 H    0.993 --     3 C    0.966
    19   1 H    0.993 --     4 C    0.965
    20   1 H    0.990 --     4 C    0.961
    21   1 H    0.988 --     6 C    0.960
    22   1 H    0.988 --     7 C    0.961
    23   1 H    0.988 --     9 C    0.955
    24   1 H    0.993 --    10 C    0.967
    25   1 H    0.991 --    10 C    0.963
    26   1 H    0.996 --    11 C    0.985
    27   1 H    0.992 --    11 C    0.976
    28   1 H    0.995 --    11 C    0.984
 ---------------------------------------------------------------------------

molecular dipole:
                 x           y           z       tot (Debye)
 q only:       -3.587       5.033      -3.104
   full:       -3.590       5.104      -3.232      17.862

           -------------------------------------------------
          | TOTAL ENERGY              -33.429509012787 Eh   |
          | GRADIENT NORM               0.000331040023 Eh/α |
          | HOMO-LUMO GAP               3.845891940722 eV   |
           -------------------------------------------------

 * finished run on 2024/12/20 at 07:08:03.515
