   * xtb version 6.7.1 (edcfbbe) compiled by 'conda@3ef47c1a292c' on 2024-11-25

   ID    Z sym.   atoms
    1    6 C      1, 2, 4-8
    2    7 N      3
    3    1 H      9-18

          program call               : xtb C1009.xyz --opt --namespace C1009 --charge +1
          :  Hamiltonian                  GFN2-xTB          :
 * total energy  :   -22.5945307 Eh     change       -0.2076206E-10 Eh
 * total energy  :   -22.5961726 Eh     change       -0.1641877E-02 Eh
 * total energy  :   -22.5963762 Eh     change       -0.2036805E-03 Eh
 * total energy  :   -22.5963988 Eh     change       -0.2252461E-04 Eh
 * total energy  :   -22.5964089 Eh     change       -0.1018715E-04 Eh
 * total energy  :   -22.5964122 Eh     change       -0.3261991E-05 Eh
   *** GEOMETRY OPTIMIZATION CONVERGED AFTER 6 ITERATIONS ***

 final structure:
================
18
 xtb: 6.7.1 (edcfbbe)
C            1.04052929448739       -0.03734517735497        0.13877401927525
C            0.33445428095434        0.02026272465423        1.49150886293854
N            0.76436363259086        1.19429447963727        2.23638200488668
C            0.13031809427721        2.35870950922453        2.06090432349706
C            0.54299223839203        3.50264627848476        2.71286328613548
C            1.63945214794273        3.44071007269368        3.56365617296176
C            2.28947123732845        2.22383216250843        3.72574857955312
C            1.82699494846795        1.11645244361233        3.04443147071239
H            0.80616264470312        0.83777959641228       -0.46210749794080
H            0.70858445057631       -0.92002076757624       -0.39944018665209
H            2.11878337425778       -0.09824520622749        0.26350944894569
H           -0.74622915814965        0.06952578712918        1.34686246879008
H            0.56860447521887       -0.87295755665589        2.07312974729337
H           -0.71844495747331        2.36449648710034        1.39237498156416
H            0.00995128126444        4.42694530970748        2.55684503116717
H            1.97827324390482        4.31978491691440        4.08932055612011
H            3.14521549122916        2.13106033548013        4.37529755437082
H            2.30414328002752        0.15221860425557        3.14412917638119

          :  Hamiltonian                  GFN2-xTB          :
         :: total energy             -22.596412206124 Eh    ::
         :: gradient norm              0.000870344622 Eh/a0 ::
         :: HOMO-LUMO gap              3.814953874723 eV    ::
         :: SCC energy               -22.988635498972 Eh    ::
         :: -> dispersion             -0.011802204984 Eh    ::
         :: repulsion energy           0.392223292847 Eh    ::

    * Orbital Energies and Occupations

         #    Occupation            Energy/Eh            Energy/eV
      -------------------------------------------------------------
         1        2.0000           -0.8873214             -24.1452
       ...           ...                  ...                  ...
         9        2.0000           -0.7269096             -19.7802
        10        2.0000           -0.7192008             -19.5704
        11        2.0000           -0.7022702             -19.1097
        12        2.0000           -0.6878337             -18.7169
        13        2.0000           -0.6876129             -18.7109
        14        2.0000           -0.6689398             -18.2028
        15        2.0000           -0.6555245             -17.8377
        16        2.0000           -0.6314394             -17.1823
        17        2.0000           -0.6296126             -17.1326
        18        2.0000           -0.6225380             -16.9401
        19        2.0000           -0.6224966             -16.9390
        20        2.0000           -0.6149090             -16.7325
        21        2.0000           -0.6060176             -16.4906 (HOMO)
        22                         -0.4658206             -12.6756 (LUMO)
        23                         -0.4352074             -11.8426
        24                         -0.3143543              -8.5540
        25                         -0.1803210              -4.9068
        26                         -0.0831638              -2.2630
        27                         -0.0533928              -1.4529
        28                         -0.0490974              -1.3360
        29                         -0.0359522              -0.9783
        30                         -0.0183628              -0.4997
        31                         -0.0087905              -0.2392
        32                          0.0095647               0.2603
       ...                                ...                  ...
        42                          0.4409247              11.9982
      -------------------------------------------------------------
                  HL-Gap            0.1401970 Eh            3.8150 eV

     #   Z          covCN         q      C6AA      α(0)
     1   6 C        3.753    -0.125    22.950     6.832
     2   6 C        3.758    -0.033    21.207     6.566
     3   7 N        2.750     0.114    19.283     6.522
     4   6 C        2.892     0.034    27.244     8.558
     5   6 C        2.915    -0.009    28.234     8.713
     6   6 C        2.925     0.016    27.666     8.626
     7   6 C        2.915    -0.009    28.234     8.713
     8   6 C        2.892     0.034    27.244     8.558
     9   1 H        0.925     0.068     2.103     2.268
    10   1 H        0.925     0.092     1.858     2.132
    11   1 H        0.925     0.068     2.103     2.268
    12   1 H        0.924     0.095     1.827     2.114
    13   1 H        0.924     0.095     1.829     2.115
    14   1 H        0.926     0.112     1.678     2.026
    15   1 H        0.926     0.111     1.685     2.030
    16   1 H        0.926     0.111     1.692     2.034
    17   1 H        0.926     0.111     1.685     2.030
    18   1 H        0.926     0.112     1.679     2.026

Wiberg/Mayer (AO) data.
largest (>0.10) Wiberg bond orders for each atom

     #   Z sym  total        # sym  WBO       # sym  WBO       # sym  WBO
 ---------------------------------------------------------------------------
     1   6 C    3.978 --     2 C    0.994    11 H    0.983     9 H    0.983
                            10 H    0.973
     2   6 C    3.934 --     1 C    0.994    13 H    0.963    12 H    0.963
                             3 N    0.959
     3   7 N    3.769 --     8 C    1.330     4 C    1.330     2 C    0.959
     4   6 C    3.957 --     5 C    1.462     3 N    1.330    14 H    0.954
     5   6 C    3.980 --     4 C    1.462     6 C    1.421    15 H    0.958
     6   6 C    3.969 --     7 C    1.422     5 C    1.421    16 H    0.960
     7   6 C    3.980 --     8 C    1.461     6 C    1.422    17 H    0.958
     8   6 C    3.957 --     7 C    1.461     3 N    1.330    18 H    0.954
     9   1 H    0.995 --     1 C    0.983
    10   1 H    0.990 --     1 C    0.973
    11   1 H    0.995 --     1 C    0.983
    12   1 H    0.991 --     2 C    0.963
    13   1 H    0.991 --     2 C    0.963
    14   1 H    0.987 --     4 C    0.954
    15   1 H    0.987 --     5 C    0.958
    16   1 H    0.988 --     6 C    0.960
    17   1 H    0.987 --     7 C    0.958
    18   1 H    0.987 --     8 C    0.954
 ---------------------------------------------------------------------------

molecular dipole:
                 x           y           z       tot (Debye)
 q only:        1.908       3.101       4.478
   full:        1.880       3.097       4.526      14.734

           -------------------------------------------------
          | TOTAL ENERGY              -22.596412206124 Eh   |
          | GRADIENT NORM               0.000870344622 Eh/α |
          | HOMO-LUMO GAP               3.814953874723 eV   |
           -------------------------------------------------

 * finished run on 2024/12/20 at 07:08:15.316
