   * xtb version 6.7.1 (edcfbbe) compiled by 'conda@3ef47c1a292c' on 2024-11-25

   ID    Z sym.   atoms
    1    6 C      1-5, 7, 9-11
    2    7 N      6, 8
    3    1 H      12-24

          program call               : xtb C1005.xyz --opt --namespace C1005 --charge +1
          :  Hamiltonian                  GFN2-xTB          :
 * total energy  :   -31.3097700 Eh     change       -0.5660965E-09 Eh
 * total energy  :   -31.3130255 Eh     change       -0.3255513E-02 Eh
 * total energy  :   -31.3136824 Eh     change       -0.6568792E-03 Eh
 * total energy  :   -31.3137749 Eh     change       -0.9248163E-04 Eh
 * total energy  :   -31.3138172 Eh     change       -0.4230808E-04 Eh
 * total energy  :   -31.3138215 Eh     change       -0.4308536E-05 Eh
   *** GEOMETRY OPTIMIZATION CONVERGED AFTER 6 ITERATIONS ***

 final structure:
================
24
 xtb: 6.7.1 (edcfbbe)
C           -2.53830023113572       -0.18800806262839       -0.03157581189248
C           -1.11378287146444        0.10053644093213       -0.00016172589737
C            0.05974159368101        0.34880512488678        0.02781594070224
C            1.47997619091252        0.60614216434892        0.06958848259030
C            2.28657922926952       -0.69247545991312        0.02145877552387
N           -3.11269523269162        0.20415939840754       -1.30941752249955
C           -3.16171570737202        1.44628168127852       -1.78154816870573
N           -3.71502333386001        1.43662203692615       -2.99238762228167
C           -4.02549536883458        0.14873793982103       -3.30083845783509
C           -3.64450365345975       -0.62516014427388       -2.24472929709777
C           -3.94338725922714        2.58767293237739       -3.82523623278057
H           -2.70838647393792       -1.25874320263341        0.10849308201397
H           -3.04483682568682        0.35907122341030        0.77145240722387
H            1.70581074412177        1.15189630855477        0.98923719512576
H            1.74491774851905        1.24372177152782       -0.77830509493572
H            3.34835770892923       -0.46543234104665        0.05685943989982
H            2.03920466962158       -1.32677072635561        0.86887096752953
H            2.07916342098629       -1.24105739916456       -0.89426491618331
H           -2.80280631066082        2.31618400234798       -1.26570028240498
H           -4.48534880107903       -0.13205112032472       -4.22622815402063
H           -3.71850511950094       -1.68480911554457       -2.10808794498640
H           -4.59292617610618        3.30147320228464       -3.31762288758019
H           -2.99925220382309        3.08103739495936       -4.05824622444383
H           -4.41772573720089        2.27602594982157       -4.75292594706406

          :  Hamiltonian                  GFN2-xTB          :
         :: total energy             -31.313821523971 Eh    ::
         :: gradient norm              0.000871741780 Eh/a0 ::
         :: HOMO-LUMO gap              3.056316993055 eV    ::
         :: SCC energy               -31.873036649995 Eh    ::
         :: -> dispersion             -0.015807716307 Eh    ::
         :: repulsion energy           0.559215126024 Eh    ::

    * Orbital Energies and Occupations

         #    Occupation            Energy/Eh            Energy/eV
      -------------------------------------------------------------
         1        2.0000           -0.8972059             -24.4142
       ...           ...                  ...                  ...
        17        2.0000           -0.6622111             -18.0197
        18        2.0000           -0.6485569             -17.6481
        19        2.0000           -0.6433517             -17.5065
        20        2.0000           -0.6392949             -17.3961
        21        2.0000           -0.6154375             -16.7469
        22        2.0000           -0.6112223             -16.6322
        23        2.0000           -0.6028728             -16.4050
        24        2.0000           -0.5880382             -16.0013
        25        2.0000           -0.5807631             -15.8034
        26        2.0000           -0.5528467             -15.0437
        27        2.0000           -0.5446926             -14.8218
        28        2.0000           -0.5260478             -14.3145
        29        2.0000           -0.5209630             -14.1761 (HOMO)
        30                         -0.4086454             -11.1198 (LUMO)
        31                         -0.3710568             -10.0970
        32                         -0.2902547              -7.8982
        33                         -0.2762788              -7.5179
        34                         -0.1749703              -4.7612
        35                         -0.1256368              -3.4188
        36                         -0.0744654              -2.0263
        37                         -0.0496400              -1.3508
        38                         -0.0461529              -1.2559
        39                         -0.0192354              -0.5234
        40                         -0.0022703              -0.0618
       ...                                ...                  ...
        57                          1.2795957              34.8196
      -------------------------------------------------------------
                  HL-Gap            0.1123176 Eh            3.0563 eV

     #   Z          covCN         q      C6AA      α(0)
     1   6 C        3.743    -0.003    20.711     6.492
     2   6 C        1.967    -0.078    33.186     9.303
     3   6 C        1.968    -0.012    31.387     9.047
     4   6 C        3.803    -0.040    21.284     6.568
     5   6 C        3.757    -0.104    22.542     6.769
     6   7 N        2.876     0.073    19.964     6.636
     7   6 C        3.101     0.046    26.851     8.492
     8   7 N        2.867     0.078    19.890     6.624
     9   6 C        3.075    -0.008    28.133     8.696
    10   6 C        3.072    -0.005    28.081     8.689
    11   6 C        3.692    -0.087    22.352     6.765
    12   1 H        0.924     0.102     1.770     2.080
    13   1 H        0.924     0.097     1.811     2.104
    14   1 H        0.924     0.074     2.038     2.233
    15   1 H        0.924     0.068     2.110     2.272
    16   1 H        0.925     0.056     2.248     2.345
    17   1 H        0.925     0.050     2.321     2.382
    18   1 H        0.925     0.045     2.383     2.414
    19   1 H        0.926     0.116     1.649     2.008
    20   1 H        0.926     0.109     1.705     2.042
    21   1 H        0.926     0.109     1.706     2.042
    22   1 H        0.924     0.104     1.749     2.068
    23   1 H        0.924     0.104     1.751     2.069
    24   1 H        0.925     0.107     1.720     2.051

Wiberg/Mayer (AO) data.
largest (>0.10) Wiberg bond orders for each atom

     #   Z sym  total        # sym  WBO       # sym  WBO       # sym  WBO
 ---------------------------------------------------------------------------
     1   6 C    3.937 --     2 C    1.030    12 H    0.950     6 N    0.947
                            13 H    0.942
     2   6 C    3.966 --     3 C    2.789     1 C    1.030
     3   6 C    3.974 --     2 C    2.789     4 C    1.066
     4   6 C    3.993 --     3 C    1.066     5 C    0.993    15 H    0.947
                            14 H    0.947
     5   6 C    3.991 --     4 C    0.993    18 H    0.988    17 H    0.988
                            16 H    0.984
     6   7 N    3.721 --     7 C    1.367    10 C    1.239     1 C    0.947
     7   6 C    3.947 --     6 N    1.367     8 N    1.360    19 H    0.954
     8   7 N    3.722 --     7 C    1.360     9 C    1.234    11 C    0.989
     9   6 C    3.948 --    10 C    1.580     8 N    1.234    20 H    0.960
    10   6 C    3.950 --     9 C    1.580     6 N    1.239    21 H    0.961
    11   6 C    3.933 --     8 N    0.989    24 H    0.974    22 H    0.964
                            23 H    0.963
    12   1 H    0.989 --     1 C    0.950
    13   1 H    0.990 --     1 C    0.942
    14   1 H    0.994 --     4 C    0.947
    15   1 H    0.995 --     4 C    0.947
    16   1 H    0.996 --     5 C    0.984
    17   1 H    0.997 --     5 C    0.988
    18   1 H    0.998 --     5 C    0.988
    19   1 H    0.987 --     7 C    0.954
    20   1 H    0.988 --     9 C    0.960
    21   1 H    0.988 --    10 C    0.961
    22   1 H    0.989 --    11 C    0.964
    23   1 H    0.989 --    11 C    0.963
    24   1 H    0.988 --    11 C    0.974
 ---------------------------------------------------------------------------

molecular dipole:
                 x           y           z       tot (Debye)
 q only:       -5.470       1.724      -3.863
   full:       -5.579       1.770      -3.855      17.814

           -------------------------------------------------
          | TOTAL ENERGY              -31.313821523971 Eh   |
          | GRADIENT NORM               0.000871741780 Eh/α |
          | HOMO-LUMO GAP               3.056316993055 eV   |
           -------------------------------------------------

 * finished run on 2024/12/20 at 07:08:08.325
