   * xtb version 6.7.1 (edcfbbe) compiled by 'conda@3ef47c1a292c' on 2024-11-25

   ID    Z sym.   atoms
    1    6 C      1-6, 8-17
    2    7 N      7
    3    1 H      18-51

          program call               : xtb C1001.xyz --opt --namespace C1001 --charge +1
          :  Hamiltonian                  GFN2-xTB          :
 * total energy  :   -54.1447289 Eh     change       -0.2184848E-09 Eh
 * total energy  :   -54.1520940 Eh     change       -0.7365037E-02 Eh
 * total energy  :   -54.1539295 Eh     change       -0.1835577E-02 Eh
 * total energy  :   -54.1540595 Eh     change       -0.1299860E-03 Eh
 * total energy  :   -54.1541527 Eh     change       -0.9316495E-04 Eh
 * total energy  :   -54.1541856 Eh     change       -0.3296428E-04 Eh
 * total energy  :   -54.1542229 Eh     change       -0.3727218E-04 Eh
 * total energy  :   -54.1542413 Eh     change       -0.1833708E-04 Eh
 * total energy  :   -54.1542674 Eh     change       -0.2619038E-04 Eh
 * total energy  :   -54.1542944 Eh     change       -0.2700633E-04 Eh
 * total energy  :   -54.1556682 Eh     change       -0.1712956E-04 Eh
 * total energy  :   -54.1556786 Eh     change       -0.1034342E-04 Eh
 * total energy  :   -54.1556872 Eh     change       -0.8629839E-05 Eh
 * total energy  :   -54.1556939 Eh     change       -0.6696572E-05 Eh
 * total energy  :   -54.1557012 Eh     change       -0.7325602E-05 Eh
 * total energy  :   -54.1557097 Eh     change       -0.8527644E-05 Eh
 * total energy  :   -54.1557178 Eh     change       -0.8070875E-05 Eh
 * total energy  :   -54.1557237 Eh     change       -0.5858401E-05 Eh
 * total energy  :   -54.1557278 Eh     change       -0.4098099E-05 Eh
   *** GEOMETRY OPTIMIZATION CONVERGED AFTER 51 ITERATIONS ***

 final structure:
================
51
 xtb: 6.7.1 (edcfbbe)
C           -0.99678788264605        0.28936140316815       -0.23901313903126
C            0.03995007663469        1.24721428732130        0.36729934711558
C            1.49542564337812        0.80434004584951        0.24129920215956
C            1.67454159760605       -0.56882791608118        0.87721079033079
C            0.75976753170100       -1.58912498461950        0.20969038218986
C           -0.70480971606213       -1.14109188092323        0.24561930759948
N           -1.23705980852804        0.41312952522338       -1.74201832126338
C           -2.60344370613665       -0.11997703416014       -2.06935236525193
C           -3.82038180325106        0.70486219515603       -1.63156265381476
C           -4.37464100104314        1.70596570197508       -2.65554438882220
C           -4.70323661429883        1.12463499036533       -4.03285095827249
C           -5.68315398032347       -0.05022880017545       -4.02458464063752
C           -7.05180697222194        0.25927887442209       -3.41363573249696
C           -7.81760266755320        1.39654610939570       -4.09219080277881
C           -8.12691763458997        1.12355374557557       -5.55925173828534
C           -1.14622419957534        1.81605391860715       -2.18552796303494
C           -0.27280011235052       -0.36107016760541       -2.54613529334028
H           -1.96180072676136        0.57937015264470        0.18773723736885
H           -0.08198219042818        2.26493915169239        0.00264920824675
H           -0.19117512105871        1.27767232157938        1.43522016793642
H            2.12092260022429        1.53161851738218        0.75981474006439
H            1.82652468658931        0.78666610889403       -0.79868594451255
H            1.43672750946545       -0.50362375069284        1.94015268383838
H            2.71120775579690       -0.89203368703211        0.78841166799741
H            0.82812541195249       -2.53830159208511        0.74267433652536
H            1.10536270459322       -1.77384174429446       -0.80642704067932
H           -1.02068444176928       -1.16334933695517        1.29116294885031
H           -1.32309722575436       -1.87299325851733       -0.27569696358166
H           -2.64825404617114       -0.24739015759975       -3.15143499225198
H           -2.66925369645178       -1.11110809185634       -1.61980778897940
H           -4.61469368284417       -0.01009826133256       -1.41340988460387
H           -3.62522243210062        1.23766463157537       -0.69950785054805
H           -5.29062777720798        2.11482405588294       -2.22821005929411
H           -3.69364349427980        2.54720517931262       -2.79135080578362
H           -5.12392987966655        1.92980686052175       -4.63530781832600
H           -3.78737696899817        0.80885192023302       -4.54210281960046
H           -5.82487288811041       -0.37473771971622       -5.05602642994682
H           -5.24581109657833       -0.89421443111723       -3.48462759425809
H           -7.65567260923860       -0.64853968417875       -3.47606845143635
H           -6.93801965488033        0.49676812994914       -2.35324632535654
H           -8.75838117374272        1.53190592995888       -3.55471650766047
H           -7.26024065360813        2.33127206010883       -4.00433985956830
H           -8.63857415312548        0.17024182630358       -5.66896219475750
H           -8.77142153691914        1.90340774105965       -5.95654022229106
H           -7.22051523710797        1.10015881079810       -6.15928614320289
H           -0.11295219901042        2.15484008083656       -2.16345989826303
H           -1.50755369095434        1.88964559190267       -3.20961297835236
H           -1.75043447943493        2.45960670853428       -1.55166420858008
H            0.74300446895370       -0.07801633481193       -2.28613915564998
H           -0.40539561807234       -1.42712547788940       -2.38374482985234
H           -0.42828721404445       -0.15350226463157       -3.60424725590426

          :  Hamiltonian                  GFN2-xTB          :
         :: total energy             -54.155727772355 Eh    ::
         :: gradient norm              0.000296477228 Eh/a0 ::
         :: HOMO-LUMO gap              7.086582552442 eV    ::
         :: SCC energy               -54.935359531081 Eh    ::
         :: -> dispersion             -0.043792396406 Eh    ::
         :: repulsion energy           0.779631758726 Eh    ::

    * Orbital Energies and Occupations

         #    Occupation            Energy/Eh            Energy/eV
      -------------------------------------------------------------
         1        2.0000           -0.8502506             -23.1365
       ...           ...                  ...                  ...
        39        2.0000           -0.5710297             -15.5385
        40        2.0000           -0.5698205             -15.5056
        41        2.0000           -0.5575581             -15.1719
        42        2.0000           -0.5517915             -15.0150
        43        2.0000           -0.5482718             -14.9192
        44        2.0000           -0.5465441             -14.8722
        45        2.0000           -0.5443701             -14.8131
        46        2.0000           -0.5381721             -14.6444
        47        2.0000           -0.5317645             -14.4700
        48        2.0000           -0.5262471             -14.3199
        49        2.0000           -0.5059954             -13.7688
        50        2.0000           -0.5017120             -13.6523
        51        2.0000           -0.4971009             -13.5268 (HOMO)
        52                         -0.2366738              -6.4402 (LUMO)
        53                         -0.1720326              -4.6812
        54                         -0.1457904              -3.9672
        55                         -0.1369594              -3.7269
        56                         -0.0832391              -2.2651
        57                         -0.0760681              -2.0699
        58                         -0.0679198              -1.8482
        59                         -0.0595344              -1.6200
        60                         -0.0365424              -0.9944
        61                         -0.0318668              -0.8671
        62                         -0.0239372              -0.6514
       ...                                ...                  ...
       102                          0.2275576               6.1922
      -------------------------------------------------------------
                  HL-Gap            0.2604271 Eh            7.0866 eV

     #   Z          covCN         q      C6AA      α(0)
     1   6 C        3.789     0.008    20.447     6.440
     2   6 C        3.806    -0.075    21.926     6.666
     3   6 C        3.803    -0.061    21.675     6.628
     4   6 C        3.806    -0.067    21.776     6.643
     5   6 C        3.803    -0.067    21.789     6.646
     6   6 C        3.803    -0.070    21.838     6.653
     7   7 N        3.616     0.116    19.242     6.515
     8   6 C        3.764    -0.041    21.343     6.585
     9   6 C        3.798    -0.071    21.863     6.658
    10   6 C        3.799    -0.070    21.849     6.655
    11   6 C        3.800    -0.062    21.687     6.630
    12   6 C        3.800    -0.062    21.693     6.631
    13   6 C        3.800    -0.061    21.665     6.627
    14   6 C        3.799    -0.055    21.559     6.611
    15   6 C        3.751    -0.105    22.575     6.776
    16   6 C        3.721    -0.087    22.281     6.742
    17   6 C        3.726    -0.088    22.293     6.741
    18   1 H        0.924     0.069     2.100     2.266
    19   1 H        0.925     0.051     2.305     2.374
    20   1 H        0.924     0.072     2.068     2.249
    21   1 H        0.924     0.056     2.252     2.347
    22   1 H        0.924     0.031     2.571     2.507
    23   1 H        0.924     0.049     2.328     2.386
    24   1 H        0.925     0.053     2.287     2.365
    25   1 H        0.924     0.056     2.243     2.342
    26   1 H        0.925     0.040     2.445     2.445
    27   1 H        0.924     0.071     2.080     2.255
    28   1 H        0.924     0.043     2.413     2.429
    29   1 H        0.924     0.090     1.878     2.143
    30   1 H        0.924     0.075     2.033     2.230
    31   1 H        0.924     0.074     2.044     2.236
    32   1 H        0.924     0.046     2.371     2.408
    33   1 H        0.924     0.061     2.189     2.314
    34   1 H        0.924     0.033     2.541     2.493
    35   1 H        0.925     0.054     2.272     2.357
    36   1 H        0.924     0.016     2.800     2.617
    37   1 H        0.924     0.046     2.369     2.407
    38   1 H        0.924     0.021     2.714     2.576
    39   1 H        0.924     0.039     2.458     2.452
    40   1 H        0.924     0.025     2.657     2.549
    41   1 H        0.924     0.036     2.501     2.473
    42   1 H        0.924     0.029     2.602     2.522
    43   1 H        0.925     0.039     2.457     2.451
    44   1 H        0.925     0.040     2.449     2.447
    45   1 H        0.925     0.033     2.543     2.494
    46   1 H        0.925     0.095     1.830     2.116
    47   1 H        0.925     0.096     1.824     2.112
    48   1 H        0.925     0.096     1.826     2.113
    49   1 H        0.925     0.101     1.775     2.083
    50   1 H        0.925     0.095     1.830     2.115
    51   1 H        0.925     0.087     1.910     2.161

Wiberg/Mayer (AO) data.
largest (>0.10) Wiberg bond orders for each atom

     #   Z sym  total        # sym  WBO       # sym  WBO       # sym  WBO
 ---------------------------------------------------------------------------
     1   6 C    3.929 --     2 C    0.997     6 C    0.996    18 H    0.955
                             7 N    0.892
     2   6 C    3.987 --     3 C    1.008     1 C    0.997    19 H    0.969
                            20 H    0.964
     3   6 C    3.995 --     4 C    1.009     2 C    1.008    21 H    0.973
                            22 H    0.969
     4   6 C    3.995 --     3 C    1.009     5 C    1.009    23 H    0.976
                            24 H    0.975
     5   6 C    3.993 --     4 C    1.009     6 C    1.006    25 H    0.973
                            26 H    0.973
     6   6 C    3.988 --     5 C    1.006     1 C    0.996    27 H    0.967
                            28 H    0.966
     7   7 N    3.801 --    16 C    0.963    17 C    0.963     8 C    0.925
                             1 C    0.892
     8   6 C    3.930 --     9 C    1.005    30 H    0.965    29 H    0.958
                             7 N    0.925
     9   6 C    3.985 --     8 C    1.005    10 C    1.004    31 H    0.966
                            32 H    0.963
    10   6 C    3.992 --    11 C    1.008     9 C    1.004    34 H    0.974
                            33 H    0.970
    11   6 C    3.995 --    10 C    1.008    12 C    1.007    36 H    0.971
                            35 H    0.971
    12   6 C    3.996 --    11 C    1.007    13 C    1.007    38 H    0.976
                            37 H    0.974
    13   6 C    3.997 --    14 C    1.008    12 C    1.007    39 H    0.976
                            40 H    0.976
    14   6 C    3.997 --    15 C    1.020    13 C    1.008    41 H    0.978
                            42 H    0.976
    15   6 C    3.996 --    14 C    1.020    43 H    0.987    44 H    0.987
                            45 H    0.986
    16   6 C    3.933 --    46 H    0.973    48 H    0.972    47 H    0.971
                             7 N    0.963
    17   6 C    3.932 --    51 H    0.975    50 H    0.972    49 H    0.964
                             7 N    0.963
    18   1 H    0.995 --     1 C    0.955
    19   1 H    0.997 --     2 C    0.969
    20   1 H    0.995 --     2 C    0.964
    21   1 H    0.997 --     3 C    0.973
    22   1 H    0.999 --     3 C    0.969
    23   1 H    0.998 --     4 C    0.976
    24   1 H    0.997 --     4 C    0.975
    25   1 H    0.997 --     5 C    0.973
    26   1 H    0.998 --     5 C    0.973
    27   1 H    0.995 --     6 C    0.967
    28   1 H    0.998 --     6 C    0.966
    29   1 H    0.992 --     8 C    0.958
    30   1 H    0.994 --     8 C    0.965
    31   1 H    0.994 --     9 C    0.966
    32   1 H    0.998 --     9 C    0.963
    33   1 H    0.996 --    10 C    0.970
    34   1 H    0.999 --    10 C    0.974
    35   1 H    0.997 --    11 C    0.971
    36   1 H    1.000 --    11 C    0.971
    37   1 H    0.998 --    12 C    0.974
    38   1 H    1.000 --    12 C    0.976
    39   1 H    0.998 --    13 C    0.976
    40   1 H    0.999 --    13 C    0.976
    41   1 H    0.999 --    14 C    0.978
    42   1 H    0.999 --    14 C    0.976
    43   1 H    0.998 --    15 C    0.987
    44   1 H    0.998 --    15 C    0.987
    45   1 H    0.999 --    15 C    0.986
    46   1 H    0.991 --    16 C    0.973
    47   1 H    0.990 --    16 C    0.971
    48   1 H    0.991 --    16 C    0.972
    49   1 H    0.989 --    17 C    0.964
    50   1 H    0.991 --    17 C    0.972
    51   1 H    0.992 --    17 C    0.975
 ---------------------------------------------------------------------------

molecular dipole:
                 x           y           z       tot (Debye)
 q only:       -2.570       0.776      -3.018
   full:       -2.600       0.764      -3.031      10.334

           -------------------------------------------------
          | TOTAL ENERGY              -54.155727772355 Eh   |
          | GRADIENT NORM               0.000296477228 Eh/α |
          | HOMO-LUMO GAP               7.086582552442 eV   |
           -------------------------------------------------

 * finished run on 2024/12/20 at 07:08:05.773
