   * xtb version 6.7.1 (edcfbbe) compiled by 'conda@3ef47c1a292c' on 2024-11-25

   ID    Z sym.   atoms
    1    6 C      1-3
    2    7 N      4
    3    1 H      5-14

          program call               : xtb C1002.xyz --opt --namespace C1002 --charge +1
          :  Hamiltonian                  GFN2-xTB          :
 * total energy  :   -14.0038783 Eh     change       -0.4655831E-10 Eh
 * total energy  :   -14.0047272 Eh     change       -0.8489772E-03 Eh
 * total energy  :   -14.0049103 Eh     change       -0.1830617E-03 Eh
 * total energy  :   -14.0049662 Eh     change       -0.5594059E-04 Eh
 * total energy  :   -14.0050001 Eh     change       -0.3382102E-04 Eh
 * total energy  :   -14.0050304 Eh     change       -0.3029575E-04 Eh
 * total energy  :   -14.0050563 Eh     change       -0.2594164E-04 Eh
 * total energy  :   -14.0050726 Eh     change       -0.1634459E-04 Eh
 * total energy  :   -14.0050758 Eh     change       -0.3163759E-05 Eh
   *** GEOMETRY OPTIMIZATION CONVERGED AFTER 9 ITERATIONS ***

 final structure:
================
14
 xtb: 6.7.1 (edcfbbe)
C            1.06394431396114        0.03328017436038        0.08643774183734
C            0.54246929860514        1.46031297342962       -0.05145167155575
C            1.04854637391300        2.14690113364109       -1.31267756916019
N            0.57468339301762        1.40296692996455       -2.52127772656922
H            0.63041290711004       -0.64508613048311       -0.64735231660966
H            0.80088570883445       -0.35559628588466        1.06512279174806
H            2.14756504279001        0.00558202683075        0.00383308356131
H           -0.54870255425531        1.46566305986926       -0.03374162527619
H            0.88119706934266        2.04729632499568        0.80157504844380
H            0.68716196014122        3.17397671824177       -1.36909711704531
H            2.13947724330047        2.15591949057026       -1.32558413514716
H           -0.45254401048033        1.41839466038838       -2.56363584399595
H            0.95100672476478        1.80075457900427       -3.38937798528381
H            0.87952652895512        0.42277434507175       -2.43150267494728

          :  Hamiltonian                  GFN2-xTB          :
         :: total energy             -14.005075803224 Eh    ::
         :: gradient norm              0.000455708484 Eh/a0 ::
         :: HOMO-LUMO gap              9.069152686981 eV    ::
         :: SCC energy               -14.209020063202 Eh    ::
         :: -> dispersion             -0.005234099222 Eh    ::
         :: repulsion energy           0.203944259979 Eh    ::

    * Orbital Energies and Occupations

         #    Occupation            Energy/Eh            Energy/eV
      -------------------------------------------------------------
         1        2.0000           -0.8981188             -24.4391
         2        2.0000           -0.8449869             -22.9933
         3        2.0000           -0.8098833             -22.0380
         4        2.0000           -0.8036868             -21.8694
         5        2.0000           -0.7789428             -21.1961
         6        2.0000           -0.7481442             -20.3580
         7        2.0000           -0.7208764             -19.6160
         8        2.0000           -0.6875916             -18.7103
         9        2.0000           -0.6669748             -18.1493
        10        2.0000           -0.6509618             -17.7136
        11        2.0000           -0.6194072             -16.8549
        12        2.0000           -0.6030654             -16.4102
        13        2.0000           -0.5977207             -16.2648 (HOMO)
        14                         -0.2644354              -7.1957 (LUMO)
        15                         -0.1612957              -4.3891
        16                         -0.1058018              -2.8790
        17                         -0.1012596              -2.7554
        18                         -0.0717608              -1.9527
        19                         -0.0468656              -1.2753
        20                         -0.0094027              -0.2559
        21                         -0.0025214              -0.0686
        22                          0.0355441               0.9672
        23                          0.0602298               1.6389
        24                          0.0781629               2.1269
       ...                                ...                  ...
        26                          0.1333454               3.6285
      -------------------------------------------------------------
                  HL-Gap            0.3332852 Eh            9.0692 eV

     #   Z          covCN         q      C6AA      α(0)
     1   6 C        3.752    -0.130    23.051     6.847
     2   6 C        3.801    -0.081    22.044     6.685
     3   6 C        3.731    -0.034    21.277     6.584
     4   7 N        3.483    -0.128    23.777     7.242
     5   1 H        0.925     0.039     2.459     2.452
     6   1 H        0.925     0.082     1.961     2.190
     7   1 H        0.925     0.060     2.197     2.318
     8   1 H        0.924     0.068     2.113     2.273
     9   1 H        0.925     0.094     1.839     2.121
    10   1 H        0.924     0.105     1.742     2.064
    11   1 H        0.924     0.109     1.709     2.044
    12   1 H        0.859     0.271     0.808     1.408
    13   1 H        0.859     0.268     0.818     1.417
    14   1 H        0.859     0.278     0.782     1.385

Wiberg/Mayer (AO) data.
largest (>0.10) Wiberg bond orders for each atom

     #   Z sym  total        # sym  WBO       # sym  WBO       # sym  WBO
 ---------------------------------------------------------------------------
     1   6 C    3.988 --     2 C    1.019     7 H    0.984     5 H    0.979
                             6 H    0.979
     2   6 C    3.980 --     1 C    1.019     3 C    1.009     8 H    0.972
                             9 H    0.962
     3   6 C    3.890 --     2 C    1.009    10 H    0.968    11 H    0.966
                             4 N    0.924
     4   7 N    3.675 --     3 C    0.924    13 H    0.914    12 H    0.911
                            14 H    0.896
     5   1 H    0.998 --     1 C    0.979
     6   1 H    0.993 --     1 C    0.979
     7   1 H    0.996 --     1 C    0.984
     8   1 H    0.995 --     2 C    0.972
     9   1 H    0.991 --     2 C    0.962
    10   1 H    0.989 --     3 C    0.968
    11   1 H    0.988 --     3 C    0.966
    12   1 H    0.927 --     4 N    0.911
    13   1 H    0.928 --     4 N    0.914
    14   1 H    0.923 --     4 N    0.896
 ---------------------------------------------------------------------------

molecular dipole:
                 x           y           z       tot (Debye)
 q only:        1.238       2.669      -3.910
   full:        1.176       2.618      -4.157      12.840

           -------------------------------------------------
          | TOTAL ENERGY              -14.005075803224 Eh   |
          | GRADIENT NORM               0.000455708484 Eh/α |
          | HOMO-LUMO GAP               9.069152686981 eV   |
           -------------------------------------------------

 * finished run on 2024/12/20 at 07:08:05.880
