   * xtb version 6.7.1 (edcfbbe) compiled by 'conda@3ef47c1a292c' on 2024-11-25

   ID    Z sym.   atoms
    1    6 C      1, 3-10, 12, 13
    2    7 N      2, 11
    3    1 H      14-24

          program call               : xtb C1006.xyz --opt --namespace C1006 --charge +1
          :  Hamiltonian                  GFN2-xTB          :
 * total energy  :   -34.5823570 Eh     change       -0.2109743E-09 Eh
 * total energy  :   -34.5856984 Eh     change       -0.3341414E-02 Eh
 * total energy  :   -34.5862955 Eh     change       -0.5970791E-03 Eh
 * total energy  :   -34.5864797 Eh     change       -0.1842053E-03 Eh
 * total energy  :   -34.5866358 Eh     change       -0.1560594E-03 Eh
 * total energy  :   -34.5867569 Eh     change       -0.1210906E-03 Eh
 * total energy  :   -34.5868767 Eh     change       -0.1198646E-03 Eh
 * total energy  :   -34.5870168 Eh     change       -0.1401026E-03 Eh
 * total energy  :   -34.5871704 Eh     change       -0.1535656E-03 Eh
 * total energy  :   -34.5873175 Eh     change       -0.1470617E-03 Eh
 * total energy  :   -34.5874437 Eh     change       -0.1262520E-03 Eh
 * total energy  :   -34.5875704 Eh     change       -0.1267024E-03 Eh
 * total energy  :   -34.5876025 Eh     change       -0.3205739E-04 Eh
 * total energy  :   -34.5875716 Eh     change        0.3086850E-04 Eh
 * total energy  :   -34.5876112 Eh     change       -0.3955908E-04 Eh
 * total energy  :   -34.5876157 Eh     change       -0.4550136E-05 Eh
   *** GEOMETRY OPTIMIZATION CONVERGED AFTER 16 ITERATIONS ***

 final structure:
================
24
 xtb: 6.7.1 (edcfbbe)
C           -2.35485919591758       -0.02251622593525       -0.09690779523075
N           -0.91313103872580        0.00412899706765       -0.00016470386480
C           -0.21503423159229       -1.12660117238942       -0.18370617514246
C            1.15339505791587       -1.15020406612213       -0.08085471509388
C            1.85743683011710        0.02207243096388        0.23235698432813
C            1.09558623234518        1.18296781751886        0.42554683165604
C           -0.27168091267607        1.14149876191857        0.30013573999876
C            3.31168424463916        0.03206021208002        0.35059694848166
C            3.95202906539029        0.83838574621817        1.29592471437323
C            5.33686210790972        0.79992537437307        1.36676475672168
N            6.08061281714149        0.05004499696472        0.57622170168035
C            5.48441904606618       -0.70840172511110       -0.32366803044822
C            4.10700577523778       -0.76473816618941       -0.47792275138693
H           -2.66773663265484       -0.67046285316968       -0.91443775639661
H           -2.78556953210388       -0.40571819645927        0.83067168728117
H           -2.74296218396878        0.97872631832772       -0.27112767827289
H           -0.77776885523209       -2.01930299313841       -0.41339800965521
H            1.67867874789339       -2.08079670564142       -0.22401238361865
H            1.57689997612979        2.12073366938023        0.65207827813392
H           -0.87370453768480        2.02747772363884        0.43701926601119
H            3.38707710277854        1.44679244793788        1.98398663208152
H            5.87326171390366        1.39924141634897        2.08880308769589
H            6.13829546970398       -1.30000790278342       -0.94871927867966
H            3.66880293338422       -1.37943590579909       -1.24792735065336

          :  Hamiltonian                  GFN2-xTB          :
         :: total energy             -34.587615711837 Eh    ::
         :: gradient norm              0.000454750077 Eh/a0 ::
         :: HOMO-LUMO gap              0.625621547591 eV    ::
         :: SCC energy               -35.196753862742 Eh    ::
         :: -> dispersion             -0.021040175318 Eh    ::
         :: repulsion energy           0.609138150905 Eh    ::

    * Orbital Energies and Occupations

         #    Occupation            Energy/Eh            Energy/eV
      -------------------------------------------------------------
         1        2.0000           -0.8797650             -23.9396
       ...           ...                  ...                  ...
        20        2.0000           -0.6445771             -17.5398
        21        2.0000           -0.6428085             -17.4917
        22        2.0000           -0.6335754             -17.2405
        23        2.0000           -0.6286655             -17.1069
        24        2.0000           -0.6212814             -16.9059
        25        2.0000           -0.6145072             -16.7216
        26        2.0000           -0.6137476             -16.7009
        27        2.0000           -0.6081395             -16.5483
        28        2.0000           -0.6025295             -16.3957
        29        2.0000           -0.5616957             -15.2845
        30        2.0000           -0.5581303             -15.1875
        31        2.0000           -0.5423944             -14.7593
        32        2.0000           -0.4829364             -13.1414 (HOMO)
        33        0.0000           -0.4599453             -12.5157 (LUMO)
        34                         -0.4250688             -11.5667
        35                         -0.3735696             -10.1653
        36                         -0.3612223              -9.8294
        37                         -0.2999050              -8.1608
        38                         -0.2296140              -6.2481
        39                         -0.1694550              -4.6111
        40                         -0.0801748              -2.1817
        41                         -0.0457921              -1.2461
        42                         -0.0391044              -1.0641
        43                         -0.0274639              -0.7473
       ...                                ...                  ...
        63                          0.5037811              13.7086
      -------------------------------------------------------------
                  HL-Gap            0.0229912 Eh            0.6256 eV

     #   Z          covCN         q      C6AA      α(0)
     1   6 C        3.709    -0.093    22.432     6.769
     2   7 N        2.748     0.108    19.385     6.539
     3   6 C        2.890     0.028    27.384     8.579
     4   6 C        2.920    -0.022    28.547     8.762
     5   6 C        2.979     0.058    26.694     8.475
     6   6 C        2.920    -0.022    28.554     8.763
     7   6 C        2.888     0.029    27.362     8.576
     8   6 C        2.984     0.023    27.486     8.600
     9   6 C        2.917    -0.034    28.846     8.807
    10   6 C        2.909     0.067    26.496     8.440
    11   7 N        1.837    -0.172    25.529     7.488
    12   6 C        2.909     0.067    26.496     8.440
    13   6 C        2.917    -0.034    28.846     8.807
    14   1 H        0.925     0.108     1.717     2.049
    15   1 H        0.924     0.111     1.686     2.031
    16   1 H        0.925     0.106     1.734     2.059
    17   1 H        0.926     0.106     1.729     2.056
    18   1 H        0.926     0.102     1.768     2.079
    19   1 H        0.926     0.102     1.769     2.080
    20   1 H        0.926     0.106     1.734     2.059
    21   1 H        0.926     0.054     2.271     2.356
    22   1 H        0.926     0.075     2.034     2.230
    23   1 H        0.926     0.075     2.034     2.230
    24   1 H        0.926     0.054     2.271     2.356

Wiberg/Mayer (AO) data.
largest (>0.10) Wiberg bond orders for each atom

     #   Z sym  total        # sym  WBO       # sym  WBO       # sym  WBO
 ---------------------------------------------------------------------------
     1   6 C    3.931 --     2 N    0.987    16 H    0.972    14 H    0.967
                            15 H    0.954
     2   7 N    3.751 --     7 C    1.308     3 C    1.302     1 C    0.987
     3   6 C    3.955 --     4 C    1.502     2 N    1.302    17 H    0.955
     4   6 C    3.983 --     3 C    1.502     5 C    1.341    18 H    0.957
     5   6 C    3.973 --     6 C    1.347     4 C    1.341     8 C    1.083
     6   6 C    3.983 --     7 C    1.494     5 C    1.347    19 H    0.957
     7   6 C    3.955 --     6 C    1.494     2 N    1.308    20 H    0.955
     8   6 C    3.986 --    13 C    1.370     9 C    1.370     5 C    1.083
     9   6 C    3.987 --    10 C    1.428     8 C    1.370    21 H    0.966
                            12 C    0.114
    10   6 C    3.974 --    11 N    1.442     9 C    1.428    22 H    0.959
                            13 C    0.114
    11   7 N    3.069 --    10 C    1.442    12 C    1.442
    12   6 C    3.974 --    11 N    1.442    13 C    1.428    23 H    0.959
                             9 C    0.114
    13   6 C    3.987 --    12 C    1.428     8 C    1.370    24 H    0.966
                            10 C    0.114
    14   1 H    0.987 --     1 C    0.967
    15   1 H    0.985 --     1 C    0.954
    16   1 H    0.988 --     1 C    0.972
    17   1 H    0.988 --     3 C    0.955
    18   1 H    0.989 --     4 C    0.957
    19   1 H    0.989 --     6 C    0.957
    20   1 H    0.988 --     7 C    0.955
    21   1 H    0.997 --     9 C    0.966
    22   1 H    0.993 --    10 C    0.959
    23   1 H    0.993 --    12 C    0.959
    24   1 H    0.997 --    13 C    0.966
 ---------------------------------------------------------------------------

molecular dipole:
                 x           y           z       tot (Debye)
 q only:        0.372       0.002       0.200
   full:       -0.157      -0.004       0.164       0.576

           -------------------------------------------------
          | TOTAL ENERGY              -34.587615711837 Eh   |
          | GRADIENT NORM               0.000454750077 Eh/α |
          | HOMO-LUMO GAP               0.625621547591 eV   |
           -------------------------------------------------

 * finished run on 2024/12/20 at 07:08:08.904
