   * xtb version 6.7.1 (edcfbbe) compiled by 'conda@3ef47c1a292c' on 2024-11-25

   ID    Z sym.   atoms
    1    6 C      1, 4, 7, 8
    2    7 N      2, 3, 5, 6
    3    1 H      9-19

          program call               : xtb C1004.xyz --opt --namespace C1004 --charge +1
          :  Hamiltonian                  GFN2-xTB          :
 * total energy  :   -25.3831642 Eh     change       -0.6235013E-11 Eh
 * total energy  :   -25.3914029 Eh     change       -0.8238622E-02 Eh
 * total energy  :   -25.3938919 Eh     change       -0.2489067E-02 Eh
 * total energy  :   -25.3948756 Eh     change       -0.9836258E-03 Eh
 * total energy  :   -25.3959516 Eh     change       -0.1076043E-02 Eh
 * total energy  :   -25.3969760 Eh     change       -0.1024416E-02 Eh
 * total energy  :   -25.3979261 Eh     change       -0.9501333E-03 Eh
 * total energy  :   -25.3986468 Eh     change       -0.7206509E-03 Eh
 * total energy  :   -25.3990777 Eh     change       -0.4308831E-03 Eh
 * total energy  :   -25.3991980 Eh     change       -0.1203319E-03 Eh
 * total energy  :   -25.3996483 Eh     change       -0.7520054E-05 Eh
 * total energy  :   -25.3996572 Eh     change       -0.8936257E-05 Eh
 * total energy  :   -25.3996658 Eh     change       -0.8598608E-05 Eh
 * total energy  :   -25.3996735 Eh     change       -0.7727804E-05 Eh
 * total energy  :   -25.3996825 Eh     change       -0.8968049E-05 Eh
 * total energy  :   -25.3996937 Eh     change       -0.1122358E-04 Eh
 * total energy  :   -25.3997054 Eh     change       -0.1163501E-04 Eh
 * total energy  :   -25.3997114 Eh     change       -0.6074598E-05 Eh
 * total energy  :   -25.3997149 Eh     change       -0.3473634E-05 Eh
   *** GEOMETRY OPTIMIZATION CONVERGED AFTER 34 ITERATIONS ***

 final structure:
================
19
 xtb: 6.7.1 (edcfbbe)
C            1.10464799959459        0.31460627204995        0.49492747876688
N           -0.11421722327037        1.10782468737444        0.60854569311224
N           -0.68887518133795        0.97910265693790        1.91375501658863
C           -0.43076007478222        2.05840118047834        2.64531027506992
N            0.13166574679670        2.96922157516203        1.87462174754121
N            0.17475240700046        2.49706065951640        0.53088917234237
C            0.67372173752492        4.25739106679446        2.18833290497500
C           -0.72347475222281        2.21178962061671        4.07796892058961
H            1.51737540348494        0.51273084908801       -0.49002823873042
H            0.83566389330184       -0.73644336584700        0.55887217649450
H            1.84775625608480        0.55852484946552        1.25882089680698
H           -1.16430654318818        0.13212219956917        2.17798862086354
H           -0.54463749572697        2.97129508543055       -0.02659903855003
H           -0.07012234365873        5.04041604343730        2.02488192510644
H            1.00341584817301        4.28443603737371        3.22443327938551
H            1.52397197871134        4.44003348755818        1.53266317112869
H           -1.27961371693084        1.35670699190892        4.45095369262570
H            0.20587106802017        2.29271723760417        4.64262870844242
H           -1.29761500757472        3.11997286548124        4.25668359744103

          :  Hamiltonian                  GFN2-xTB          :
         :: total energy             -25.399714912473 Eh    ::
         :: gradient norm              0.000853642685 Eh/a0 ::
         :: HOMO-LUMO gap              2.788850390360 eV    ::
         :: SCC energy               -25.707431608771 Eh    ::
         :: -> dispersion             -0.011968936086 Eh    ::
         :: repulsion energy           0.307716696298 Eh    ::

    * Orbital Energies and Occupations

         #    Occupation            Energy/Eh            Energy/eV
      -------------------------------------------------------------
         1        2.0000           -0.9210149             -25.0621
       ...           ...                  ...                  ...
        11        2.0000           -0.7117778             -19.3685
        12        2.0000           -0.7073720             -19.2486
        13        2.0000           -0.6930599             -18.8591
        14        2.0000           -0.6848044             -18.6345
        15        2.0000           -0.6741185             -18.3437
        16        2.0000           -0.6647197             -18.0879
        17        2.0000           -0.6548391             -17.8191
        18        2.0000           -0.6483217             -17.6417
        19        2.0000           -0.6326604             -17.2156
        20        2.0000           -0.6217008             -16.9173
        21        2.0000           -0.6139003             -16.7051
        22        2.0000           -0.5866134             -15.9626
        23        2.0000           -0.5275069             -14.3542 (HOMO)
        24                         -0.4250185             -11.5653 (LUMO)
        25                         -0.2685205              -7.3068
        26                         -0.2297625              -6.2522
        27                         -0.1791809              -4.8758
        28                         -0.1508760              -4.1055
        29                         -0.0797101              -2.1690
        30                         -0.0434250              -1.1817
        31                         -0.0348083              -0.9472
        32                         -0.0141848              -0.3860
        33                         -0.0129152              -0.3514
        34                          0.0037996               0.1034
       ...                                ...                  ...
        43                          0.3437713               9.3545
      -------------------------------------------------------------
                  HL-Gap            0.1024884 Eh            2.7889 eV

     #   Z          covCN         q      C6AA      α(0)
     1   6 C        3.698    -0.076    22.135     6.729
     2   7 N        2.914    -0.027    21.769     6.930
     3   7 N        2.858    -0.064    22.474     7.041
     4   6 C        2.887     0.154    24.673     8.144
     5   7 N        2.887     0.055    20.285     6.689
     6   7 N        2.902    -0.119    23.580     7.212
     7   6 C        3.688    -0.087    22.360     6.768
     8   6 C        3.755    -0.146    23.383     6.895
     9   1 H        0.925     0.103     1.756     2.072
    10   1 H        0.925     0.086     1.922     2.168
    11   1 H        0.924     0.056     2.250     2.346
    12   1 H        0.860     0.220     1.008     1.573
    13   1 H        0.859     0.189     1.162     1.689
    14   1 H        0.924     0.099     1.791     2.093
    15   1 H        0.925     0.102     1.768     2.079
    16   1 H        0.925     0.117     1.641     2.003
    17   1 H        0.925     0.105     1.739     2.062
    18   1 H        0.924     0.119     1.622     1.991
    19   1 H        0.925     0.115     1.652     2.010

Wiberg/Mayer (AO) data.
largest (>0.10) Wiberg bond orders for each atom

     #   Z sym  total        # sym  WBO       # sym  WBO       # sym  WBO
 ---------------------------------------------------------------------------
     1   6 C    3.956 --     2 N    0.987    11 H    0.978    10 H    0.973
                             9 H    0.968
     2   7 N    3.080 --     6 N    1.013     1 C    0.987     3 N    0.968
     3   7 N    3.524 --     4 C    1.354     2 N    0.968    12 H    0.923
                             5 N    0.148
     4   6 C    3.958 --     5 N    1.402     3 N    1.354     8 C    1.046
     5   7 N    3.615 --     4 C    1.402     7 C    0.992     6 N    0.975
                             3 N    0.148
     6   7 N    3.062 --     2 N    1.013     5 N    0.975    13 H    0.929
     7   6 C    3.932 --     5 N    0.992    15 H    0.967    16 H    0.965
                            14 H    0.959
     8   6 C    3.971 --     4 C    1.046    17 H    0.971    19 H    0.949
                            18 H    0.936
     9   1 H    0.989 --     1 C    0.968
    10   1 H    0.993 --     1 C    0.973
    11   1 H    0.997 --     1 C    0.978
    12   1 H    0.951 --     3 N    0.923
    13   1 H    0.964 --     6 N    0.929
    14   1 H    0.990 --     7 C    0.959
    15   1 H    0.990 --     7 C    0.967
    16   1 H    0.986 --     7 C    0.965
    17   1 H    0.989 --     8 C    0.971
    18   1 H    0.986 --     8 C    0.936
    19   1 H    0.987 --     8 C    0.949
 ---------------------------------------------------------------------------

molecular dipole:
                 x           y           z       tot (Debye)
 q only:       -0.160       4.185       4.239
   full:       -0.375       4.131       4.565      15.678

           -------------------------------------------------
          | TOTAL ENERGY              -25.399714912473 Eh   |
          | GRADIENT NORM               0.000853642685 Eh/α |
          | HOMO-LUMO GAP               2.788850390360 eV   |
           -------------------------------------------------

 * finished run on 2024/12/20 at 07:08:08.080
