   * xtb version 6.7.1 (edcfbbe) compiled by 'conda@3ef47c1a292c' on 2024-11-25

   ID    Z sym.   atoms
    1    6 C      1-14, 16-25
    2    7 N      15
    3    1 H      26-69

          program call               : xtb C1011.xyz --opt --namespace C1011 --charge +1
          :  Hamiltonian                  GFN2-xTB          :
 * total energy  :   -76.3923053 Eh     change       -0.9164580E-09 Eh
 * total energy  :   -76.3961578 Eh     change       -0.3852447E-02 Eh
 * total energy  :   -76.3969054 Eh     change       -0.7476731E-03 Eh
 * total energy  :   -76.3971110 Eh     change       -0.2055379E-03 Eh
 * total energy  :   -76.3973875 Eh     change       -0.2764897E-03 Eh
 * total energy  :   -76.3975673 Eh     change       -0.1798416E-03 Eh
 * total energy  :   -76.3977382 Eh     change       -0.1708903E-03 Eh
 * total energy  :   -76.3978720 Eh     change       -0.1338282E-03 Eh
 * total energy  :   -76.3979564 Eh     change       -0.8436857E-04 Eh
 * total energy  :   -76.3980295 Eh     change       -0.7313650E-04 Eh
 * total energy  :   -76.4016344 Eh     change       -0.1001419E-04 Eh
 * total energy  :   -76.4016448 Eh     change       -0.1035250E-04 Eh
 * total energy  :   -76.4016572 Eh     change       -0.1237057E-04 Eh
 * total energy  :   -76.4016706 Eh     change       -0.1344551E-04 Eh
 * total energy  :   -76.4016828 Eh     change       -0.1219934E-04 Eh
 * total energy  :   -76.4016930 Eh     change       -0.1014379E-04 Eh
 * total energy  :   -76.4017027 Eh     change       -0.9775194E-05 Eh
 * total energy  :   -76.4017143 Eh     change       -0.1153129E-04 Eh
 * total energy  :   -76.4017174 Eh     change       -0.3175522E-05 Eh
   *** GEOMETRY OPTIMIZATION CONVERGED AFTER 68 ITERATIONS ***

 final structure:
================
69
 xtb: 6.7.1 (edcfbbe)
C            0.94579639775752       -0.11174624413129       -0.29386892324655
C            0.46324577139969       -1.55723490128346       -0.30748447896628
C            1.02064584449352       -2.39083870616892        0.84745742367272
C            0.61858127272508       -1.91049635034910        2.24355262135509
C           -0.88849542617131       -1.85925957047454        2.50057325117648
C           -1.61638924164282       -3.19540719613101        2.34201812984933
C           -1.12921061436500       -4.31086576988399        3.26939407069767
C           -1.19950697644175       -3.98662276715599        4.76340918086173
C           -2.58467364267712       -3.58183340817878        5.27113766368358
C           -3.67405338356142       -4.63788778505879        5.07737878462704
C           -3.44065735592089       -5.95204779492561        5.82681812986925
C           -3.28478068653954       -5.81357781121939        7.34469903935203
C           -4.41400068285567       -5.05633779120044        8.04290278166035
C           -5.78842559515824       -5.73105362682093        7.92843474160261
N           -5.83380123819429       -6.94737613899305        8.71945008311425
C           -6.11938376690156       -6.86754287665172       10.02376750419455
C           -6.12338077099811       -7.99665695794770       10.81538437668517
C           -5.82102735869023       -9.22620035221910       10.25050855219975
C           -5.50962679736009       -9.30348426213787        8.89159567740326
C           -5.52800179140000       -8.12226651632467        8.16286444539795
C           -5.10705320737018      -10.58348616999449        8.24314817297195
C           -3.57591887740786      -10.75980622222394        8.29546522979230
C           -3.01063694118177      -10.90817201721275        9.70746988264288
C           -3.44480851909779      -12.17631112236316       10.44655899063482
C           -2.94742095531825      -13.45651897981324        9.78606451374534
H            0.57350749688289        0.41909513448568        0.57866549171083
H            0.59487266791877        0.41045351542140       -1.18100540333446
H            2.03293111863200       -0.07393033720691       -0.28256383577019
H           -0.62791919193023       -1.57705905287714       -0.28846357764554
H            0.77861062237372       -2.02411633108800       -1.24378956256760
H            0.70311283176848       -3.42753430617235        0.71555264903849
H            2.11196721402590       -2.37828721377146        0.78899131322665
H            1.08932869362178       -2.56679287669385        2.97905737663374
H            1.02416090705765       -0.91023639219550        2.40617710779532
H           -1.05000775233375       -1.47531491210789        3.51052984563951
H           -1.34342063984741       -1.14294919950835        1.81405061055572
H           -2.68334540408888       -3.02629640457850        2.50670202485323
H           -1.50704018631302       -3.54089847076712        1.31256834764766
H           -1.71632815196790       -5.20929354641690        3.06272749405663
H           -0.09243100983380       -4.54925404453079        3.02626713198978
H           -0.84390373886304       -4.85633164341917        5.32161187777526
H           -0.51127864141647       -3.16850578312207        4.98114045600665
H           -2.50196386515761       -3.32582707542970        6.33013812339693
H           -2.90061931199235       -2.67675609322214        4.75098673481945
H           -4.63315094953473       -4.20782280271021        5.37779239297990
H           -3.75452058498701       -4.87035469004138        4.01495432120898
H           -4.26768216095491       -6.62807231653406        5.58944337760970
H           -2.53499926501085       -6.42250312928564        5.44271234300313
H           -3.17785229791179       -6.81020039549932        7.78501772983154
H           -2.35715134590132       -5.27946433115574        7.55067994001954
H           -4.16472892393279       -4.93425083430660        9.09951875549779
H           -4.50082346478732       -4.06110547218660        7.60966460208020
H           -6.55987579035050       -5.05032157824803        8.29300337341583
H           -5.99816199169423       -5.97143988131505        6.88611160853414
H           -6.35364633205520       -5.89201472844309       10.42176759598483
H           -6.36568368359252       -7.91214840802697       11.86234019765060
H           -5.83486772262248      -10.12026848408133       10.85379489126085
H           -5.30689426953596       -8.12468679243923        7.10554322949282
H           -5.58223603492915      -11.42366712226583        8.74672607154109
H           -5.41857555558845      -10.58515317259975        7.19808701945933
H           -3.32007766684977      -11.64178466016801        7.71053344920517
H           -3.10571526862692       -9.89879347007358        7.81431061315284
H           -1.92181183298689      -10.91672842914747        9.62963517196513
H           -3.28356905764169      -10.03279715211019       10.30518612841984
H           -3.04182711623598      -12.12579113659014       11.45996776946676
H           -4.53271646767421      -12.21725212600652       10.53406508220075
H           -1.86933657394626      -13.42126136394850        9.65089954905948
H           -3.18344977727203      -14.31331785227520       10.41144614553857
H           -3.41333498101892      -13.61275329858350        8.81647459037956

          :  Hamiltonian                  GFN2-xTB          :
         :: total energy             -76.401717434164 Eh    ::
         :: gradient norm              0.000196449612 Eh/a0 ::
         :: HOMO-LUMO gap              0.473575327100 eV    ::
         :: SCC energy               -77.588978975120 Eh    ::
         :: -> dispersion             -0.060268815257 Eh    ::
         :: repulsion energy           1.187261540956 Eh    ::

    * Orbital Energies and Occupations

         #    Occupation            Energy/Eh            Energy/eV
      -------------------------------------------------------------
         1        2.0000           -0.8654496             -23.5501
       ...           ...                  ...                  ...
        60        2.0000           -0.5230132             -14.2319
        61        2.0000           -0.5186128             -14.1122
        62        2.0000           -0.5171134             -14.0714
        63        2.0000           -0.5123235             -13.9410
        64        2.0000           -0.5042665             -13.7218
        65        2.0000           -0.4999706             -13.6049
        66        2.0000           -0.4946652             -13.4605
        67        2.0000           -0.4847095             -13.1896
        68        2.0000           -0.4822824             -13.1236
        69        2.0000           -0.4786097             -13.0236
        70        2.0000           -0.4664263             -12.6921
        71        2.0000           -0.4618020             -12.5663
        72        1.9998           -0.4600279             -12.5180 (HOMO)
        73        0.0002           -0.4426244             -12.0444 (LUMO)
        74                         -0.4108187             -11.1789
        75                         -0.2937044              -7.9921
        76                         -0.1588608              -4.3228
        77                         -0.0744034              -2.0246
        78                         -0.0579371              -1.5765
        79                         -0.0440631              -1.1990
        80                         -0.0365402              -0.9943
        81                         -0.0310695              -0.8454
        82                         -0.0294844              -0.8023
        83                         -0.0132108              -0.3595
       ...                                ...                  ...
       144                          0.4527175              12.3191
      -------------------------------------------------------------
                  HL-Gap            0.0174036 Eh            0.4736 eV

     #   Z          covCN         q      C6AA      α(0)
     1   6 C        3.751    -0.102    22.512     6.766
     2   6 C        3.799    -0.052    21.512     6.604
     3   6 C        3.800    -0.057    21.606     6.618
     4   6 C        3.800    -0.057    21.603     6.618
     5   6 C        3.800    -0.057    21.599     6.617
     6   6 C        3.800    -0.057    21.607     6.618
     7   6 C        3.800    -0.057    21.607     6.618
     8   6 C        3.800    -0.058    21.621     6.620
     9   6 C        3.800    -0.060    21.660     6.626
    10   6 C        3.800    -0.062    21.685     6.630
    11   6 C        3.800    -0.060    21.661     6.627
    12   6 C        3.800    -0.064    21.732     6.637
    13   6 C        3.801    -0.068    21.802     6.648
    14   6 C        3.760    -0.034    21.221     6.567
    15   7 N        2.748     0.106    19.419     6.545
    16   6 C        2.894     0.024    27.465     8.593
    17   6 C        2.913    -0.016    28.417     8.741
    18   6 C        2.930    -0.001    28.065     8.688
    19   6 C        2.966     0.045    26.997     8.523
    20   6 C        2.898     0.020    27.561     8.608
    21   6 C        3.808    -0.074    21.914     6.664
    22   6 C        3.803    -0.059    21.630     6.621
    23   6 C        3.800    -0.063    21.704     6.633
    24   6 C        3.799    -0.055    21.569     6.613
    25   6 C        3.752    -0.109    22.649     6.787
    26   1 H        0.925     0.034     2.532     2.488
    27   1 H        0.925     0.033     2.546     2.495
    28   1 H        0.925     0.035     2.520     2.482
    29   1 H        0.924     0.030     2.593     2.518
    30   1 H        0.924     0.028     2.613     2.528
    31   1 H        0.924     0.027     2.630     2.536
    32   1 H        0.924     0.030     2.582     2.513
    33   1 H        0.924     0.026     2.637     2.539
    34   1 H        0.924     0.034     2.537     2.491
    35   1 H        0.924     0.025     2.653     2.547
    36   1 H        0.924     0.034     2.527     2.486
    37   1 H        0.924     0.024     2.669     2.555
    38   1 H        0.924     0.035     2.511     2.478
    39   1 H        0.924     0.023     2.688     2.564
    40   1 H        0.924     0.037     2.495     2.470
    41   1 H        0.924     0.023     2.683     2.562
    42   1 H        0.924     0.039     2.464     2.455
    43   1 H        0.924     0.024     2.674     2.557
    44   1 H        0.924     0.043     2.413     2.429
    45   1 H        0.924     0.022     2.699     2.569
    46   1 H        0.924     0.047     2.356     2.400
    47   1 H        0.924     0.015     2.809     2.621
    48   1 H        0.924     0.050     2.317     2.380
    49   1 H        0.924     0.023     2.691     2.565
    50   1 H        0.925     0.063     2.161     2.299
    51   1 H        0.924     0.049     2.337     2.391
    52   1 H        0.925     0.082     1.957     2.188
    53   1 H        0.924     0.084     1.939     2.178
    54   1 H        0.925     0.094     1.840     2.121
    55   1 H        0.926     0.100     1.782     2.088
    56   1 H        0.926     0.099     1.794     2.094
    57   1 H        0.926     0.099     1.793     2.094
    58   1 H        0.926     0.102     1.765     2.077
    59   1 H        0.925     0.079     1.992     2.207
    60   1 H        0.924     0.065     2.141     2.288
    61   1 H        0.925     0.069     2.094     2.263
    62   1 H        0.924     0.036     2.506     2.476
    63   1 H        0.924     0.053     2.289     2.366
    64   1 H        0.924     0.020     2.732     2.585
    65   1 H        0.924     0.040     2.443     2.444
    66   1 H        0.924     0.026     2.646     2.544
    67   1 H        0.925     0.044     2.399     2.422
    68   1 H        0.925     0.046     2.367     2.406
    69   1 H        0.925     0.037     2.485     2.465

Wiberg/Mayer (AO) data.
largest (>0.10) Wiberg bond orders for each atom

     #   Z sym  total        # sym  WBO       # sym  WBO       # sym  WBO
 ---------------------------------------------------------------------------
     1   6 C    3.997 --     2 C    1.020    28 H    0.988    27 H    0.987
                            26 H    0.986
     2   6 C    3.998 --     1 C    1.020     3 C    1.008    30 H    0.978
                            29 H    0.976
     3   6 C    3.997 --     2 C    1.008     4 C    1.008    32 H    0.977
                            31 H    0.976
     4   6 C    3.997 --     5 C    1.008     3 C    1.008    33 H    0.975
                            34 H    0.975
     5   6 C    3.997 --     4 C    1.008     6 C    1.008    35 H    0.975
                            36 H    0.974
     6   6 C    3.997 --     5 C    1.008     7 C    1.008    37 H    0.975
                            38 H    0.974
     7   6 C    3.997 --     6 C    1.008     8 C    1.007    39 H    0.976
                            40 H    0.975
     8   6 C    3.997 --     9 C    1.008     7 C    1.007    41 H    0.976
                            42 H    0.974
     9   6 C    3.996 --     8 C    1.008    10 C    1.008    43 H    0.975
                            44 H    0.973
    10   6 C    3.995 --     9 C    1.008    11 C    1.007    45 H    0.975
                            46 H    0.972
    11   6 C    3.995 --    10 C    1.007    12 C    1.006    48 H    0.973
                            47 H    0.973
    12   6 C    3.993 --    13 C    1.009    11 C    1.006    49 H    0.973
                            50 H    0.968
    13   6 C    3.982 --    12 C    1.009    14 C    0.974    51 H    0.974
                            52 H    0.961
    14   6 C    3.935 --    13 C    0.974    15 N    0.964    53 H    0.964
                            54 H    0.960
    15   7 N    3.764 --    20 C    1.330    16 C    1.320    14 C    0.964
    16   6 C    3.959 --    17 C    1.456    15 N    1.320    55 H    0.956
    17   6 C    3.983 --    16 C    1.456    18 C    1.432    56 H    0.961
    18   6 C    3.975 --    17 C    1.432    19 C    1.375    57 H    0.959
    19   6 C    3.978 --    20 C    1.409    18 C    1.375    21 C    1.030
    20   6 C    3.957 --    19 C    1.409    15 N    1.330    58 H    0.951
    21   6 C    3.985 --    19 C    1.030    60 H    0.966    22 C    0.964
                            59 H    0.962
    22   6 C    3.989 --    23 C    1.010    62 H    0.977    61 H    0.967
                            21 C    0.964
    23   6 C    3.995 --    22 C    1.010    24 C    1.007    64 H    0.973
                            63 H    0.972
    24   6 C    3.997 --    25 C    1.020    23 C    1.007    65 H    0.977
                            66 H    0.974
    25   6 C    3.994 --    24 C    1.020    67 H    0.987    68 H    0.986
                            69 H    0.985
    26   1 H    0.999 --     1 C    0.986
    27   1 H    0.999 --     1 C    0.987
    28   1 H    0.999 --     1 C    0.988
    29   1 H    0.999 --     2 C    0.976
    30   1 H    0.999 --     2 C    0.978
    31   1 H    0.999 --     3 C    0.976
    32   1 H    0.999 --     3 C    0.977
    33   1 H    0.999 --     4 C    0.975
    34   1 H    0.999 --     4 C    0.975
    35   1 H    0.999 --     5 C    0.975
    36   1 H    0.999 --     5 C    0.974
    37   1 H    0.999 --     6 C    0.975
    38   1 H    0.999 --     6 C    0.974
    39   1 H    0.999 --     7 C    0.976
    40   1 H    0.999 --     7 C    0.975
    41   1 H    0.999 --     8 C    0.976
    42   1 H    0.998 --     8 C    0.974
    43   1 H    0.999 --     9 C    0.975
    44   1 H    0.998 --     9 C    0.973
    45   1 H    0.999 --    10 C    0.975
    46   1 H    0.998 --    10 C    0.972
    47   1 H    1.000 --    11 C    0.973
    48   1 H    0.997 --    11 C    0.973
    49   1 H    0.999 --    12 C    0.973
    50   1 H    0.995 --    12 C    0.968
    51   1 H    0.998 --    13 C    0.974
    52   1 H    0.992 --    13 C    0.961
    53   1 H    0.993 --    14 C    0.964
    54   1 H    0.991 --    14 C    0.960
    55   1 H    0.989 --    16 C    0.956
    56   1 H    0.990 --    17 C    0.961
    57   1 H    0.990 --    18 C    0.959
    58   1 H    0.990 --    20 C    0.951
    59   1 H    0.993 --    21 C    0.962
    60   1 H    0.995 --    21 C    0.966
    61   1 H    0.994 --    22 C    0.967
    62   1 H    0.999 --    22 C    0.977
    63   1 H    0.996 --    23 C    0.972
    64   1 H    1.000 --    23 C    0.973
    65   1 H    0.998 --    24 C    0.977
    66   1 H    0.999 --    24 C    0.974
    67   1 H    0.998 --    25 C    0.987
    68   1 H    0.998 --    25 C    0.986
    69   1 H    0.999 --    25 C    0.985
 ---------------------------------------------------------------------------

molecular dipole:
                 x           y           z       tot (Debye)
 q only:       -9.882     -14.432      16.426
   full:      -10.029     -14.352      16.506      61.161

           -------------------------------------------------
          | TOTAL ENERGY              -76.401717434164 Eh   |
          | GRADIENT NORM               0.000196449612 Eh/α |
          | HOMO-LUMO GAP               0.473575327100 eV   |
           -------------------------------------------------

 * finished run on 2024/12/20 at 07:08:21.643
