   * xtb version 6.7.1 (edcfbbe) compiled by 'conda@3ef47c1a292c' on 2024-11-25

   ID    Z sym.   atoms
    1    6 C      1-8, 10-25
    2    7 N      9
    3    1 H      26-77

          program call               : xtb C1019.xyz --opt --namespace C1019 --charge +1
          :  Hamiltonian                  GFN2-xTB          :
 * total energy  :   -80.4667430 Eh     change       -0.1908660E-09 Eh
 * total energy  :   -80.4706103 Eh     change       -0.3867229E-02 Eh
 * total energy  :   -80.4714845 Eh     change       -0.8742735E-03 Eh
 * total energy  :   -80.4717457 Eh     change       -0.2611388E-03 Eh
 * total energy  :   -80.4719794 Eh     change       -0.2337480E-03 Eh
 * total energy  :   -80.4721297 Eh     change       -0.1502433E-03 Eh
 * total energy  :   -80.4722516 Eh     change       -0.1219525E-03 Eh
 * total energy  :   -80.4723534 Eh     change       -0.1018243E-03 Eh
 * total energy  :   -80.4724534 Eh     change       -0.1000084E-03 Eh
 * total energy  :   -80.4725663 Eh     change       -0.1128067E-03 Eh
 * total energy  :   -80.4752174 Eh     change       -0.5753502E-05 Eh
 * total energy  :   -80.4752251 Eh     change       -0.7713920E-05 Eh
 * total energy  :   -80.4752349 Eh     change       -0.9757785E-05 Eh
 * total energy  :   -80.4752450 Eh     change       -0.1010855E-04 Eh
 * total energy  :   -80.4752550 Eh     change       -0.1000713E-04 Eh
 * total energy  :   -80.4752653 Eh     change       -0.1030373E-04 Eh
 * total energy  :   -80.4752746 Eh     change       -0.9358098E-05 Eh
 * total energy  :   -80.4752813 Eh     change       -0.6638578E-05 Eh
 * total energy  :   -80.4752862 Eh     change       -0.4899588E-05 Eh
   *** GEOMETRY OPTIMIZATION CONVERGED AFTER 59 ITERATIONS ***

 final structure:
================
77
 xtb: 6.7.1 (edcfbbe)
C            0.46789226529720        0.06430519681124        0.08984670351946
C            0.43527152014419        0.78212383417563       -1.25849944719714
C            1.40950101195067        0.21700494078805       -2.30241951919010
C            0.91568039094011       -0.97602343366843       -3.12848435709306
C           -0.19815655534928       -0.62187405227013       -4.11952581865480
C            0.31384566430545        0.03136364653801       -5.40590815292157
C            1.02524743556270       -0.92643251664522       -6.36334770967443
C            0.09593033464239       -1.97087105169661       -6.97148208035130
N           -0.25240363424310       -1.23717329088060        0.07272578172039
C            0.25911214324716       -2.18783309139019        1.10788948561408
C            0.35941189881697       -1.65411215966879        2.53709941713331
C           -0.95175240821952       -1.42780158323092        3.29495149075718
C           -1.82860505714963       -2.67217336440067        3.46229351337930
C           -1.15316738917442       -3.84618786784157        4.17561587820328
C           -0.63888297320137       -3.53924665850578        5.58368687482127
C           -1.70858181468661       -3.07218156058173        6.57243897096154
C           -2.79735071266512       -4.11046682392747        6.81589026357807
C           -1.74028853358944       -1.09116127002772        0.05835699354853
C           -2.35707996389370       -1.70733297088418       -1.19396757027838
C           -2.23338294810655       -3.23086410029962       -1.24721628194674
C           -2.69394003239157       -3.81815695540955       -2.58448791022514
C           -4.17365765772822       -3.56903571681653       -2.90650953709707
C           -4.41426191148508       -2.42036726783130       -3.89063626688708
C           -4.01195260689739       -2.74395705927489       -5.33192271712668
C           -4.95131391519989       -3.73596581946773       -6.00633348274224
H            0.02265390871972        0.69010359884734        0.86514321667778
H            1.50888473769113       -0.12829771183863        0.35880922179035
H           -0.57953599081234        0.80566323330776       -1.65562851033052
H            0.71941958783451        1.81716791206582       -1.06349692144991
H            1.64989101239247        1.01691773596181       -3.00281669018978
H            2.34326559964902       -0.05301638139533       -1.80361240692002
H            1.76671694304208       -1.36303474325794       -3.69005998536742
H            0.58587888591182       -1.79922382348049       -2.48189137571336
H           -0.74573625884516       -1.52687065078811       -4.38554205956474
H           -0.90841306721642        0.06514058353357       -3.65257265159395
H           -0.53862522837838        0.46792481810413       -5.92981705902127
H            0.99171802870031        0.84844921305891       -5.15113832134878
H            1.45740121159659       -0.33251593921184       -7.17041643188085
H            1.85152357555107       -1.42802711296180       -5.85519293713651
H           -0.76279160933990       -1.49272107591742       -7.43688587271024
H            0.62248764534564       -2.54056507698183       -7.73241375057211
H           -0.26394653517948       -2.67224562614738       -6.22206533641788
H           -0.01498742881131       -1.65719316714890       -0.83936484089460
H           -0.37820036759150       -3.07275284651605        1.09071010403305
H            1.26182750795489       -2.48722556216822        0.79027367526018
H            0.94173330717501       -2.39456584144700        3.08719374253902
H            0.93819990528765       -0.73042104377283        2.55326510953911
H           -0.68533236344202       -1.06359274416925        4.28733548495379
H           -1.53485394406139       -0.63410810217085        2.82241314669215
H           -2.71417528508248       -2.37889902534309        4.02674193656701
H           -2.18275402770423       -3.02991577657641        2.49037406293473
H           -1.87667376501023       -4.66013536552186        4.23534739790722
H           -0.31669752127805       -4.21214456136011        3.57444019112702
H           -0.18190270326337       -4.45060331238729        5.97515813286650
H            0.14773313000424       -2.78283539188911        5.53288555106334
H           -1.21356773844976       -2.85483933172180        7.52114979912322
H           -2.16209319890074       -2.14147549879092        6.22567182696787
H           -2.35800583072287       -5.05730821235863        7.12092459017339
H           -3.46430768617347       -3.77461657381461        7.60581349420672
H           -3.39398410228214       -4.27855895174209        5.92253865302285
H           -2.15127927131732       -1.57809828152523        0.94047435543284
H           -1.98911527317622       -0.03055481155787        0.10902067039404
H           -3.41367603621719       -1.43997999029977       -1.20733753196772
H           -1.90104755369914       -1.27438784439162       -2.08517829417915
H           -1.19230070558039       -3.53584207524328       -1.09779475441319
H           -2.82497664880743       -3.67051887216402       -0.44128962749835
H           -2.07175707239143       -3.41041682936282       -3.38300068941093
H           -2.50691703235329       -4.89234974546475       -2.54905323107896
H           -4.60418951774242       -4.47519018248105       -3.33051034296488
H           -4.71564994440446       -3.36911542122146       -1.97979847983924
H           -5.47723362169247       -2.17178198527372       -3.87987498157012
H           -3.86881347368207       -1.53235339313334       -3.56402112064203
H           -4.01486138683829       -1.81454980364722       -5.90553760215363
H           -2.99455487655078       -3.14023271505189       -5.35837505191904
H           -5.97355062101689       -3.36578454237476       -5.98693129373730
H           -4.66036388060398       -3.88174417705567       -7.04346504450878
H           -4.92662796891380       -4.70362597719243       -5.51204568809005

          :  Hamiltonian                  GFN2-xTB          :
         :: total energy             -80.475286174997 Eh    ::
         :: gradient norm              0.000255823100 Eh/a0 ::
         :: HOMO-LUMO gap              7.359646596624 eV    ::
         :: SCC energy               -81.652261268093 Eh    ::
         :: -> dispersion             -0.066130680035 Eh    ::
         :: repulsion energy           1.176975093095 Eh    ::

    * Orbital Energies and Occupations

         #    Occupation            Energy/Eh            Energy/eV
      -------------------------------------------------------------
         1        2.0000           -0.8475509             -23.0630
       ...           ...                  ...                  ...
        64        2.0000           -0.5322001             -14.4819
        65        2.0000           -0.5313370             -14.4584
        66        2.0000           -0.5264200             -14.3246
        67        2.0000           -0.5221869             -14.2094
        68        2.0000           -0.5136431             -13.9769
        69        2.0000           -0.5091832             -13.8556
        70        2.0000           -0.5055550             -13.7569
        71        2.0000           -0.5054929             -13.7552
        72        2.0000           -0.5042088             -13.7202
        73        2.0000           -0.5018457             -13.6559
        74        2.0000           -0.5013895             -13.6435
        75        2.0000           -0.4969275             -13.5221
        76        2.0000           -0.4968062             -13.5188 (HOMO)
        77                         -0.2263442              -6.1591 (LUMO)
        78                         -0.1508021              -4.1035
        79                         -0.1402089              -3.8153
        80                         -0.1308545              -3.5607
        81                         -0.0693055              -1.8859
        82                         -0.0636550              -1.7321
        83                         -0.0606733              -1.6510
        84                         -0.0501491              -1.3646
        85                         -0.0379341              -1.0322
        86                         -0.0347582              -0.9458
        87                         -0.0312164              -0.8494
       ...                                ...                  ...
       152                          0.2469130               6.7188
      -------------------------------------------------------------
                  HL-Gap            0.2704620 Eh            7.3596 eV

     #   Z          covCN         q      C6AA      α(0)
     1   6 C        3.739    -0.031    21.212     6.572
     2   6 C        3.799    -0.079    22.016     6.681
     3   6 C        3.800    -0.074    21.921     6.666
     4   6 C        3.799    -0.060    21.651     6.625
     5   6 C        3.800    -0.059    21.642     6.624
     6   6 C        3.801    -0.062    21.698     6.632
     7   6 C        3.800    -0.056    21.575     6.613
     8   6 C        3.751    -0.104    22.549     6.772
     9   7 N        3.574     0.025    20.803     6.774
    10   6 C        3.737    -0.031    21.205     6.571
    11   6 C        3.799    -0.075    21.934     6.668
    12   6 C        3.799    -0.068    21.809     6.649
    13   6 C        3.799    -0.061    21.678     6.629
    14   6 C        3.800    -0.062    21.690     6.631
    15   6 C        3.800    -0.061    21.675     6.629
    16   6 C        3.799    -0.055    21.558     6.611
    17   6 C        3.751    -0.105    22.574     6.776
    18   6 C        3.738    -0.038    21.329     6.590
    19   6 C        3.802    -0.082    22.066     6.688
    20   6 C        3.800    -0.062    21.695     6.632
    21   6 C        3.800    -0.062    21.690     6.631
    22   6 C        3.800    -0.066    21.759     6.642
    23   6 C        3.801    -0.062    21.693     6.631
    24   6 C        3.800    -0.053    21.530     6.607
    25   6 C        3.752    -0.106    22.587     6.778
    26   1 H        0.924     0.082     1.955     2.187
    27   1 H        0.924     0.085     1.931     2.173
    28   1 H        0.925     0.060     2.200     2.319
    29   1 H        0.924     0.072     2.066     2.248
    30   1 H        0.925     0.064     2.155     2.296
    31   1 H        0.924     0.040     2.455     2.450
    32   1 H        0.924     0.056     2.242     2.342
    33   1 H        0.924     0.008     2.926     2.675
    34   1 H        0.924     0.041     2.438     2.442
    35   1 H        0.924     0.024     2.670     2.555
    36   1 H        0.924     0.042     2.428     2.437
    37   1 H        0.924     0.033     2.551     2.498
    38   1 H        0.924     0.040     2.454     2.450
    39   1 H        0.924     0.029     2.599     2.521
    40   1 H        0.925     0.040     2.449     2.447
    41   1 H        0.925     0.042     2.426     2.436
    42   1 H        0.925     0.028     2.611     2.527
    43   1 H        0.859     0.236     0.939     1.518
    44   1 H        0.924     0.091     1.871     2.139
    45   1 H        0.924     0.071     2.076     2.253
    46   1 H        0.924     0.077     2.009     2.216
    47   1 H        0.925     0.051     2.302     2.373
    48   1 H        0.925     0.062     2.180     2.309
    49   1 H        0.924     0.029     2.605     2.524
    50   1 H        0.924     0.051     2.307     2.375
    51   1 H        0.924     0.016     2.802     2.618
    52   1 H        0.924     0.046     2.370     2.408
    53   1 H        0.924     0.023     2.691     2.565
    54   1 H        0.924     0.040     2.451     2.448
    55   1 H        0.924     0.026     2.641     2.541
    56   1 H        0.924     0.036     2.501     2.473
    57   1 H        0.924     0.029     2.607     2.525
    58   1 H        0.925     0.040     2.455     2.450
    59   1 H        0.925     0.040     2.452     2.449
    60   1 H        0.925     0.033     2.549     2.497
    61   1 H        0.925     0.098     1.805     2.101
    62   1 H        0.924     0.082     1.954     2.186
    63   1 H        0.925     0.077     2.011     2.218
    64   1 H        0.924     0.059     2.214     2.327
    65   1 H        0.924     0.016     2.801     2.617
    66   1 H        0.924     0.042     2.426     2.436
    67   1 H        0.924     0.039     2.467     2.456
    68   1 H        0.924     0.042     2.420     2.433
    69   1 H        0.925     0.049     2.330     2.387
    70   1 H        0.924     0.032     2.558     2.501
    71   1 H        0.924     0.039     2.456     2.451
    72   1 H        0.924     0.022     2.709     2.574
    73   1 H        0.924     0.032     2.557     2.501
    74   1 H        0.924     0.027     2.634     2.538
    75   1 H        0.925     0.039     2.462     2.454
    76   1 H        0.925     0.040     2.453     2.449
    77   1 H        0.925     0.036     2.501     2.473

Wiberg/Mayer (AO) data.
largest (>0.10) Wiberg bond orders for each atom

     #   Z sym  total        # sym  WBO       # sym  WBO       # sym  WBO
 ---------------------------------------------------------------------------
     1   6 C    3.931 --     2 C    1.007    26 H    0.969    27 H    0.964
                             9 N    0.937
     2   6 C    3.985 --     1 C    1.007     3 C    1.005    29 H    0.967
                            28 H    0.965
     3   6 C    3.991 --     4 C    1.007     2 C    1.005    31 H    0.975
                            30 H    0.970
     4   6 C    3.994 --     3 C    1.007     5 C    1.006    32 H    0.968
                            33 H    0.950
     5   6 C    3.996 --     4 C    1.006     6 C    1.006    34 H    0.971
                            35 H    0.970
     6   6 C    3.995 --     7 C    1.008     5 C    1.006    36 H    0.976
                            37 H    0.974
     7   6 C    3.997 --     8 C    1.020     6 C    1.008    38 H    0.977
                            39 H    0.974
     8   6 C    3.996 --     7 C    1.020    40 H    0.987    41 H    0.986
                            42 H    0.985
     9   7 N    3.759 --     1 C    0.937    10 C    0.932    18 C    0.930
                            43 H    0.872
    10   6 C    3.929 --    11 C    1.007    45 H    0.971    44 H    0.962
                             9 N    0.932
    11   6 C    3.983 --    10 C    1.007    12 C    1.006    47 H    0.971
                            46 H    0.961
    12   6 C    3.992 --    13 C    1.007    11 C    1.006    49 H    0.974
                            48 H    0.970
    13   6 C    3.995 --    12 C    1.007    14 C    1.007    50 H    0.972
                            51 H    0.969
    14   6 C    3.996 --    15 C    1.007    13 C    1.007    53 H    0.975
                            52 H    0.974
    15   6 C    3.996 --    16 C    1.008    14 C    1.007    54 H    0.976
                            55 H    0.975
    16   6 C    3.997 --    17 C    1.020    15 C    1.008    56 H    0.978
                            57 H    0.976
    17   6 C    3.996 --    16 C    1.020    58 H    0.987    59 H    0.987
                            60 H    0.986
    18   6 C    3.925 --    19 C    1.008    62 H    0.967    61 H    0.957
                             9 N    0.930
    19   6 C    3.985 --    18 C    1.008    20 C    1.007    63 H    0.964
                            64 H    0.963
    20   6 C    3.995 --    19 C    1.007    21 C    1.005    66 H    0.976
                            65 H    0.972
    21   6 C    3.994 --    20 C    1.005    22 C    1.005    68 H    0.978
                            67 H    0.971
    22   6 C    3.995 --    23 C    1.008    21 C    1.005    70 H    0.976
                            69 H    0.974
    23   6 C    3.997 --    22 C    1.008    24 C    1.007    71 H    0.976
                            72 H    0.976
    24   6 C    3.998 --    25 C    1.021    23 C    1.007    73 H    0.978
                            74 H    0.974
    25   6 C    3.996 --    24 C    1.021    75 H    0.987    76 H    0.987
                            77 H    0.985
    26   1 H    0.993 --     1 C    0.969
    27   1 H    0.993 --     1 C    0.964
    28   1 H    0.996 --     2 C    0.965
    29   1 H    0.995 --     2 C    0.967
    30   1 H    0.996 --     3 C    0.970
    31   1 H    0.998 --     3 C    0.975
    32   1 H    0.997 --     4 C    0.968
    33   1 H    1.000 --     4 C    0.950
    34   1 H    0.998 --     5 C    0.971
    35   1 H    0.999 --     5 C    0.970
    36   1 H    0.998 --     6 C    0.976
    37   1 H    0.999 --     6 C    0.974
    38   1 H    0.998 --     7 C    0.977
    39   1 H    0.999 --     7 C    0.974
    40   1 H    0.998 --     8 C    0.987
    41   1 H    0.998 --     8 C    0.986
    42   1 H    0.999 --     8 C    0.985
    43   1 H    0.944 --     9 N    0.872
    44   1 H    0.991 --    10 C    0.962
    45   1 H    0.995 --    10 C    0.971
    46   1 H    0.994 --    11 C    0.961
    47   1 H    0.997 --    11 C    0.971
    48   1 H    0.996 --    12 C    0.970
    49   1 H    0.999 --    12 C    0.974
    50   1 H    0.997 --    13 C    0.972
    51   1 H    1.000 --    13 C    0.969
    52   1 H    0.998 --    14 C    0.974
    53   1 H    0.999 --    14 C    0.975
    54   1 H    0.998 --    15 C    0.976
    55   1 H    0.999 --    15 C    0.975
    56   1 H    0.999 --    16 C    0.978
    57   1 H    0.999 --    16 C    0.976
    58   1 H    0.998 --    17 C    0.987
    59   1 H    0.998 --    17 C    0.987
    60   1 H    0.999 --    17 C    0.986
    61   1 H    0.990 --    18 C    0.957
    62   1 H    0.993 --    18 C    0.967
    63   1 H    0.994 --    19 C    0.964
    64   1 H    0.996 --    19 C    0.963
    65   1 H    1.000 --    20 C    0.972
    66   1 H    0.998 --    20 C    0.976
    67   1 H    0.998 --    21 C    0.971
    68   1 H    0.998 --    21 C    0.978
    69   1 H    0.997 --    22 C    0.974
    70   1 H    0.999 --    22 C    0.976
    71   1 H    0.998 --    23 C    0.976
    72   1 H    1.000 --    23 C    0.976
    73   1 H    0.999 --    24 C    0.978
    74   1 H    0.999 --    24 C    0.974
    75   1 H    0.998 --    25 C    0.987
    76   1 H    0.998 --    25 C    0.987
    77   1 H    0.999 --    25 C    0.985
 ---------------------------------------------------------------------------

molecular dipole:
                 x           y           z       tot (Debye)
 q only:       -0.902      -2.444      -0.224
   full:       -0.773      -2.475      -0.256       6.621

           -------------------------------------------------
          | TOTAL ENERGY              -80.475286174997 Eh   |
          | GRADIENT NORM               0.000255823100 Eh/α |
          | HOMO-LUMO GAP               7.359646596624 eV   |
           -------------------------------------------------

 * finished run on 2024/12/20 at 07:08:40.287
