   * xtb version 6.7.1 (edcfbbe) compiled by 'conda@3ef47c1a292c' on 2024-11-25

   ID    Z sym.   atoms
    1    6 C      1-12, 14, 16-23
    2    7 N      13, 15
    3    1 H      24-58

          program call               : xtb C1012.xyz --opt --namespace C1012 --charge +1
          :  Hamiltonian                  GFN2-xTB          :
 * total energy  :   -68.3347358 Eh     change       -0.2827065E-08 Eh
 * total energy  :   -68.3392355 Eh     change       -0.4499719E-02 Eh
 * total energy  :   -68.3399581 Eh     change       -0.7225303E-03 Eh
 * total energy  :   -68.3401209 Eh     change       -0.1628702E-03 Eh
 * total energy  :   -68.3403228 Eh     change       -0.2018926E-03 Eh
 * total energy  :   -68.3404209 Eh     change       -0.9808688E-04 Eh
 * total energy  :   -68.3405294 Eh     change       -0.1084527E-03 Eh
 * total energy  :   -68.3406388 Eh     change       -0.1093902E-03 Eh
 * total energy  :   -68.3407517 Eh     change       -0.1129504E-03 Eh
 * total energy  :   -68.3408782 Eh     change       -0.1265065E-03 Eh
 * total energy  :   -68.3422465 Eh     change       -0.1319360E-04 Eh
 * total energy  :   -68.3422575 Eh     change       -0.1105445E-04 Eh
 * total energy  :   -68.3422673 Eh     change       -0.9730532E-05 Eh
 * total energy  :   -68.3422767 Eh     change       -0.9436465E-05 Eh
 * total energy  :   -68.3422861 Eh     change       -0.9412829E-05 Eh
 * total energy  :   -68.3422963 Eh     change       -0.1013688E-04 Eh
 * total energy  :   -68.3423079 Eh     change       -0.1166070E-04 Eh
 * total energy  :   -68.3423215 Eh     change       -0.1358472E-04 Eh
 * total energy  :   -68.3423256 Eh     change       -0.4093669E-05 Eh
   *** GEOMETRY OPTIMIZATION CONVERGED AFTER 44 ITERATIONS ***

 final structure:
================
58
 xtb: 6.7.1 (edcfbbe)
C            1.30490312430676       -0.71622007940670       -0.27714792816026
C            1.10219109645062       -1.21643179298521        1.14827348615166
C            1.47355113348047       -0.18024440434033        2.21026868173660
C            0.65760160825727        1.11302479042655        2.16225309390090
C           -0.85022954159514        0.93190872724059        2.34622569828458
C           -1.26692581080623        0.30322275434217        3.67762121554635
C           -0.80862948931217        1.06217517442436        4.92562918989883
C           -1.22735484917507        2.53283320558165        4.98092020307644
C           -2.74006523702951        2.76710012568576        4.98892095561955
C           -3.41707678393698        2.40173196185070        6.31311014854138
C           -3.17912835546085        3.42473611900170        7.42540639457266
C           -3.92693143226559        4.74945103932279        7.22606252846303
N           -5.35044845154201        4.60833040967592        7.43804050416585
C           -5.96220225463874        4.69517149830788        8.61405318168526
N           -7.27151104679575        4.50204791989612        8.50011588675645
C           -7.54243264939187        4.25791296363836        7.17021683281986
C           -6.31138992979618        4.32918246806608        6.48776433173291
C           -6.24306886019608        4.14263839777804        5.11089190488089
C           -7.42626442805237        3.87611488602483        4.45547428621127
C           -8.64667922592576        3.80203915446135        5.13477403602657
C           -8.73017539675900        3.99288980633811        6.49749976399515
C           -8.23630424689319        4.49419148194322        9.57774642357522
C           -8.54195694941558        3.06974822140970       10.02971800712810
H            0.61151808175741        0.08637946121938       -0.51573930596548
H            1.14094248957352       -1.52419060896723       -0.98624486955376
H            2.31929867500961       -0.34642495461916       -0.40938937603021
H            0.06523859452781       -1.53103678959066        1.28014631925833
H            1.72918873496844       -2.09748070509954        1.30416082792875
H            1.37157515536164       -0.63789677575009        3.19662085248721
H            2.52682985357088        0.08253034000581        2.08403928856281
H            1.03920468499486        1.78637606402703        2.93299242809570
H            0.82578191177311        1.60315534219412        1.20162453695295
H           -1.32935061444154        1.90839234619106        2.23970508199651
H           -1.23476450780831        0.30332852627438        1.54121802175033
H           -2.35591443611419        0.20800536623637        3.68684193364562
H           -0.86406590896053       -0.70908188352936        3.73520286946557
H           -1.19131190719247        0.53718575309171        5.80436958869178
H            0.27998889678399        1.02325983008798        4.98352467330731
H           -0.78287479054633        2.98383094900335        5.87126449690897
H           -0.80499235772095        3.05018903292154        4.11911604921992
H           -2.92267809234544        3.81911292813491        4.75487728244059
H           -3.19181739796090        2.17747307907088        4.19129053150230
H           -4.49132699009223        2.27519361047943        6.15644379832782
H           -3.02936938133008        1.43948321004946        6.64721424106988
H           -3.47449448220968        2.99696361318746        8.38613358611154
H           -2.11509165072145        3.65332766963676        7.48103185481117
H           -3.55301780052758        5.49071746115903        7.93573004355546
H           -3.76962483947048        5.12682958862705        6.21533844604662
H           -5.46199277501478        4.91218341006534        9.53965346094148
H           -5.31010814263122        4.19636355444467        4.57566635348300
H           -7.41325550165536        3.72092880913318        3.38859152579148
H           -9.54388990448805        3.59149855501894        4.57519718604664
H           -9.67412858704415        3.93909117148101        7.01419438153314
H           -7.82900426942723        5.07591430061759       10.40691517716312
H           -9.14585461330443        4.98273634945426        9.22140600233026
H           -7.64694339369854        2.58563949744573       10.41251583891721
H           -9.28390733193876        3.09449780159701       10.82181316996190
H           -8.93472942516931        2.47713926799433        9.20758487664096

          :  Hamiltonian                  GFN2-xTB          :
         :: total energy             -68.342325596568 Eh    ::
         :: gradient norm              0.000212077717 Eh/a0 ::
         :: HOMO-LUMO gap              1.433485436460 eV    ::
         :: SCC energy               -69.416965618940 Eh    ::
         :: -> dispersion             -0.052521930247 Eh    ::
         :: repulsion energy           1.074640022371 Eh    ::

    * Orbital Energies and Occupations

         #    Occupation            Energy/Eh            Energy/eV
      -------------------------------------------------------------
         1        2.0000           -0.8783983             -23.9024
       ...           ...                  ...                  ...
        52        2.0000           -0.5387206             -14.6593
        53        2.0000           -0.5343133             -14.5394
        54        2.0000           -0.5271750             -14.3452
        55        2.0000           -0.5239063             -14.2562
        56        2.0000           -0.5138683             -13.9831
        57        2.0000           -0.5097279             -13.8704
        58        2.0000           -0.5029924             -13.6871
        59        2.0000           -0.4926733             -13.4063
        60        2.0000           -0.4897771             -13.3275
        61        2.0000           -0.4858251             -13.2200
        62        2.0000           -0.4719616             -12.8427
        63        2.0000           -0.4678889             -12.7319
        64        2.0000           -0.4658406             -12.6762 (HOMO)
        65                         -0.4131610             -11.2427 (LUMO)
        66                         -0.3628507              -9.8737
        67                         -0.3545416              -9.6476
        68                         -0.2371625              -6.4535
        69                         -0.1762922              -4.7972
        70                         -0.1304045              -3.5485
        71                         -0.0701127              -1.9079
        72                         -0.0461276              -1.2552
        73                         -0.0375213              -1.0210
        74                         -0.0304899              -0.8297
        75                         -0.0266981              -0.7265
       ...                                ...                  ...
       127                          0.5404963              14.7077
      -------------------------------------------------------------
                  HL-Gap            0.0526796 Eh            1.4335 eV

     #   Z          covCN         q      C6AA      α(0)
     1   6 C        3.751    -0.102    22.517     6.767
     2   6 C        3.799    -0.052    21.518     6.605
     3   6 C        3.801    -0.058    21.616     6.620
     4   6 C        3.800    -0.058    21.616     6.620
     5   6 C        3.800    -0.057    21.605     6.618
     6   6 C        3.800    -0.058    21.618     6.620
     7   6 C        3.800    -0.059    21.641     6.623
     8   6 C        3.800    -0.061    21.677     6.629
     9   6 C        3.800    -0.061    21.676     6.629
    10   6 C        3.800    -0.065    21.745     6.639
    11   6 C        3.801    -0.068    21.797     6.647
    12   6 C        3.741    -0.021    21.018     6.541
    13   7 N        2.825     0.036    20.621     6.744
    14   6 C        3.079     0.064    26.477     8.436
    15   7 N        2.826     0.032    20.687     6.755
    16   6 C        3.123     0.039    26.936     8.499
    17   6 C        3.120     0.042    26.892     8.493
    18   6 C        2.909    -0.032    28.803     8.800
    19   6 C        2.925    -0.019    28.475     8.751
    20   6 C        2.925    -0.018    28.459     8.748
    21   6 C        2.908    -0.033    28.822     8.803
    22   6 C        3.740    -0.015    20.919     6.526
    23   6 C        3.753    -0.122    22.897     6.824
    24   1 H        0.925     0.033     2.545     2.495
    25   1 H        0.925     0.034     2.535     2.490
    26   1 H        0.925     0.036     2.509     2.477
    27   1 H        0.924     0.029     2.601     2.522
    28   1 H        0.924     0.030     2.592     2.518
    29   1 H        0.924     0.028     2.618     2.530
    30   1 H        0.924     0.031     2.566     2.505
    31   1 H        0.924     0.027     2.631     2.537
    32   1 H        0.924     0.035     2.522     2.484
    33   1 H        0.924     0.023     2.690     2.565
    34   1 H        0.924     0.036     2.507     2.476
    35   1 H        0.924     0.022     2.704     2.572
    36   1 H        0.924     0.039     2.467     2.456
    37   1 H        0.924     0.025     2.659     2.550
    38   1 H        0.924     0.041     2.433     2.439
    39   1 H        0.924     0.027     2.629     2.536
    40   1 H        0.924     0.044     2.395     2.420
    41   1 H        0.924     0.020     2.735     2.586
    42   1 H        0.925     0.047     2.362     2.403
    43   1 H        0.924     0.025     2.652     2.546
    44   1 H        0.925     0.058     2.219     2.330
    45   1 H        0.924     0.044     2.401     2.423
    46   1 H        0.925     0.073     2.058     2.243
    47   1 H        0.924     0.073     2.049     2.238
    48   1 H        0.924     0.089     1.893     2.151
    49   1 H        0.926     0.103     1.762     2.076
    50   1 H        0.926     0.077     2.013     2.219
    51   1 H        0.926     0.079     1.984     2.203
    52   1 H        0.926     0.079     1.986     2.204
    53   1 H        0.926     0.071     2.071     2.251
    54   1 H        0.924     0.078     1.997     2.210
    55   1 H        0.924     0.086     1.915     2.164
    56   1 H        0.925     0.061     2.191     2.315
    57   1 H        0.925     0.081     1.973     2.197
    58   1 H        0.925     0.065     2.146     2.291

Wiberg/Mayer (AO) data.
largest (>0.10) Wiberg bond orders for each atom

     #   Z sym  total        # sym  WBO       # sym  WBO       # sym  WBO
 ---------------------------------------------------------------------------
     1   6 C    3.997 --     2 C    1.020    26 H    0.987    25 H    0.987
                            24 H    0.986
     2   6 C    3.998 --     1 C    1.020     3 C    1.008    28 H    0.978
                            27 H    0.976
     3   6 C    3.997 --     2 C    1.008     4 C    1.008    30 H    0.977
                            29 H    0.976
     4   6 C    3.997 --     5 C    1.008     3 C    1.008    31 H    0.975
                            32 H    0.975
     5   6 C    3.997 --     4 C    1.008     6 C    1.008    33 H    0.975
                            34 H    0.974
     6   6 C    3.997 --     5 C    1.008     7 C    1.007    35 H    0.975
                            36 H    0.974
     7   6 C    3.996 --     8 C    1.008     6 C    1.007    38 H    0.974
                            37 H    0.974
     8   6 C    3.996 --     7 C    1.008     9 C    1.007    39 H    0.973
                            40 H    0.973
     9   6 C    3.996 --    10 C    1.007     8 C    1.007    42 H    0.972
                            41 H    0.971
    10   6 C    3.993 --    11 C    1.008     9 C    1.007    43 H    0.975
                            44 H    0.969
    11   6 C    3.984 --    10 C    1.008    12 C    0.983    45 H    0.975
                            46 H    0.964
    12   6 C    3.938 --    11 C    0.983    13 N    0.968    47 H    0.966
                            48 H    0.958
    13   7 N    3.686 --    14 C    1.372    17 C    1.130    12 C    0.968
                            15 N    0.104
    14   6 C    3.955 --    13 N    1.372    15 N    1.368    49 H    0.954
    15   7 N    3.683 --    14 C    1.368    16 C    1.130    22 C    0.968
                            13 N    0.104
    16   6 C    3.953 --    21 C    1.336    17 C    1.272    15 N    1.130
    17   6 C    3.954 --    18 C    1.334    16 C    1.272    13 N    1.130
    18   6 C    3.985 --    19 C    1.499    17 C    1.334    50 H    0.959
                            21 C    0.119
    19   6 C    3.986 --    18 C    1.499    20 C    1.373    51 H    0.966
    20   6 C    3.986 --    21 C    1.499    19 C    1.373    52 H    0.966
    21   6 C    3.986 --    20 C    1.499    16 C    1.336    53 H    0.963
                            18 C    0.119
    22   6 C    3.943 --    23 C    1.002    54 H    0.968    15 N    0.968
                            55 H    0.962
    23   6 C    3.982 --    22 C    1.002    56 H    0.985    58 H    0.984
                            57 H    0.977
    24   1 H    0.999 --     1 C    0.986
    25   1 H    0.999 --     1 C    0.987
    26   1 H    0.999 --     1 C    0.987
    27   1 H    0.999 --     2 C    0.976
    28   1 H    0.999 --     2 C    0.978
    29   1 H    0.999 --     3 C    0.976
    30   1 H    0.999 --     3 C    0.977
    31   1 H    0.999 --     4 C    0.975
    32   1 H    0.999 --     4 C    0.975
    33   1 H    0.999 --     5 C    0.975
    34   1 H    0.999 --     5 C    0.974
    35   1 H    1.000 --     6 C    0.975
    36   1 H    0.998 --     6 C    0.974
    37   1 H    0.999 --     7 C    0.974
    38   1 H    0.998 --     7 C    0.974
    39   1 H    0.999 --     8 C    0.973
    40   1 H    0.998 --     8 C    0.973
    41   1 H    1.000 --     9 C    0.971
    42   1 H    0.998 --     9 C    0.972
    43   1 H    0.999 --    10 C    0.975
    44   1 H    0.996 --    10 C    0.969
    45   1 H    0.998 --    11 C    0.975
    46   1 H    0.994 --    11 C    0.964
    47   1 H    0.994 --    12 C    0.966
    48   1 H    0.992 --    12 C    0.958
    49   1 H    0.989 --    14 C    0.954
    50   1 H    0.994 --    18 C    0.959
    51   1 H    0.993 --    19 C    0.966
    52   1 H    0.993 --    20 C    0.966
    53   1 H    0.994 --    21 C    0.963
    54   1 H    0.993 --    22 C    0.968
    55   1 H    0.992 --    22 C    0.962
    56   1 H    0.996 --    23 C    0.985
    57   1 H    0.992 --    23 C    0.977
    58   1 H    0.996 --    23 C    0.984
 ---------------------------------------------------------------------------

molecular dipole:
                 x           y           z       tot (Debye)
 q only:      -11.836       7.800      14.142
   full:      -11.798       7.972      14.374      51.427

           -------------------------------------------------
          | TOTAL ENERGY              -68.342325596568 Eh   |
          | GRADIENT NORM               0.000212077717 Eh/α |
          | HOMO-LUMO GAP               1.433485436460 eV   |
           -------------------------------------------------

 * finished run on 2024/12/20 at 07:08:24.407
