   * xtb version 6.7.1 (edcfbbe) compiled by 'conda@3ef47c1a292c' on 2024-11-25

   ID    Z sym.   atoms
    1    6 C      1-3, 5-10
    2    7 N      4
    3    8 O      11
    4    1 H      12-23

          program call               : xtb C1017.xyz --opt --namespace C1017 --charge +1
          :  Hamiltonian                  GFN2-xTB          :
 * total energy  :   -31.9230980 Eh     change       -0.9575629E-09 Eh
 * total energy  :   -31.9270437 Eh     change       -0.3945724E-02 Eh
 * total energy  :   -31.9278476 Eh     change       -0.8038670E-03 Eh
 * total energy  :   -31.9281020 Eh     change       -0.2544557E-03 Eh
 * total energy  :   -31.9283001 Eh     change       -0.1980353E-03 Eh
 * total energy  :   -31.9284283 Eh     change       -0.1282128E-03 Eh
 * total energy  :   -31.9285800 Eh     change       -0.1516943E-03 Eh
 * total energy  :   -31.9286989 Eh     change       -0.1189604E-03 Eh
 * total energy  :   -31.9287638 Eh     change       -0.6483763E-04 Eh
 * total energy  :   -31.9287854 Eh     change       -0.2165346E-04 Eh
 * total energy  :   -31.9288062 Eh     change       -0.2090480E-04 Eh
 * total energy  :   -31.9288207 Eh     change       -0.1447264E-04 Eh
 * total energy  :   -31.9288338 Eh     change       -0.1306419E-04 Eh
 * total energy  :   -31.9288556 Eh     change       -0.2183627E-04 Eh
 * total energy  :   -31.9288631 Eh     change       -0.7467627E-05 Eh
 * total energy  :   -31.9288659 Eh     change       -0.2872532E-05 Eh
 * total energy  :   -31.9288720 Eh     change       -0.6088664E-05 Eh
 * total energy  :   -31.9288749 Eh     change       -0.2908976E-05 Eh
 * total energy  :   -31.9288779 Eh     change       -0.2976453E-05 Eh
   *** GEOMETRY OPTIMIZATION CONVERGED AFTER 20 ITERATIONS ***

 final structure:
================
23
 xtb: 6.7.1 (edcfbbe)
C            0.50018604145936       -0.46568786327024        0.08371884712585
C            0.23780227326298        0.81678139833399       -0.07503305389985
C           -1.10687510347232        1.33889371207000       -0.51123460546778
N           -1.59132458332418        2.33633789635601        0.43867948818582
C           -2.20461238302735        1.88265258364484        1.54042608494578
C           -2.64746930590483        2.72798579806650        2.53160383887930
C           -2.44579756103046        4.09417021304247        2.37994354447767
C           -1.80922488504031        4.54664145992767        1.23649850759926
C           -1.37969495368556        3.65269636226055        0.26355444636863
C           -0.69568117525398        4.16335566538112       -0.98182946524932
O           -1.40755213565276        3.72386215072648       -2.11611396076514
H           -0.24147185385715       -1.22949008990572       -0.08278128607672
H            1.48018637922399       -0.80829185907648        0.36356164242008
H            1.00128799193836        1.56469866568791        0.08886539663443
H           -1.04719047818759        1.79026381652337       -1.50315112609158
H           -1.82517482662615        0.51847394123742       -0.55438365340785
H           -2.33296122498389        0.81274354796440        1.61549137461514
H           -3.14226790290668        2.32589475781781        3.40070789656879
H           -2.78351163399105        4.79048239922336        3.13134782634280
H           -1.64701705539670        5.60256138735721        1.08866797936059
H           -0.66490720570720        5.25679585993494       -0.93448907829133
H            0.34285991017766        3.79432818349188       -1.00360247338569
H           -1.12832832801435        4.21806001320423       -2.89423817088898

          :  Hamiltonian                  GFN2-xTB          :
         :: total energy             -31.928877921020 Eh    ::
         :: gradient norm              0.000579253365 Eh/a0 ::
         :: HOMO-LUMO gap              2.622930982646 eV    ::
         :: SCC energy               -32.429197726982 Eh    ::
         :: -> dispersion             -0.018027850789 Eh    ::
         :: repulsion energy           0.500319805962 Eh    ::

    * Orbital Energies and Occupations

         #    Occupation            Energy/Eh            Energy/eV
      -------------------------------------------------------------
         1        2.0000           -0.8750690             -23.8118
       ...           ...                  ...                  ...
        17        2.0000           -0.6791097             -18.4795
        18        2.0000           -0.6762369             -18.4013
        19        2.0000           -0.6518233             -17.7370
        20        2.0000           -0.6401920             -17.4205
        21        2.0000           -0.6342113             -17.2578
        22        2.0000           -0.6221809             -16.9304
        23        2.0000           -0.6185290             -16.8310
        24        2.0000           -0.6141451             -16.7117
        25        2.0000           -0.6085184             -16.5586
        26        2.0000           -0.6016250             -16.3710
        27        2.0000           -0.5728755             -15.5887
        28        2.0000           -0.5682796             -15.4637
        29        2.0000           -0.5515742             -15.0091 (HOMO)
        30                         -0.4551832             -12.3862 (LUMO)
        31                         -0.4253564             -11.5745
        32                         -0.3510926              -9.5537
        33                         -0.3060845              -8.3290
        34                         -0.1650696              -4.4918
        35                         -0.1086217              -2.9557
        36                         -0.0946897              -2.5766
        37                         -0.0504251              -1.3721
        38                         -0.0405334              -1.1030
        39                         -0.0318572              -0.8669
        40                         -0.0238387              -0.6487
       ...                                ...                  ...
        56                          0.4799769              13.0608
      -------------------------------------------------------------
                  HL-Gap            0.0963909 Eh            2.6229 eV

     #   Z          covCN         q      C6AA      α(0)
     1   6 C        2.837    -0.079    29.953     8.969
     2   6 C        2.886    -0.038    28.952     8.822
     3   6 C        3.764    -0.045    21.420     6.597
     4   7 N        2.752     0.110    19.346     6.533
     5   6 C        2.895     0.032    27.286     8.564
     6   6 C        2.915    -0.013    28.339     8.729
     7   6 C        2.923     0.012    27.756     8.640
     8   6 C        2.921    -0.022    28.566     8.765
     9   6 C        2.927     0.082    26.181     8.391
    10   6 C        3.678     0.070    19.619     6.345
    11   8 O        1.656    -0.427    21.376     6.241
    12   1 H        0.926     0.069     2.094     2.263
    13   1 H        0.926     0.082     1.960     2.189
    14   1 H        0.925     0.052     2.291     2.367
    15   1 H        0.924     0.129     1.541     1.942
    16   1 H        0.924     0.096     1.822     2.111
    17   1 H        0.926     0.111     1.685     2.030
    18   1 H        0.926     0.109     1.705     2.042
    19   1 H        0.926     0.108     1.716     2.049
    20   1 H        0.926     0.103     1.760     2.074
    21   1 H        0.924     0.067     2.115     2.274
    22   1 H        0.923     0.070     2.084     2.258
    23   1 H        0.805     0.322     0.659     1.276

Wiberg/Mayer (AO) data.
largest (>0.10) Wiberg bond orders for each atom

     #   Z sym  total        # sym  WBO       # sym  WBO       # sym  WBO
 ---------------------------------------------------------------------------
     1   6 C    3.981 --     2 C    1.983    12 H    0.971    13 H    0.968
     2   6 C    3.981 --     1 C    1.983     3 C    0.990    14 H    0.963
     3   6 C    3.924 --     2 C    0.990    16 H    0.957     4 N    0.950
                            15 H    0.934
     4   7 N    3.764 --     5 C    1.322     9 C    1.313     3 C    0.950
     5   6 C    3.958 --     6 C    1.475     4 N    1.322    17 H    0.953
     6   6 C    3.981 --     5 C    1.475     7 C    1.406    18 H    0.959
     7   6 C    3.969 --     8 C    1.442     6 C    1.406    19 H    0.961
     8   6 C    3.982 --     7 C    1.442     9 C    1.418    20 H    0.958
     9   6 C    3.962 --     8 C    1.418     4 N    1.313    10 C    1.003
    10   6 C    3.959 --     9 C    1.003    11 O    1.002    21 H    0.966
                            22 H    0.942
    11   8 O    1.967 --    10 C    1.002    23 H    0.881
    12   1 H    0.995 --     1 C    0.971
    13   1 H    0.991 --     1 C    0.968
    14   1 H    0.997 --     2 C    0.963
    15   1 H    0.983 --     3 C    0.934
    16   1 H    0.991 --     3 C    0.957
    17   1 H    0.987 --     5 C    0.953
    18   1 H    0.987 --     6 C    0.959
    19   1 H    0.988 --     7 C    0.961
    20   1 H    0.989 --     8 C    0.958
    21   1 H    0.995 --    10 C    0.966
    22   1 H    0.995 --    10 C    0.942
    23   1 H    0.896 --    11 O    0.881
 ---------------------------------------------------------------------------

molecular dipole:
                 x           y           z       tot (Debye)
 q only:       -2.584       5.287       1.241
   full:       -2.490       5.491       1.173      15.611

           -------------------------------------------------
          | TOTAL ENERGY              -31.928877921020 Eh   |
          | GRADIENT NORM               0.000579253365 Eh/α |
          | HOMO-LUMO GAP               2.622930982646 eV   |
           -------------------------------------------------

 * finished run on 2024/12/20 at 07:08:33.035
