   * xtb version 6.7.1 (edcfbbe) compiled by 'conda@3ef47c1a292c' on 2024-11-25

   ID    Z sym.   atoms
    1    6 C      1-3, 5, 7-15, 17-19
    2    7 N      4, 6
    3   14 Si     16
    4    1 H      20-42

          program call               : xtb C1014.xyz --opt --namespace C1014 --charge +1
          :  Hamiltonian                  GFN2-xTB          :
 * total energy  :   -53.0925072 Eh     change       -0.3198153E-09 Eh
 * total energy  :   -53.1197518 Eh     change       -0.2724452E-01 Eh
 * total energy  :   -53.1226961 Eh     change       -0.2944309E-02 Eh
 * total energy  :   -53.1225079 Eh     change        0.1881322E-03 Eh
 * total energy  :   -53.1235528 Eh     change       -0.1044886E-02 Eh
 * total energy  :   -53.1238052 Eh     change       -0.2523846E-03 Eh
 * total energy  :   -53.1240758 Eh     change       -0.2705595E-03 Eh
 * total energy  :   -53.1243081 Eh     change       -0.2323167E-03 Eh
 * total energy  :   -53.1244905 Eh     change       -0.1823713E-03 Eh
 * total energy  :   -53.1246431 Eh     change       -0.1526313E-03 Eh
 * total energy  :   -53.1278588 Eh     change       -0.1878440E-04 Eh
 * total energy  :   -53.1278775 Eh     change       -0.1866287E-04 Eh
 * total energy  :   -53.1278919 Eh     change       -0.1437747E-04 Eh
 * total energy  :   -53.1279057 Eh     change       -0.1377208E-04 Eh
 * total energy  :   -53.1279194 Eh     change       -0.1376892E-04 Eh
 * total energy  :   -53.1279307 Eh     change       -0.1125016E-04 Eh
 * total energy  :   -53.1279384 Eh     change       -0.7718431E-05 Eh
 * total energy  :   -53.1279441 Eh     change       -0.5717831E-05 Eh
 * total energy  :   -53.1279482 Eh     change       -0.4132211E-05 Eh
   *** GEOMETRY OPTIMIZATION CONVERGED AFTER 81 ITERATIONS ***

 final structure:
================
42
 xtb: 6.7.1 (edcfbbe)
C           -0.21825481426103       -1.05878553051647       -0.26931316021354
C           -1.28477843226150       -0.52541192661806       -0.35850963935142
C           -2.57130625141008        0.14801893528631       -0.43090147163079
N           -2.62635730651731        1.23928845377185        0.52152807372777
C           -2.61394344732335        2.53948063256361        0.24402148065542
N           -2.64084179056075        3.26961703078363        1.35155294958066
C           -2.64996507509918        2.40399175903541        2.42614339808732
C           -2.64055238868739        1.10044976083415        1.89380843182812
C           -2.64642662812251       -0.02069525405146        2.71442298594502
C           -2.66831479574346        0.20626532965702        4.07464307161231
C           -2.68271935648357        1.49997086752448        4.60595184150332
C           -2.67235841304054        2.61870874678272        3.79944145523095
C           -2.53601751470695        4.70681304467001        1.42521706336218
C           -1.07491169878129        5.13104811399885        1.60534737930374
C           -0.21231631752003        4.83993268947926        0.38109063159011
Si          -0.56555115326417        5.91209051670421       -1.19153842996809
C           -1.13110093989710        7.64635304828114       -0.65081651391392
C            1.04621358175994        5.97358995414579       -2.19351377603478
C           -1.92504732436709        5.10465738375926       -2.27531786686787
H            0.71049087029915       -1.54572062530291       -0.21650216385341
H           -2.72643942772494        0.54643597762324       -1.43742116659750
H           -3.37102024888143       -0.56559371346975       -0.20303189488433
H           -2.59693927219452        2.95444831442460       -0.74701996708640
H           -2.62558891725762       -1.01843699630631        2.30819805248904
H           -2.67331559204345       -0.63455682884988        4.74951127963758
H           -2.70018013764838        1.62330921727315        5.67697046673915
H           -2.67950124792536        3.61153051079296        4.21807219880098
H           -2.93457882009557        5.13354549948048        0.50492362328164
H           -3.13847181343636        5.04750520613781        2.26953576146040
H           -1.06164553434777        6.20007929888484        1.81138270367421
H           -0.66825927430850        4.61860230846682        2.48162109888760
H            0.82243858619087        5.02890654593610        0.66556136046312
H           -0.25690469464823        3.77382909603368        0.14569393858854
H           -0.41107500565500        8.10472904550141        0.02038474067774
H           -1.22388204258148        8.29903658583810       -1.51303863359105
H           -2.09426688310021        7.64103997058093       -0.14835025299160
H            1.38900090205244        4.98033854679355       -2.46848404123407
H            0.91335046135996        6.53686819055639       -3.11165154864959
H            1.84456431344817        6.45053082083898       -1.63343394715858
H           -1.67161782643214        4.08412990952790       -2.55158114577580
H           -2.91240199728578        5.10750043606279       -1.82028438034041
H           -2.01341633149734        5.66196912707584       -3.20252398700214

          :  Hamiltonian                  GFN2-xTB          :
         :: total energy             -53.127948239189 Eh    ::
         :: gradient norm              0.000318651748 Eh/a0 ::
         :: HOMO-LUMO gap              2.184784106383 eV    ::
         :: SCC energy               -54.058430091971 Eh    ::
         :: -> dispersion             -0.041129205200 Eh    ::
         :: repulsion energy           0.930481852783 Eh    ::

    * Orbital Energies and Occupations

         #    Occupation            Energy/Eh            Energy/eV
      -------------------------------------------------------------
         1        2.0000           -0.8750732             -23.8120
       ...           ...                  ...                  ...
        38        2.0000           -0.5628512             -15.3160
        39        2.0000           -0.5587758             -15.2051
        40        2.0000           -0.5534152             -15.0592
        41        2.0000           -0.5512023             -14.9990
        42        2.0000           -0.5498180             -14.9613
        43        2.0000           -0.5492750             -14.9465
        44        2.0000           -0.5460283             -14.8582
        45        2.0000           -0.5445426             -14.8178
        46        2.0000           -0.5438720             -14.7995
        47        2.0000           -0.5387580             -14.6604
        48        2.0000           -0.4961501             -13.5009
        49        2.0000           -0.4918581             -13.3841
        50        2.0000           -0.4897803             -13.3276 (HOMO)
        51                         -0.4094909             -11.1428 (LUMO)
        52                         -0.3600240              -9.7968
        53                         -0.3515122              -9.5651
        54                         -0.2963510              -8.0641
        55                         -0.2825279              -7.6880
        56                         -0.2367973              -6.4436
        57                         -0.2340698              -6.3694
        58                         -0.2317223              -6.3055
        59                         -0.2253782              -6.1329
        60                         -0.1609994              -4.3810
        61                         -0.1209283              -3.2906
       ...                                ...                  ...
       104                          1.3029916              35.4562
      -------------------------------------------------------------
                  HL-Gap            0.0802893 Eh            2.1848 eV

     #   Z          covCN         q      C6AA      α(0)
     1   6 C        1.909    -0.074    33.129     9.296
     2   6 C        1.968    -0.027    31.773     9.103
     3   6 C        3.743     0.003    20.606     6.476
     4   7 N        2.835     0.034    20.656     6.750
     5   6 C        3.070     0.063    26.528     8.445
     6   7 N        2.829     0.038    20.570     6.736
     7   6 C        3.122     0.040    26.933     8.499
     8   6 C        3.119     0.040    26.930     8.500
     9   6 C        2.908    -0.032    28.801     8.800
    10   6 C        2.926    -0.018    28.459     8.749
    11   6 C        2.925    -0.018    28.469     8.750
    12   6 C        2.909    -0.032    28.805     8.801
    13   6 C        3.742    -0.025    21.097     6.553
    14   6 C        3.807    -0.069    21.809     6.648
    15   6 C        3.694    -0.173    24.078     7.020
    16  14 Si       3.495     0.485   101.151    19.473
    17   6 C        3.649    -0.212    25.090     7.196
    18   6 C        3.650    -0.212    25.092     7.195
    19   6 C        3.647    -0.212    25.096     7.199
    20   1 H        0.928     0.120     1.616     1.988
    21   1 H        0.924     0.094     1.839     2.121
    22   1 H        0.924     0.101     1.772     2.081
    23   1 H        0.926     0.112     1.683     2.029
    24   1 H        0.926     0.072     2.058     2.244
    25   1 H        0.926     0.079     1.987     2.205
    26   1 H        0.926     0.079     1.988     2.205
    27   1 H        0.926     0.071     2.074     2.252
    28   1 H        0.925     0.081     1.973     2.197
    29   1 H        0.924     0.080     1.976     2.198
    30   1 H        0.925     0.065     2.145     2.290
    31   1 H        0.924     0.046     2.376     2.410
    32   1 H        0.925     0.043     2.410     2.428
    33   1 H        0.924     0.011     2.877     2.652
    34   1 H        0.925     0.043     2.405     2.425
    35   1 H        0.925     0.048     2.342     2.393
    36   1 H        0.925     0.035     2.518     2.481
    37   1 H        0.925     0.042     2.428     2.437
    38   1 H        0.925     0.046     2.373     2.409
    39   1 H        0.925     0.046     2.376     2.410
    40   1 H        0.925     0.023     2.684     2.562
    41   1 H        0.925     0.021     2.721     2.580
    42   1 H        0.925     0.046     2.368     2.407

Wiberg/Mayer (AO) data.
largest (>0.10) Wiberg bond orders for each atom

     #   Z sym  total        # sym  WBO       # sym  WBO       # sym  WBO
 ---------------------------------------------------------------------------
     1   6 C    3.966 --     2 C    2.907    20 H    0.962
     2   6 C    3.976 --     1 C    2.907     3 C    1.031
     3   6 C    3.948 --     2 C    1.031     4 N    0.959    21 H    0.950
                            22 H    0.941
     4   7 N    3.678 --     5 C    1.361     8 C    1.127     3 C    0.959
                             6 N    0.103
     5   6 C    3.952 --     6 N    1.375     4 N    1.361    23 H    0.946
     6   7 N    3.689 --     5 C    1.375     7 C    1.128    13 C    0.970
                             4 N    0.103
     7   6 C    3.954 --    12 C    1.337     8 C    1.274     6 N    1.128
     8   6 C    3.954 --     9 C    1.339     7 C    1.274     4 N    1.127
     9   6 C    3.986 --    10 C    1.496     8 C    1.339    24 H    0.963
                            12 C    0.119
    10   6 C    3.986 --     9 C    1.496    11 C    1.376    25 H    0.966
    11   6 C    3.986 --    12 C    1.497    10 C    1.376    26 H    0.966
    12   6 C    3.986 --    11 C    1.497     7 C    1.337    27 H    0.963
                             9 C    0.119
    13   6 C    3.938 --    14 C    0.981     6 N    0.970    29 H    0.963
                            28 H    0.963
    14   6 C    3.983 --    15 C    1.025    13 C    0.981    31 H    0.973
                            30 H    0.970
    15   6 C    3.963 --    14 C    1.025    33 H    0.981    32 H    0.980
                            16 Si   0.838
    16  14 Si   3.616 --    18 C    0.912    17 C    0.907    19 C    0.884
                            15 C    0.838
    17   6 C    3.982 --    35 H    0.985    34 H    0.985    36 H    0.984
                            16 Si   0.907
    18   6 C    3.983 --    38 H    0.986    39 H    0.984    37 H    0.984
                            16 Si   0.912
    19   6 C    3.975 --    42 H    0.987    40 H    0.987    41 H    0.985
                            16 Si   0.884
    20   1 H    0.985 --     1 C    0.962
    21   1 H    0.991 --     3 C    0.950
    22   1 H    0.989 --     3 C    0.941
    23   1 H    0.987 --     5 C    0.946
    24   1 H    0.994 --     9 C    0.963
    25   1 H    0.993 --    10 C    0.966
    26   1 H    0.993 --    11 C    0.966
    27   1 H    0.994 --    12 C    0.963
    28   1 H    0.993 --    13 C    0.963
    29   1 H    0.993 --    13 C    0.963
    30   1 H    0.994 --    14 C    0.970
    31   1 H    0.998 --    14 C    0.973
    32   1 H    0.998 --    15 C    0.980
    33   1 H    1.000 --    15 C    0.981
    34   1 H    0.998 --    17 C    0.985
    35   1 H    0.998 --    17 C    0.985
    36   1 H    0.999 --    17 C    0.984
    37   1 H    0.998 --    18 C    0.984
    38   1 H    0.998 --    18 C    0.986
    39   1 H    0.998 --    18 C    0.984
    40   1 H    0.999 --    19 C    0.987
    41   1 H    1.000 --    19 C    0.985
    42   1 H    0.998 --    19 C    0.987
 ---------------------------------------------------------------------------

molecular dipole:
                 x           y           z       tot (Debye)
 q only:       -4.253       4.525       2.046
   full:       -4.298       4.598       1.900      16.712

           -------------------------------------------------
          | TOTAL ENERGY              -53.127948239189 Eh   |
          | GRADIENT NORM               0.000318651748 Eh/α |
          | HOMO-LUMO GAP               2.184784106383 eV   |
           -------------------------------------------------

 * finished run on 2024/12/20 at 07:08:27.862
