   * xtb version 6.7.1 (edcfbbe) compiled by 'conda@3ef47c1a292c' on 2024-11-25

   ID    Z sym.   atoms
    1    6 C      1-3, 6, 7, 9, 10, 12-17
    2    7 N      4, 8
    3    8 O      5, 11
    4   17 Cl     18
    5    1 H      19-32

          program call               : xtb C1010.xyz --opt --namespace C1010 --charge +1
          :  Hamiltonian                  GFN2-xTB          :
 * total energy  :   -53.0563609 Eh     change       -0.8044836E-09 Eh
 * total energy  :   -53.0641274 Eh     change       -0.7766506E-02 Eh
 * total energy  :   -53.0664391 Eh     change       -0.2311636E-02 Eh
 * total energy  :   -53.0667434 Eh     change       -0.3042891E-03 Eh
 * total energy  :   -53.0669324 Eh     change       -0.1890690E-03 Eh
 * total energy  :   -53.0670544 Eh     change       -0.1219428E-03 Eh
 * total energy  :   -53.0672233 Eh     change       -0.1689315E-03 Eh
 * total energy  :   -53.0674039 Eh     change       -0.1805536E-03 Eh
 * total energy  :   -53.0675820 Eh     change       -0.1781409E-03 Eh
 * total energy  :   -53.0677390 Eh     change       -0.1570126E-03 Eh
 * total energy  :   -53.0773700 Eh     change       -0.8341985E-05 Eh
 * total energy  :   -53.0773775 Eh     change       -0.7542769E-05 Eh
 * total energy  :   -53.0773908 Eh     change       -0.1325705E-04 Eh
 * total energy  :   -53.0774057 Eh     change       -0.1491533E-04 Eh
 * total energy  :   -53.0774201 Eh     change       -0.1439732E-04 Eh
 * total energy  :   -53.0774439 Eh     change       -0.2381273E-04 Eh
 * total energy  :   -53.0774516 Eh     change       -0.7726295E-05 Eh
 * total energy  :   -53.0774576 Eh     change       -0.5995626E-05 Eh
 * total energy  :   -53.0774614 Eh     change       -0.3777338E-05 Eh
   *** GEOMETRY OPTIMIZATION CONVERGED AFTER 76 ITERATIONS ***

 final structure:
================
32
 xtb: 6.7.1 (edcfbbe)
C            2.29984736033933        0.84820857283698       -0.46744908909108
C            0.91977126586997        0.54734422496141       -1.06837188128983
C            0.98165179236337       -0.65132449141140       -1.93336506289809
N            1.01605410992020       -1.90182021347540       -1.46066421163938
O            0.96249697558652       -2.18662668591624       -0.13485449758282
C            1.17557346425927       -2.78699811937055       -2.48314448860305
C            1.23680024310035       -2.04375200088110       -3.61817697549021
N            1.14512603042536       -0.72885478442978       -3.26204188591358
C            0.94464657633103        0.36170337376600       -4.17421665667735
C           -0.55678204517541        0.77082321243758       -4.10480401908886
O           -1.24320368014269        0.26461926265259       -3.24547549003666
C           -1.02803668583929        1.74720141440386       -5.07656947422479
C           -0.20165924961837        2.37486105839299       -6.01762006773927
C           -0.72638924085129        3.29125554914918       -6.90185430330710
C           -2.08602090402516        3.59863600093581       -6.86640344395187
C           -2.92031415352472        2.98542027867585       -5.93474935693950
C           -2.39268153334792        2.07220164691928       -5.05113880815605
Cl          -2.72768593740315        4.73531685416238       -7.97224309840454
H            2.64423795947736        0.01283761589298        0.13549881780347
H            2.22913698811232        1.72331427102324        0.17030975888569
H            3.03235658508078        1.04697381450528       -1.24572902252134
H            0.21612652156451        0.34680881406450       -0.25818152684976
H            0.55506705286556        1.40387930017729       -1.63240742789008
H            0.49113188342320       -3.02351933019039        0.01361170936402
H            1.22493156502137       -3.84695467755428       -2.33838449591680
H            1.34361171123939       -2.35796082840701       -4.63620063145520
H            1.56472054512477        1.21696396612553       -3.89591145289264
H            1.20326977833069        0.03504159195381       -5.18129825560283
H            0.85424171395600        2.16008785395810       -6.06304881513020
H           -0.09103824663413        3.77624996179973       -7.62563056859031
H           -3.97039305796407        3.22840662532332       -5.91102709686358
H           -3.02231538785909        1.58580586754899       -4.32158818132465

          :  Hamiltonian                  GFN2-xTB          :
         :: total energy             -53.077461410290 Eh    ::
         :: gradient norm              0.000496989911 Eh/a0 ::
         :: HOMO-LUMO gap              2.525839268800 eV    ::
         :: SCC energy               -53.785382633091 Eh    ::
         :: -> dispersion             -0.031622960965 Eh    ::
         :: repulsion energy           0.707921222802 Eh    ::

    * Orbital Energies and Occupations

         #    Occupation            Energy/Eh            Energy/eV
      -------------------------------------------------------------
         1        2.0000           -1.1489592             -31.2648
       ...           ...                  ...                  ...
        35        2.0000           -0.6087714             -16.5655
        36        2.0000           -0.6014855             -16.3673
        37        2.0000           -0.5970245             -16.2459
        38        2.0000           -0.5831359             -15.8679
        39        2.0000           -0.5758281             -15.6691
        40        2.0000           -0.5701987             -15.5159
        41        2.0000           -0.5657674             -15.3953
        42        2.0000           -0.5614596             -15.2781
        43        2.0000           -0.5506317             -14.9835
        44        2.0000           -0.5347133             -14.5503
        45        2.0000           -0.5344136             -14.5421
        46        2.0000           -0.5144197             -13.9981
        47        2.0000           -0.5056421             -13.7592 (HOMO)
        48                         -0.4128192             -11.2334 (LUMO)
        49                         -0.3921304             -10.6704
        50                         -0.3653973              -9.9430
        51                         -0.3500096              -9.5242
        52                         -0.3211188              -8.7381
        53                         -0.2426362              -6.6025
        54                         -0.2263753              -6.1600
        55                         -0.2149937              -5.8503
        56                         -0.1442504              -3.9253
        57                         -0.0851270              -2.3164
        58                         -0.0834824              -2.2717
       ...                                ...                  ...
        91                          0.5387050              14.6589
      -------------------------------------------------------------
                  HL-Gap            0.0928229 Eh            2.5258 eV

     #   Z          covCN         q      C6AA      α(0)
     1   6 C        3.755    -0.117    22.797     6.808
     2   6 C        3.803    -0.065    21.739     6.638
     3   6 C        3.079     0.106    25.577     8.291
     4   7 N        2.910     0.186    18.153     6.328
     5   8 O        1.724    -0.307    19.109     5.902
     6   6 C        3.019    -0.031    28.761     8.797
     7   6 C        3.061    -0.008    28.168     8.703
     8   7 N        2.880     0.053    20.315     6.694
     9   6 C        3.742    -0.049    21.527     6.619
    10   6 C        2.823     0.225    23.265     7.903
    11   8 O        0.857    -0.362    20.932     6.134
    12   6 C        2.969    -0.022    28.555     8.765
    13   6 C        2.919    -0.026    28.649     8.777
    14   6 C        2.955    -0.032    28.803     8.803
    15   6 C        2.887     0.118    25.401     8.263
    16   6 C        2.952    -0.031    28.770     8.798
    17   6 C        2.928    -0.009    28.234     8.714
    18  17 Cl       0.971    -0.095   102.130    15.461
    19   1 H        0.925     0.068     2.105     2.269
    20   1 H        0.925     0.078     1.995     2.209
    21   1 H        0.925     0.053     2.286     2.364
    22   1 H        0.924     0.102     1.770     2.081
    23   1 H        0.925     0.081     1.964     2.192
    24   1 H        0.804     0.352     0.583     1.200
    25   1 H        0.926     0.110     1.692     2.034
    26   1 H        0.926     0.108     1.713     2.047
    27   1 H        0.924     0.101     1.776     2.084
    28   1 H        0.925     0.101     1.774     2.083
    29   1 H        0.926     0.055     2.254     2.348
    30   1 H        0.926     0.082     1.954     2.186
    31   1 H        0.926     0.086     1.915     2.164
    32   1 H        0.926     0.087     1.906     2.159

Wiberg/Mayer (AO) data.
largest (>0.10) Wiberg bond orders for each atom

     #   Z sym  total        # sym  WBO       # sym  WBO       # sym  WBO
 ---------------------------------------------------------------------------
     1   6 C    3.982 --    21 H    0.987    19 H    0.985    20 H    0.979
                             2 C    0.978
     2   6 C    3.975 --     3 C    1.029     1 C    0.978    23 H    0.964
                            22 H    0.950
     3   6 C    3.936 --     4 N    1.305     8 N    1.303     2 C    1.029
     4   7 N    3.694 --     3 C    1.305     6 C    1.194     5 O    1.022
     5   8 O    2.019 --     4 N    1.022    24 H    0.859
     6   6 C    3.939 --     7 C    1.599     4 N    1.194    25 H    0.960
     7   6 C    3.947 --     6 C    1.599     8 N    1.208    26 H    0.960
     8   7 N    3.688 --     3 C    1.303     7 C    1.208     9 C    0.991
     9   6 C    3.945 --     8 N    0.991    28 H    0.955    27 H    0.946
                            10 C    0.921
    10   6 C    3.925 --    11 O    1.796    12 C    1.090     9 C    0.921
    11   8 O    2.077 --    10 C    1.796
    12   6 C    3.983 --    13 C    1.342    17 C    1.336    10 C    1.090
    13   6 C    3.990 --    14 C    1.490    12 C    1.342    29 H    0.965
    14   6 C    3.986 --    13 C    1.490    15 C    1.363    30 H    0.964
    15   6 C    3.929 --    16 C    1.371    14 C    1.363    18 Cl   1.041
    16   6 C    3.985 --    17 C    1.483    15 C    1.371    31 H    0.962
    17   6 C    3.982 --    16 C    1.483    12 C    1.336    32 H    0.961
    18  17 Cl   1.201 --    15 C    1.041
    19   1 H    0.995 --     1 C    0.985
    20   1 H    0.993 --     1 C    0.979
    21   1 H    0.997 --     1 C    0.987
    22   1 H    0.990 --     2 C    0.950
    23   1 H    0.993 --     2 C    0.964
    24   1 H    0.876 --     5 O    0.859
    25   1 H    0.987 --     6 C    0.960
    26   1 H    0.988 --     7 C    0.960
    27   1 H    0.989 --     9 C    0.946
    28   1 H    0.989 --     9 C    0.955
    29   1 H    0.997 --    13 C    0.965
    30   1 H    0.993 --    14 C    0.964
    31   1 H    0.992 --    16 C    0.962
    32   1 H    0.992 --    17 C    0.961
 ---------------------------------------------------------------------------

molecular dipole:
                 x           y           z       tot (Debye)
 q only:        1.673      -1.004      -5.630
   full:        1.559      -0.990      -6.084      16.160

           -------------------------------------------------
          | TOTAL ENERGY              -53.077461410290 Eh   |
          | GRADIENT NORM               0.000496989911 Eh/α |
          | HOMO-LUMO GAP               2.525839268800 eV   |
           -------------------------------------------------

 * finished run on 2024/12/20 at 07:08:17.115
