   * xtb version 6.7.1 (edcfbbe) compiled by 'conda@3ef47c1a292c' on 2024-11-25

   ID    Z sym.   atoms
    1   17 Cl     1, 8, 25, 26
    2    6 C      2-7, 9, 12, 13, 15, 16, 18-24
    3    8 O      10, 17
    4    7 N      11, 14
    5    1 H      27-41

          program call               : xtb C1016.xyz --opt --namespace C1016 --charge +1
          :  Hamiltonian                  GFN2-xTB          :
 * total energy  :   -77.9058231 Eh     change       -0.1126807E-08 Eh
 * total energy  :   -77.9151040 Eh     change       -0.9280885E-02 Eh
 * total energy  :   -77.9181088 Eh     change       -0.3004829E-02 Eh
 * total energy  :   -77.9186212 Eh     change       -0.5123109E-03 Eh
 * total energy  :   -77.9190103 Eh     change       -0.3890967E-03 Eh
 * total energy  :   -77.9191934 Eh     change       -0.1831221E-03 Eh
 * total energy  :   -77.9193418 Eh     change       -0.1484520E-03 Eh
 * total energy  :   -77.9194848 Eh     change       -0.1430069E-03 Eh
 * total energy  :   -77.9196477 Eh     change       -0.1628323E-03 Eh
 * total energy  :   -77.9198024 Eh     change       -0.1546854E-03 Eh
 * total energy  :   -77.9245902 Eh     change       -0.1288839E-04 Eh
 * total energy  :   -77.9246049 Eh     change       -0.1472240E-04 Eh
 * total energy  :   -77.9246244 Eh     change       -0.1949421E-04 Eh
 * total energy  :   -77.9246501 Eh     change       -0.2571617E-04 Eh
 * total energy  :   -77.9246773 Eh     change       -0.2716324E-04 Eh
 * total energy  :   -77.9246999 Eh     change       -0.2266692E-04 Eh
 * total energy  :   -77.9247158 Eh     change       -0.1590494E-04 Eh
 * total energy  :   -77.9247214 Eh     change       -0.5592035E-05 Eh
 * total energy  :   -77.9247263 Eh     change       -0.4916730E-05 Eh
   *** GEOMETRY OPTIMIZATION CONVERGED AFTER 107 ITERATIONS ***

 final structure:
================
41
 xtb: 6.7.1 (edcfbbe)
Cl          -3.19902049979439       -1.97397718586046       -1.22975366885182
C           -1.49964199336575       -1.89074902803628       -1.00648658766055
C           -0.73199379055478       -3.04553404000293       -1.08580718589692
C            0.63662189965187       -2.96297863309240       -0.91996872199589
C            1.26164092736040       -1.74929708985970       -0.65485163922495
C            0.47136115641903       -0.60083519592891       -0.57281671969571
C           -0.90110740493627       -0.66529386416548       -0.75002296623420
Cl           1.20479181642309        0.93442888865818       -0.26361490390994
C            2.75240790393573       -1.67963754330139       -0.48422970856035
O            3.40601879980912       -0.92485980215057       -1.52829854295852
N            3.00514890084898       -1.26507718229621       -2.77526463731351
C            2.02701316333987       -0.63170059467981       -3.47866684028476
C            1.93022829446956       -1.26724980982908       -4.67631830724177
N            2.84655079028821       -2.27683669532766       -4.66010899999166
C            3.50641401211126       -2.27725453299441       -3.49932822853199
C            4.60992719914312       -3.17270444838658       -3.11884619441348
O            3.12463405526127       -3.17762742571355       -5.63640701341792
C            2.01090481072105       -3.58314822188663       -6.44118911860580
C            0.75628178489932       -3.88547628389305       -5.66522201639151
C           -0.45107373001396       -3.29637871639299       -6.02896749230502
C           -1.62268320041776       -3.56786928260476       -5.35022173903154
C           -1.60207953217574       -4.44794742518523       -4.27595773179631
C           -0.41234396046562       -5.05102955366597       -3.89158441736947
C            0.75161720638389       -4.76748035821954       -4.58494511990437
Cl           2.20945912768161       -5.55184455955046       -4.08798106862345
Cl          -3.04824492248738       -4.80272829484787       -3.42153109940490
H           -1.20921751700260       -3.99328024326626       -1.26615483870259
H            1.23142900371077       -3.86213657524781       -0.97769830422037
H           -1.49945163426323        0.22800251256500       -0.67802911538215
H            3.02812876452995       -1.12452841543485        0.41437597446336
H            3.17704350111768       -2.68777060889073       -0.43856445009620
H            1.50206706718023        0.21443346809068       -3.08521556696655
H            1.29049034648355       -1.06599896152102       -5.50904909237831
H            4.22709068732844       -4.13453398900660       -2.77624770281907
H            5.24209787793442       -3.36538821329171       -3.98328477139235
H            5.20054659137947       -2.71960277231088       -2.32617090003837
H            1.81016041554792       -2.82943299498079       -7.21048181563703
H            2.39815095879040       -4.48346753492322       -6.92748748859048
H           -0.47793972045815       -2.62685432598633       -6.87574754732894
H           -2.54840069962682       -3.10817869971930       -5.65419329838728
H           -0.39584845721670       -5.75279576687146       -3.07378041290655

          :  Hamiltonian                  GFN2-xTB          :
         :: total energy             -77.924726346227 Eh    ::
         :: gradient norm              0.000691370923 Eh/a0 ::
         :: HOMO-LUMO gap              2.967618384906 eV    ::
         :: SCC energy               -78.831274122293 Eh    ::
         :: -> dispersion             -0.058517484577 Eh    ::
         :: repulsion energy           0.906547776066 Eh    ::

    * Orbital Energies and Occupations

         #    Occupation            Energy/Eh            Energy/eV
      -------------------------------------------------------------
         1        2.0000           -1.1784845             -32.0682
       ...           ...                  ...                  ...
        56        2.0000           -0.5700954             -15.5131
        57        2.0000           -0.5674798             -15.4419
        58        2.0000           -0.5651393             -15.3782
        59        2.0000           -0.5618019             -15.2874
        60        2.0000           -0.5578747             -15.1805
        61        2.0000           -0.5423854             -14.7591
        62        2.0000           -0.5299908             -14.4218
        63        2.0000           -0.5296212             -14.4117
        64        2.0000           -0.5248701             -14.2824
        65        2.0000           -0.5197565             -14.1433
        66        2.0000           -0.5187731             -14.1165
        67        2.0000           -0.5131313             -13.9630
        68        2.0000           -0.5076657             -13.8143 (HOMO)
        69                         -0.3986078             -10.8467 (LUMO)
        70                         -0.3758805             -10.2282
        71                         -0.3699872             -10.0679
        72                         -0.3675348             -10.0011
        73                         -0.3637440              -9.8980
        74                         -0.3605231              -9.8103
        75                         -0.2699260              -7.3451
        76                         -0.2646104              -7.2004
        77                         -0.2550673              -6.9407
        78                         -0.2473460              -6.7306
        79                         -0.2414580              -6.5704
       ...                                ...                  ...
       139                          0.5024243              13.6717
      -------------------------------------------------------------
                  HL-Gap            0.1090580 Eh            2.9676 eV

     #   Z          covCN         q      C6AA      α(0)
     1  17 Cl       0.972    -0.113   102.683    15.503
     2   6 C        2.888     0.106    25.659     8.305
     3   6 C        2.954    -0.047    29.161     8.857
     4   6 C        2.926    -0.039    28.966     8.826
     5   6 C        2.996    -0.023    28.569     8.768
     6   6 C        2.890     0.093    25.934     8.349
     7   6 C        2.996    -0.052    29.276     8.876
     8  17 Cl       0.965    -0.132   103.265    15.547
     9   6 C        3.691     0.050    19.918     6.386
    10   8 O        1.766    -0.203    17.369     5.628
    11   7 N        2.921     0.181    18.220     6.340
    12   6 C        3.033    -0.026    28.626     8.776
    13   6 C        3.035    -0.035    28.823     8.806
    14   7 N        2.916     0.187    18.135     6.325
    15   6 C        3.056     0.083    26.105     8.379
    16   6 C        3.754    -0.133    23.121     6.856
    17   8 O        1.767    -0.191    17.177     5.596
    18   6 C        3.688     0.054    19.855     6.378
    19   6 C        2.993    -0.023    28.560     8.766
    20   6 C        2.928    -0.036    28.901     8.816
    21   6 C        2.952    -0.040    28.991     8.831
    22   6 C        2.888     0.106    25.654     8.304
    23   6 C        3.001    -0.053    29.306     8.880
    24   6 C        2.891     0.089    26.016     8.363
    25  17 Cl       0.969    -0.148   103.787    15.586
    26  17 Cl       0.970    -0.109   102.538    15.492
    27   1 H        0.926     0.086     1.923     2.168
    28   1 H        0.926     0.063     2.161     2.299
    29   1 H        0.926     0.096     1.820     2.110
    30   1 H        0.924     0.117     1.637     2.001
    31   1 H        0.924     0.066     2.126     2.280
    32   1 H        0.926     0.129     1.539     1.940
    33   1 H        0.927     0.117     1.639     2.002
    34   1 H        0.924     0.116     1.648     2.008
    35   1 H        0.925     0.115     1.651     2.009
    36   1 H        0.925     0.108     1.718     2.050
    37   1 H        0.924     0.072     2.062     2.246
    38   1 H        0.924     0.117     1.639     2.002
    39   1 H        0.926     0.070     2.088     2.259
    40   1 H        0.926     0.090     1.883     2.146
    41   1 H        0.926     0.092     1.859     2.132

Wiberg/Mayer (AO) data.
largest (>0.10) Wiberg bond orders for each atom

     #   Z sym  total        # sym  WBO       # sym  WBO       # sym  WBO
 ---------------------------------------------------------------------------
     1  17 Cl   1.175 --     2 C    1.021
     2   6 C    3.933 --     7 C    1.394     3 C    1.383     1 Cl   1.021
     3   6 C    3.985 --     4 C    1.450     2 C    1.383    27 H    0.961
     4   6 C    3.989 --     3 C    1.450     5 C    1.406    28 H    0.964
                             7 C    0.101
     5   6 C    3.983 --     4 C    1.406     6 C    1.359     9 C    1.010
     6   6 C    3.929 --     7 C    1.411     5 C    1.359     8 Cl   1.002
     7   6 C    3.983 --     6 C    1.411     2 C    1.394    29 H    0.960
                             4 C    0.101
     8  17 Cl   1.155 --     6 C    1.002
     9   6 C    3.909 --     5 C    1.010    31 H    0.968    30 H    0.944
                            10 O    0.912
    10   8 O    2.076 --    11 N    1.010     9 C    0.912
    11   7 N    3.704 --    15 C    1.286    12 C    1.206    10 O    1.010
    12   6 C    3.943 --    13 C    1.586    11 N    1.206    32 H    0.953
    13   6 C    3.938 --    12 C    1.586    14 N    1.194    33 H    0.957
    14   7 N    3.712 --    15 C    1.308    13 C    1.194    17 O    1.009
    15   6 C    3.939 --    14 N    1.308    11 N    1.286    16 C    1.051
    16   6 C    3.967 --    15 C    1.051    36 H    0.966    35 H    0.954
                            34 H    0.935
    17   8 O    2.130 --    14 N    1.009    18 C    0.930
    18   6 C    3.908 --    19 C    1.005    37 H    0.965    38 H    0.939
                            17 O    0.930
    19   6 C    3.983 --    20 C    1.400    24 C    1.366    18 C    1.005
    20   6 C    3.988 --    21 C    1.453    19 C    1.400    39 H    0.963
                            23 C    0.102
    21   6 C    3.985 --    20 C    1.453    22 C    1.383    40 H    0.963
    22   6 C    3.933 --    23 C    1.390    21 C    1.383    26 Cl   1.023
    23   6 C    3.983 --    24 C    1.414    22 C    1.390    41 H    0.960
                            20 C    0.102
    24   6 C    3.926 --    23 C    1.414    19 C    1.366    25 Cl   0.987
    25  17 Cl   1.133 --    24 C    0.987
    26  17 Cl   1.182 --    22 C    1.023
    27   1 H    0.992 --     3 C    0.961
    28   1 H    0.996 --     4 C    0.964
    29   1 H    0.990 --     7 C    0.960
    30   1 H    0.985 --     9 C    0.944
    31   1 H    0.995 --     9 C    0.968
    32   1 H    0.983 --    12 C    0.953
    33   1 H    0.986 --    13 C    0.957
    34   1 H    0.987 --    16 C    0.935
    35   1 H    0.987 --    16 C    0.954
    36   1 H    0.988 --    16 C    0.966
    37   1 H    0.994 --    18 C    0.965
    38   1 H    0.985 --    18 C    0.939
    39   1 H    0.995 --    20 C    0.963
    40   1 H    0.991 --    21 C    0.963
    41   1 H    0.991 --    23 C    0.960
 ---------------------------------------------------------------------------

molecular dipole:
                 x           y           z       tot (Debye)
 q only:        4.152      -4.628      -7.241
   full:        3.504      -4.694      -7.016      23.230

           -------------------------------------------------
          | TOTAL ENERGY              -77.924726346227 Eh   |
          | GRADIENT NORM               0.000691370923 Eh/α |
          | HOMO-LUMO GAP               2.967618384906 eV   |
           -------------------------------------------------

 * finished run on 2024/12/20 at 07:08:32.502
