   * xtb version 6.7.1 (edcfbbe) compiled by 'conda@3ef47c1a292c' on 2024-11-25

   ID    Z sym.   atoms
    1    8 O      1, 3, 4
    2   16 S      2
    3    6 C      5-7, 9-13
    4    7 N      8
    5    1 H      14-25

          program call               : xtb C1013.xyz --opt --namespace C1013 --charge +1
          :  Hamiltonian                  GFN2-xTB          :
 * total energy  :   -41.2021240 Eh     change       -0.5171330E-09 Eh
 * total energy  :   -41.2071270 Eh     change       -0.5002967E-02 Eh
 * total energy  :   -41.2092772 Eh     change       -0.2150174E-02 Eh
 * total energy  :   -41.2099264 Eh     change       -0.6491960E-03 Eh
 * total energy  :   -41.2103146 Eh     change       -0.3882200E-03 Eh
 * total energy  :   -41.2104604 Eh     change       -0.1458074E-03 Eh
 * total energy  :   -41.2105813 Eh     change       -0.1209342E-03 Eh
 * total energy  :   -41.2106782 Eh     change       -0.9687369E-04 Eh
 * total energy  :   -41.2107593 Eh     change       -0.8113218E-04 Eh
 * total energy  :   -41.2108408 Eh     change       -0.8146482E-04 Eh
 * total energy  :   -41.2111283 Eh     change       -0.4237150E-04 Eh
 * total energy  :   -41.2111612 Eh     change       -0.3282393E-04 Eh
 * total energy  :   -41.2111940 Eh     change       -0.3288803E-04 Eh
 * total energy  :   -41.2112282 Eh     change       -0.3413540E-04 Eh
 * total energy  :   -41.2112605 Eh     change       -0.3229414E-04 Eh
 * total energy  :   -41.2112467 Eh     change        0.1382792E-04 Eh
 * total energy  :   -41.2112745 Eh     change       -0.2782272E-04 Eh
 * total energy  :   -41.2112838 Eh     change       -0.9361039E-05 Eh
 * total energy  :   -41.2112882 Eh     change       -0.4388599E-05 Eh
   *** GEOMETRY OPTIMIZATION CONVERGED AFTER 22 ITERATIONS ***

 final structure:
================
25
 xtb: 6.7.1 (edcfbbe)
O            0.86499796766555        1.30049148842574        0.09120642455501
S            0.46972206436005        1.13858275639574       -1.49006226266557
O            0.82095706889511        2.35041102640358       -2.13660605873729
O            1.00112536299808       -0.10535956549969       -1.93729960661900
C           -1.33154210954900        0.98619361848669       -1.29459819151782
C           -1.72123467229056       -0.47522802631067       -1.36869549782882
C           -1.09522763467317       -1.32272767776150       -0.25295164958144
N           -1.71035759319370       -1.06639197209838        1.03898030421958
C           -2.86883892398335       -1.66644805068774        1.34064191266808
C           -3.50332383568344       -1.43383129293544        2.54242713800235
C           -2.92642819830334       -0.55795176341306        3.45497406989988
C           -1.72705002900118        0.05660349807450        3.12082218280052
C           -1.13961888719705       -0.21852303974597        1.90078841086643
H            1.59567807445418        1.91755279613461        0.18018909994950
H           -1.58203541249629        1.46596388347918       -0.35375993220924
H           -1.76026630414574        1.55523691794343       -2.11362738763996
H           -2.80950691761929       -0.57700134129406       -1.35946159899096
H           -1.34705514703058       -0.87452453054562       -2.31203745278105
H           -1.22497384407762       -2.37940662063015       -0.49581688000743
H           -0.02746877838788       -1.10341646985529       -0.21275449741543
H           -3.27986434699977       -2.34559831235760        0.60778852075660
H           -4.43266350211434       -1.93461312952631        2.76246253622387
H           -3.39985260986735       -0.36374613353720        4.40463788623968
H           -1.24456294634891        0.74057555667006        3.80063182081758
H           -0.20781884541034        0.24093638418553        1.59828070899393

          :  Hamiltonian                  GFN2-xTB          :
         :: total energy             -41.211288223956 Eh    ::
         :: gradient norm              0.000566932595 Eh/a0 ::
         :: HOMO-LUMO gap              2.520829241956 eV    ::
         :: SCC energy               -41.712426357422 Eh    ::
         :: -> dispersion             -0.023291024688 Eh    ::
         :: repulsion energy           0.501138133466 Eh    ::

    * Orbital Energies and Occupations

         #    Occupation            Energy/Eh            Energy/eV
      -------------------------------------------------------------
         1        2.0000           -0.9149182             -24.8962
       ...           ...                  ...                  ...
        24        2.0000           -0.6453175             -17.5600
        25        2.0000           -0.6393027             -17.3963
        26        2.0000           -0.6313075             -17.1788
        27        2.0000           -0.6290871             -17.1183
        28        2.0000           -0.6249649             -17.0062
        29        2.0000           -0.6223766             -16.9357
        30        2.0000           -0.6204754             -16.8840
        31        2.0000           -0.6145882             -16.7238
        32        2.0000           -0.6075630             -16.5326
        33        2.0000           -0.5843470             -15.9009
        34        2.0000           -0.5806385             -15.8000
        35        2.0000           -0.5668867             -15.4258
        36        2.0000           -0.5586351             -15.2012 (HOMO)
        37                         -0.4659963             -12.6804 (LUMO)
        38                         -0.4349845             -11.8365
        39                         -0.3145839              -8.5603
        40                         -0.2736718              -7.4470
        41                         -0.2287800              -6.2254
        42                         -0.1805842              -4.9139
        43                         -0.1759008              -4.7865
        44                         -0.1573103              -4.2806
        45                         -0.0888015              -2.4164
        46                         -0.0722772              -1.9668
        47                         -0.0473048              -1.2872
       ...                                ...                  ...
        69                          1.1642579              31.6811
      -------------------------------------------------------------
                  HL-Gap            0.0926388 Eh            2.5208 eV

     #   Z          covCN         q      C6AA      α(0)
     1   8 O        1.662    -0.573    24.524     6.685
     2  16 S        3.608     1.320    97.938    16.656
     3   8 O        0.860    -0.564    25.257     6.738
     4   8 O        0.860    -0.578    25.594     6.783
     5   6 C        3.797    -0.181    24.043     6.982
     6   6 C        3.850    -0.080    21.994     6.671
     7   6 C        3.760    -0.058    21.659     6.635
     8   7 N        2.749     0.119    19.205     6.509
     9   6 C        2.892     0.029    27.351     8.574
    10   6 C        2.915    -0.010    28.262     8.718
    11   6 C        2.924     0.014    27.701     8.631
    12   6 C        2.916    -0.010    28.261     8.717
    13   6 C        2.889     0.022    27.503     8.598
    14   1 H        0.818     0.360     0.562     1.177
    15   1 H        0.925     0.083     1.948     2.182
    16   1 H        0.925     0.108     1.710     2.045
    17   1 H        0.924     0.083     1.945     2.181
    18   1 H        0.924     0.109     1.709     2.044
    19   1 H        0.924     0.110     1.694     2.035
    20   1 H        0.924     0.121     1.607     1.982
    21   1 H        0.926     0.112     1.683     2.029
    22   1 H        0.926     0.111     1.685     2.030
    23   1 H        0.926     0.110     1.693     2.035
    24   1 H        0.926     0.111     1.692     2.034
    25   1 H        0.925     0.131     1.529     1.934

Wiberg/Mayer (AO) data.
largest (>0.10) Wiberg bond orders for each atom

     #   Z sym  total        # sym  WBO       # sym  WBO       # sym  WBO
 ---------------------------------------------------------------------------
     1   8 O    1.993 --     2 S    0.913    14 H    0.848
     2  16 S    4.885 --     3 O    1.615     4 O    1.588     1 O    0.913
                             5 C    0.734
     3   8 O    1.929 --     2 S    1.615     4 O    0.121     5 C    0.102
     4   8 O    1.914 --     2 S    1.588     3 O    0.121     5 C    0.109
     5   6 C    3.979 --     6 C    1.025    15 H    0.970    16 H    0.964
                             2 S    0.734     4 O    0.109     3 O    0.102
     6   6 C    3.982 --     5 C    1.025     7 C    0.983    17 H    0.964
                            18 H    0.959
     7   6 C    3.931 --     6 C    0.983     8 N    0.967    19 H    0.957
                            20 H    0.953
     8   7 N    3.772 --    13 C    1.333     9 C    1.322     7 C    0.967
     9   6 C    3.957 --    10 C    1.469     8 N    1.322    21 H    0.954
    10   6 C    3.980 --     9 C    1.469    11 C    1.415    22 H    0.958
    11   6 C    3.969 --    12 C    1.429    10 C    1.415    23 H    0.961
    12   6 C    3.980 --    13 C    1.454    11 C    1.429    24 H    0.959
    13   6 C    3.949 --    12 C    1.454     8 N    1.333    25 H    0.940
    14   1 H    0.870 --     1 O    0.848
    15   1 H    0.993 --     5 C    0.970
    16   1 H    0.988 --     5 C    0.964
    17   1 H    0.993 --     6 C    0.964
    18   1 H    0.987 --     6 C    0.959
    19   1 H    0.988 --     7 C    0.957
    20   1 H    0.985 --     7 C    0.953
    21   1 H    0.988 --     9 C    0.954
    22   1 H    0.987 --    10 C    0.958
    23   1 H    0.988 --    11 C    0.961
    24   1 H    0.987 --    12 C    0.959
    25   1 H    0.983 --    13 C    0.940
 ---------------------------------------------------------------------------

molecular dipole:
                 x           y           z       tot (Debye)
 q only:       -4.617      -1.337       3.244
   full:       -4.530      -1.163       3.341      14.609

           -------------------------------------------------
          | TOTAL ENERGY              -41.211288223956 Eh   |
          | GRADIENT NORM               0.000566932595 Eh/α |
          | HOMO-LUMO GAP               2.520829241956 eV   |
           -------------------------------------------------

 * finished run on 2024/12/20 at 07:08:25.113
