   * xtb version 6.7.1 (edcfbbe) compiled by 'conda@3ef47c1a292c' on 2024-11-25

   ID    Z sym.   atoms
    1    6 C      1-8, 10, 11, 13-16, 18, 19, 21, 22
    2    7 N      9, 12
    3   17 Cl     17, 20
    4    8 O      23, 24
    5    1 H      25-49

          program call               : xtb C1018.xyz --opt --namespace C1018 --charge +1
          :  Hamiltonian                  GFN2-xTB          :
 * total energy  :   -74.0541534 Eh     change       -0.8180336E-09 Eh
 * total energy  :   -74.0626335 Eh     change       -0.8480098E-02 Eh
 * total energy  :   -74.0648221 Eh     change       -0.2188590E-02 Eh
 * total energy  :   -74.0651965 Eh     change       -0.3744233E-03 Eh
 * total energy  :   -74.0654775 Eh     change       -0.2809525E-03 Eh
 * total energy  :   -74.0656058 Eh     change       -0.1283779E-03 Eh
 * total energy  :   -74.0657573 Eh     change       -0.1514376E-03 Eh
 * total energy  :   -74.0659364 Eh     change       -0.1791682E-03 Eh
 * total energy  :   -74.0661418 Eh     change       -0.2053164E-03 Eh
 * total energy  :   -74.0663450 Eh     change       -0.2032443E-03 Eh
 * total energy  :   -74.0674932 Eh     change       -0.1359805E-04 Eh
 * total energy  :   -74.0675033 Eh     change       -0.1010487E-04 Eh
 * total energy  :   -74.0675123 Eh     change       -0.8983158E-05 Eh
 * total energy  :   -74.0675221 Eh     change       -0.9800400E-05 Eh
 * total energy  :   -74.0675359 Eh     change       -0.1379038E-04 Eh
 * total energy  :   -74.0675496 Eh     change       -0.1369014E-04 Eh
 * total energy  :   -74.0675608 Eh     change       -0.1121491E-04 Eh
 * total energy  :   -74.0675706 Eh     change       -0.9794355E-05 Eh
 * total energy  :   -74.0675744 Eh     change       -0.3814457E-05 Eh
   *** GEOMETRY OPTIMIZATION CONVERGED AFTER 44 ITERATIONS ***

 final structure:
================
49
 xtb: 6.7.1 (edcfbbe)
C            1.22529307930145       -0.06045020178839       -0.87922943324532
C            0.81503939099555       -1.43764159554243       -1.38714119439409
C            1.32677624034529       -2.58268189046991       -0.51120981123545
C            0.84103976043324       -2.55497361287197        0.93971702471541
C           -0.67938917623037       -2.55774609277638        1.11941424981608
C           -1.38707416275136       -3.79358264803598        0.55744289480304
C           -1.09111263140194       -5.08768676310480        1.31678346479835
C           -1.78314294309475       -5.17121853973960        2.68270361690051
N           -3.21405924012572       -5.32907348778298        2.53407328412133
C           -4.17014536866788       -4.39872977980357        2.61599908410114
C           -4.00402796165212       -2.97593289882675        2.97142635026849
N           -5.36726843836846       -4.95026397229039        2.35174157745385
C           -5.18138523920204       -6.28626759054975        2.06001740502256
C           -3.80366214445150       -6.52867481841545        2.18387485759077
C           -3.27414866758869       -7.79467892095120        1.97249903135808
C           -4.15624797800084       -8.80536687128626        1.63059937052259
Cl          -3.55691636224172      -10.38594448162448        1.36032875938159
C           -5.54274173049078       -8.55739300407321        1.49867874022023
C           -6.06899605911839       -7.29433976157786        1.71214082839101
Cl          -6.58923637936513       -9.84142995209185        1.06904256538378
C           -6.62683861950358       -4.26557133497725        2.26553486351101
C           -6.90120789317738       -3.72106533504141        0.85298473523130
O           -7.99272720514243       -3.55796525218541        0.40940841768416
O           -5.76341059535081       -3.44238888747820        0.21423596827757
H            0.75880884985375        0.16623445134773        0.07635578111920
H            0.92520114800230        0.70573812731329       -1.58976075760584
H            2.30438488698977       -0.00720842553143       -0.75687860441213
H           -0.27267362970980       -1.48746861020472       -1.47344884881040
H            1.22330128005281       -1.57668521681001       -2.39034419231937
H            1.04915899271385       -3.53202073541121       -0.97486381388813
H            2.41785326841361       -2.54328214977416       -0.49419143975588
H            1.27468106221982       -3.41073513967200        1.46209303586759
H            1.23224506977155       -1.65962411029854        1.42439382812929
H           -0.88744343548553       -2.45645612438877        2.18815849113283
H           -1.09264318087542       -1.67569760305857        0.62953196757159
H           -2.46703239437192       -3.62087762376898        0.54264688368460
H           -1.07510839866574       -3.92786052159553       -0.47761748959218
H           -1.40798449751451       -5.93931348316396        0.71242517118852
H           -0.01781254980208       -5.17734792492747        1.47801614080980
H           -1.41462879601723       -6.03924432607311        3.23336431799622
H           -1.57374559198907       -4.28108403670037        3.27433562789377
H           -4.42341237618291       -2.34448111330380        2.18889052271460
H           -4.52745217087236       -2.75339889499585        3.90232611233962
H           -2.95917493795289       -2.71352825671261        3.09401294024977
H           -2.22259296582256       -8.00660610550140        2.06665782917636
H           -7.12698880926168       -7.12516482666891        1.60196814172529
H           -7.43807844314028       -4.94622348022487        2.53106284280691
H           -6.65140371479876       -3.41960676479559        2.95794213319094
H           -5.94180834070570       -3.09606941179638       -0.67645327193451

          :  Hamiltonian                  GFN2-xTB          :
         :: total energy             -74.067574430297 Eh    ::
         :: gradient norm              0.000253716839 Eh/a0 ::
         :: HOMO-LUMO gap              2.176288782534 eV    ::
         :: SCC energy               -74.994542029978 Eh    ::
         :: -> dispersion             -0.051793010483 Eh    ::
         :: repulsion energy           0.926967599681 Eh    ::

    * Orbital Energies and Occupations

         #    Occupation            Energy/Eh            Energy/eV
      -------------------------------------------------------------
         1        2.0000           -1.1674526             -31.7680
       ...           ...                  ...                  ...
        54        2.0000           -0.5628238             -15.3152
        55        2.0000           -0.5548604             -15.0985
        56        2.0000           -0.5502325             -14.9726
        57        2.0000           -0.5370688             -14.6144
        58        2.0000           -0.5359664             -14.5844
        59        2.0000           -0.5327976             -14.4982
        60        2.0000           -0.5323181             -14.4851
        61        2.0000           -0.5294185             -14.4062
        62        2.0000           -0.5243128             -14.2673
        63        2.0000           -0.5169587             -14.0672
        64        2.0000           -0.5028815             -13.6841
        65        2.0000           -0.4998341             -13.6012
        66        2.0000           -0.4962456             -13.5035 (HOMO)
        67                         -0.4162685             -11.3272 (LUMO)
        68                         -0.3755356             -10.2188
        69                         -0.3750450             -10.2055
        70                         -0.3641128              -9.9080
        71                         -0.2601025              -7.0777
        72                         -0.2559662              -6.9652
        73                         -0.2462361              -6.7004
        74                         -0.1848528              -5.0301
        75                         -0.1357016              -3.6926
        76                         -0.1062924              -2.8924
        77                         -0.1032903              -2.8107
       ...                                ...                  ...
       131                          0.5448403              14.8259
      -------------------------------------------------------------
                  HL-Gap            0.0799771 Eh            2.1763 eV

     #   Z          covCN         q      C6AA      α(0)
     1   6 C        3.751    -0.105    22.572     6.775
     2   6 C        3.799    -0.054    21.549     6.609
     3   6 C        3.800    -0.061    21.681     6.629
     4   6 C        3.800    -0.062    21.690     6.631
     5   6 C        3.800    -0.061    21.675     6.629
     6   6 C        3.800    -0.067    21.785     6.645
     7   6 C        3.802    -0.072    21.875     6.659
     8   6 C        3.740    -0.022    21.051     6.546
     9   7 N        2.827     0.028    20.764     6.768
    10   6 C        3.071     0.125    25.200     8.231
    11   6 C        3.755    -0.139    23.233     6.873
    12   7 N        2.834     0.024    20.823     6.777
    13   6 C        3.089     0.034    27.132     8.538
    14   6 C        3.103     0.036    27.059     8.524
    15   6 C        2.953    -0.049    29.224     8.867
    16   6 C        2.922     0.095    25.902     8.346
    17  17 Cl       1.006    -0.071   101.383    15.404
    18   6 C        2.922     0.096    25.873     8.341
    19   6 C        2.952    -0.051    29.270     8.874
    20  17 Cl       1.006    -0.069   101.309    15.399
    21   6 C        3.741    -0.053    21.596     6.630
    22   6 C        2.686     0.361    20.875     7.477
    23   8 O        0.856    -0.343    20.574     6.081
    24   8 O        1.659    -0.372    20.320     6.085
    25   1 H        0.925     0.032     2.556     2.500
    26   1 H        0.925     0.038     2.476     2.460
    27   1 H        0.925     0.041     2.441     2.443
    28   1 H        0.924     0.025     2.653     2.547
    29   1 H        0.924     0.036     2.506     2.476
    30   1 H        0.924     0.027     2.623     2.533
    31   1 H        0.924     0.041     2.435     2.440
    32   1 H        0.924     0.028     2.610     2.526
    33   1 H        0.924     0.045     2.379     2.412
    34   1 H        0.924     0.017     2.778     2.607
    35   1 H        0.924     0.047     2.363     2.404
    36   1 H        0.924     0.024     2.675     2.558
    37   1 H        0.925     0.061     2.192     2.315
    38   1 H        0.924     0.051     2.310     2.377
    39   1 H        0.925     0.076     2.025     2.226
    40   1 H        0.924     0.083     1.949     2.183
    41   1 H        0.925     0.083     1.947     2.182
    42   1 H        0.925     0.109     1.708     2.044
    43   1 H        0.924     0.100     1.786     2.090
    44   1 H        0.925     0.101     1.776     2.084
    45   1 H        0.926     0.101     1.772     2.082
    46   1 H        0.926     0.099     1.791     2.093
    47   1 H        0.924     0.119     1.621     1.991
    48   1 H        0.924     0.115     1.653     2.011
    49   1 H        0.804     0.355     0.577     1.193

Wiberg/Mayer (AO) data.
largest (>0.10) Wiberg bond orders for each atom

     #   Z sym  total        # sym  WBO       # sym  WBO       # sym  WBO
 ---------------------------------------------------------------------------
     1   6 C    3.996 --     2 C    1.020    27 H    0.987    26 H    0.987
                            25 H    0.986
     2   6 C    3.998 --     1 C    1.020     3 C    1.008    29 H    0.978
                            28 H    0.976
     3   6 C    3.996 --     2 C    1.008     4 C    1.008    31 H    0.976
                            30 H    0.975
     4   6 C    3.996 --     3 C    1.008     5 C    1.007    33 H    0.974
                            32 H    0.974
     5   6 C    3.996 --     6 C    1.007     4 C    1.007    35 H    0.973
                            34 H    0.971
     6   6 C    3.993 --     7 C    1.008     5 C    1.007    36 H    0.975
                            37 H    0.969
     7   6 C    3.983 --     6 C    1.008     8 C    0.984    38 H    0.974
                            39 H    0.963
     8   6 C    3.936 --     7 C    0.984     9 N    0.966    40 H    0.961
                            41 H    0.959
     9   7 N    3.669 --    10 C    1.340    14 C    1.127     8 C    0.966
    10   6 C    3.940 --     9 N    1.340    12 N    1.301    11 C    1.048
    11   6 C    3.973 --    10 C    1.048    44 H    0.963    42 H    0.948
                            43 H    0.945
    12   7 N    3.655 --    10 C    1.301    13 C    1.124    21 C    0.994
    13   6 C    3.958 --    19 C    1.343    14 C    1.270    12 N    1.124
    14   6 C    3.960 --    15 C    1.340    13 C    1.270     9 N    1.127
    15   6 C    3.978 --    16 C    1.441    14 C    1.340    45 H    0.956
                            19 C    0.102
    16   6 C    3.938 --    15 C    1.441    18 C    1.284    17 Cl   1.047
    17  17 Cl   1.215 --    16 C    1.047
    18   6 C    3.938 --    19 C    1.439    16 C    1.284    20 Cl   1.049
    19   6 C    3.980 --    18 C    1.439    13 C    1.343    46 H    0.956
                            15 C    0.102
    20  17 Cl   1.218 --    18 C    1.049
    21   6 C    3.951 --    12 N    0.994    47 H    0.951    48 H    0.939
                            22 C    0.930
    22   6 C    3.931 --    23 O    1.819    24 O    1.143    21 C    0.930
    23   8 O    2.109 --    22 C    1.819    24 O    0.186
    24   8 O    2.207 --    22 C    1.143    49 H    0.850    23 O    0.186
    25   1 H    0.999 --     1 C    0.986
    26   1 H    0.999 --     1 C    0.987
    27   1 H    0.998 --     1 C    0.987
    28   1 H    0.999 --     2 C    0.976
    29   1 H    0.999 --     2 C    0.978
    30   1 H    0.999 --     3 C    0.975
    31   1 H    0.998 --     3 C    0.976
    32   1 H    0.999 --     4 C    0.974
    33   1 H    0.998 --     4 C    0.974
    34   1 H    1.000 --     5 C    0.971
    35   1 H    0.998 --     5 C    0.973
    36   1 H    0.999 --     6 C    0.975
    37   1 H    0.996 --     6 C    0.969
    38   1 H    0.997 --     7 C    0.974
    39   1 H    0.993 --     7 C    0.963
    40   1 H    0.993 --     8 C    0.961
    41   1 H    0.992 --     8 C    0.959
    42   1 H    0.985 --    11 C    0.948
    43   1 H    0.986 --    11 C    0.945
    44   1 H    0.989 --    11 C    0.963
    45   1 H    0.989 --    15 C    0.956
    46   1 H    0.990 --    19 C    0.956
    47   1 H    0.985 --    21 C    0.951
    48   1 H    0.986 --    21 C    0.939
    49   1 H    0.874 --    24 O    0.850
 ---------------------------------------------------------------------------

molecular dipole:
                 x           y           z       tot (Debye)
 q only:       -6.764      -8.487       4.305
   full:       -6.935      -9.092       4.172      30.939

           -------------------------------------------------
          | TOTAL ENERGY              -74.067574430297 Eh   |
          | GRADIENT NORM               0.000253716839 Eh/α |
          | HOMO-LUMO GAP               2.176288782534 eV   |
           -------------------------------------------------

 * finished run on 2024/12/20 at 07:08:35.469
