   * xtb version 6.7.1 (edcfbbe) compiled by 'conda@3ef47c1a292c' on 2024-11-25

   ID    Z sym.   atoms
    1    7 N      1-3, 6, 8, 10
    2    6 C      4, 5, 7, 9, 11
    3    1 H      12-20

          program call               : xtb C1015.xyz --opt --namespace C1015 --charge +1
          :  Hamiltonian                  GFN2-xTB          :
 * total energy  :   -32.3587365 Eh     change       -0.8402878E-10 Eh
 * total energy  :   -32.3677826 Eh     change       -0.9046099E-02 Eh
 * total energy  :   -32.3652597 Eh     change        0.2522915E-02 Eh
 * total energy  :   -32.3710133 Eh     change       -0.5753637E-02 Eh
 * total energy  :   -32.3715880 Eh     change       -0.5746741E-03 Eh
 * total energy  :   -32.3723213 Eh     change       -0.7333016E-03 Eh
 * total energy  :   -32.3727376 Eh     change       -0.4163514E-03 Eh
 * total energy  :   -32.3730912 Eh     change       -0.3535160E-03 Eh
 * total energy  :   -32.3732171 Eh     change       -0.1259159E-03 Eh
 * total energy  :   -32.3733225 Eh     change       -0.1054165E-03 Eh
 * total energy  :   -32.3741401 Eh     change       -0.3965067E-05 Eh
 * total energy  :   -32.3741450 Eh     change       -0.4946347E-05 Eh
 * total energy  :   -32.3741519 Eh     change       -0.6868475E-05 Eh
 * total energy  :   -32.3741598 Eh     change       -0.7944869E-05 Eh
 * total energy  :   -32.3741707 Eh     change       -0.1088438E-04 Eh
 * total energy  :   -32.3741743 Eh     change       -0.3614070E-05 Eh
 * total energy  :   -32.3741667 Eh     change        0.7634455E-05 Eh
 * total energy  :   -32.3741837 Eh     change       -0.1699958E-04 Eh
 * total energy  :   -32.3741880 Eh     change       -0.4342371E-05 Eh
   *** GEOMETRY OPTIMIZATION CONVERGED AFTER 47 ITERATIONS ***

 final structure:
================
20
 xtb: 6.7.1 (edcfbbe)
N            0.99790951096704        0.62676121621746        0.58024082767305
N            2.10683498174261        0.59763983485946        0.40345934021083
N            3.26473456398787        0.39368211008089        0.23928509046535
C            4.23053792272999        1.32225865261861       -0.24479873894695
C            3.97020798855682        1.70943093208367       -1.72050980112877
N            2.60486143735242        2.13292962138705       -1.90456761916333
C            1.96983975617242        3.19387913202227       -1.41839945309498
N            0.68000025769010        3.07376351865998       -1.74222161869637
C            0.58500928917372        1.90662815466778       -2.43617941225585
N            1.74572038817085        1.33942090493981       -2.53447507597361
C           -0.39602719001363        3.97109023732645       -1.42373430668685
H            4.25212439978860        2.22265173792018        0.38377984608936
H            5.20274148209854        0.83131283915349       -0.18118185719668
H            4.65911600419234        2.50169668750041       -2.01826413033157
H            4.10387334407544        0.83818296536766       -2.36524425813917
H            2.41128290417123        4.00342656575701       -0.86981784966387
H           -0.32122486441964        1.50430462643128       -2.84253102308052
H           -0.05377135914687        4.73005537682511       -0.72356636015029
H           -0.76025076629060        4.45763904909975       -2.33035719384982
H           -1.21715005099715        3.41111583708181       -0.97504640607964

          :  Hamiltonian                  GFN2-xTB          :
         :: total energy             -32.374188044346 Eh    ::
         :: gradient norm              0.000583082460 Eh/a0 ::
         :: HOMO-LUMO gap              2.513003667797 eV    ::
         :: SCC energy               -32.818148029991 Eh    ::
         :: -> dispersion             -0.016292234674 Eh    ::
         :: repulsion energy           0.443959985645 Eh    ::

    * Orbital Energies and Occupations

         #    Occupation            Energy/Eh            Energy/eV
      -------------------------------------------------------------
         1        2.0000           -0.9415981             -25.6222
       ...           ...                  ...                  ...
        17        2.0000           -0.7183677             -19.5478
        18        2.0000           -0.7015483             -19.0901
        19        2.0000           -0.6967221             -18.9588
        20        2.0000           -0.6751960             -18.3730
        21        2.0000           -0.6641918             -18.0736
        22        2.0000           -0.6533223             -17.7778
        23        2.0000           -0.6407296             -17.4351
        24        2.0000           -0.6385513             -17.3759
        25        2.0000           -0.6318980             -17.1948
        26        2.0000           -0.6100531             -16.6004
        27        2.0000           -0.6042818             -16.4433
        28        2.0000           -0.5538174             -15.0701
        29        2.0000           -0.5387491             -14.6601 (HOMO)
        30                         -0.4463979             -12.1471 (LUMO)
        31                         -0.4169126             -11.3448
        32                         -0.3859541             -10.5023
        33                         -0.3506446              -9.5415
        34                         -0.2190373              -5.9603
        35                         -0.1624315              -4.4200
        36                         -0.1140500              -3.1035
        37                         -0.0843857              -2.2963
        38                         -0.0810090              -2.2044
        39                         -0.0655027              -1.7824
        40                         -0.0366454              -0.9972
       ...                                ...                  ...
        53                          0.9627196              26.1969
      -------------------------------------------------------------
                  HL-Gap            0.0923512 Eh            2.5130 eV

     #   Z          covCN         q      C6AA      α(0)
     1   7 N        0.991    -0.234    25.663     7.282
     2   7 N        1.977     0.297    17.058     6.125
     3   7 N        1.902    -0.167    25.422     7.475
     4   6 C        3.747     0.004    20.574     6.470
     5   6 C        3.741    -0.044    21.438     6.606
     6   7 N        3.058     0.145    18.779     6.436
     7   6 C        3.064     0.049    26.832     8.494
     8   7 N        2.853     0.072    19.991     6.641
     9   6 C        3.146     0.090    25.755     8.302
    10   7 N        2.044    -0.138    24.690     7.370
    11   6 C        3.690    -0.088    22.379     6.770
    12   1 H        0.923     0.064     2.154     2.295
    13   1 H        0.924     0.112     1.682     2.028
    14   1 H        0.924     0.106     1.735     2.060
    15   1 H        0.924     0.130     1.535     1.938
    16   1 H        0.926     0.125     1.571     1.960
    17   1 H        0.926     0.133     1.513     1.924
    18   1 H        0.925     0.107     1.719     2.051
    19   1 H        0.924     0.116     1.645     2.006
    20   1 H        0.924     0.121     1.602     1.980

Wiberg/Mayer (AO) data.
largest (>0.10) Wiberg bond orders for each atom

     #   Z sym  total        # sym  WBO       # sym  WBO       # sym  WBO
 ---------------------------------------------------------------------------
     1   7 N    2.943 --     2 N    2.191     3 N    0.656
     2   7 N    3.826 --     1 N    2.191     3 N    1.597
     3   7 N    3.277 --     2 N    1.597     4 C    0.996     1 N    0.656
     4   6 C    3.967 --     3 N    0.996     5 C    0.960    12 H    0.959
                            13 H    0.958
     5   6 C    3.927 --     6 N    0.972     4 C    0.960    15 H    0.958
                            14 H    0.953
     6   7 N    3.741 --     7 C    1.388    10 N    1.209     5 C    0.972
     7   6 C    3.949 --     6 N    1.388     8 N    1.350    16 H    0.951
                            10 N    0.102
     8   7 N    3.728 --     7 C    1.350     9 C    1.240    11 C    0.986
     9   6 C    3.945 --    10 N    1.594     8 N    1.240    17 H    0.951
    10   7 N    3.028 --     9 C    1.594     6 N    1.209     7 C    0.102
    11   6 C    3.922 --     8 N    0.986    18 H    0.974    20 H    0.959
                            19 H    0.955
    12   1 H    0.996 --     4 C    0.959
    13   1 H    0.987 --     4 C    0.958
    14   1 H    0.989 --     5 C    0.953
    15   1 H    0.983 --     5 C    0.958
    16   1 H    0.984 --     7 C    0.951
    17   1 H    0.982 --     9 C    0.951
    18   1 H    0.988 --    11 C    0.974
    19   1 H    0.986 --    11 C    0.955
    20   1 H    0.985 --    11 C    0.959
 ---------------------------------------------------------------------------

molecular dipole:
                 x           y           z       tot (Debye)
 q only:        3.695       5.610      -3.147
   full:        3.783       6.115      -3.079      19.882

           -------------------------------------------------
          | TOTAL ENERGY              -32.374188044346 Eh   |
          | GRADIENT NORM               0.000583082460 Eh/α |
          | HOMO-LUMO GAP               2.513003667797 eV   |
           -------------------------------------------------

 * finished run on 2024/12/20 at 07:08:28.465
