   * xtb version 6.7.1 (edcfbbe) compiled by 'conda@3ef47c1a292c' on 2024-11-25

   ID    Z sym.   atoms
    1    6 C      1-12, 14-21, 23-30
    2    7 N      13
    3    8 O      22
    4    1 H      31-72

          program call               : xtb C1020.xyz --opt --namespace C1020 --charge +1
          :  Hamiltonian                  GFN2-xTB          :
 * total energy  :   -87.9375469 Eh     change       -0.6572378E-09 Eh
 * total energy  :   -87.9465650 Eh     change       -0.9018022E-02 Eh
 * total energy  :   -87.9491327 Eh     change       -0.2567726E-02 Eh
 * total energy  :   -87.9495380 Eh     change       -0.4053246E-03 Eh
 * total energy  :   -87.9498475 Eh     change       -0.3094897E-03 Eh
 * total energy  :   -87.9499742 Eh     change       -0.1266906E-03 Eh
 * total energy  :   -87.9501228 Eh     change       -0.1486261E-03 Eh
 * total energy  :   -87.9502508 Eh     change       -0.1279879E-03 Eh
 * total energy  :   -87.9503370 Eh     change       -0.8615120E-04 Eh
 * total energy  :   -87.9503902 Eh     change       -0.5321044E-04 Eh
 * total energy  :   -87.9610967 Eh     change       -0.1952197E-04 Eh
 * total energy  :   -87.9611125 Eh     change       -0.1582232E-04 Eh
 * total energy  :   -87.9611297 Eh     change       -0.1723362E-04 Eh
 * total energy  :   -87.9611518 Eh     change       -0.2203559E-04 Eh
 * total energy  :   -87.9611729 Eh     change       -0.2112111E-04 Eh
 * total energy  :   -87.9611971 Eh     change       -0.2419363E-04 Eh
 * total energy  :   -87.9612073 Eh     change       -0.1026162E-04 Eh
 * total energy  :   -87.9612176 Eh     change       -0.1023529E-04 Eh
 * total energy  :   -87.9612224 Eh     change       -0.4840089E-05 Eh
   *** GEOMETRY OPTIMIZATION CONVERGED AFTER 124 ITERATIONS ***

 final structure:
================
72
 xtb: 6.7.1 (edcfbbe)
C            1.83571614834426       -0.14663909311221       -0.00942560826763
C            1.44281164121785       -1.49844639770970       -0.59310430031629
C            1.64342178891170       -2.65923282370580        0.38271319536609
C            0.80744169219022       -2.58001455790673        1.66187771296301
C           -0.70569411412131       -2.51931165788884        1.44385933772846
C           -1.29409411045812       -3.69992834049541        0.66894547748264
C           -1.07943278291682       -5.06921832289020        1.31710636063883
C           -1.65706572954808       -5.21786730224572        2.72687299865917
C           -3.15168432840578       -4.91290247697574        2.85202704378678
C           -4.06170927178926       -5.79880321025587        1.99704385396292
C           -4.14071997805403       -7.25299787846417        2.47830537068132
C           -4.94074980145208       -7.44470512378084        3.77271174638306
N           -6.35681346422311       -7.90125191168331        3.61946925254665
C           -6.42714273092761       -9.31133615991139        3.10346536778706
C           -5.80986972666648      -10.34794393241907        4.00611318501658
C           -6.59403417868140      -11.00860044100503        4.94920397854183
C           -6.05082468806204      -12.00508415609847        5.73455777943145
C           -4.70956352014198      -12.35551860378007        5.60499746074468
C           -3.92576133168147      -11.70620813956712        4.65744321211829
C           -4.47483895345371      -10.71488230415189        3.86262797569933
C           -4.20390452409841      -13.51251985824200        6.41371478064986
O           -4.93485395011126      -14.45563342105901        6.62466511260289
C           -2.81614350062011      -13.44872907271157        6.91339741014218
C           -2.16135449838459      -14.65020832403568        7.18864651187088
C           -0.86941699435710      -14.64449179958852        7.67642684718391
C           -0.22598535366767      -13.44000523824804        7.91499712687363
C           -0.87880701123681      -12.24154025593976        7.66939458573383
C           -2.16645671662543      -12.24060351366442        7.16705217124704
C           -7.00177864863004       -7.83293154128700        4.94425649217959
C           -7.10152542588957       -7.02670520139852        2.69758307046583
H            1.17735380634775        0.13645763309257        0.80800289124660
H            1.77435471838302        0.62480540974867       -0.77358239547278
H            2.85681429582402       -0.17623628069732        0.36443460992675
H            0.40305570431725       -1.46411100561438       -0.92369693905143
H            2.05647793509833       -1.69141816553959       -1.47623315230540
H            1.42502268745743       -3.59479269980396       -0.13707972942324
H            2.69684388982798       -2.69045208427440        0.67185226969821
H            1.05056744938320       -3.44504293055110        2.28333569418361
H            1.10308479696036       -1.69299241996112        2.22481687704837
H           -1.18949622438213       -2.44650494980327        2.42089795037197
H           -0.95036684423400       -1.60475644425846        0.90102363164898
H           -2.36405107464967       -3.52368764641301        0.53268493865583
H           -0.85015004593240       -3.72700890747753       -0.32729427533762
H           -1.50807710969633       -5.83174951522862        0.66157274833260
H           -0.00905693442153       -5.27140856953271        1.37337029466573
H           -1.45568424782234       -6.23431350961259        3.07541082477076
H           -1.12457605865399       -4.54420529434726        3.39914658843795
H           -3.43048998459462       -4.99773978920553        3.90611291177356
H           -3.32110060127778       -3.87616758395999        2.56167285049153
H           -5.05606031552090       -5.35096497144449        1.96862234320603
H           -3.68368662779162       -5.79882459423569        0.97534173833516
H           -4.53785156640350       -7.87653792995966        1.67702350319167
H           -3.12271613359775       -7.59811471793511        2.66019269303357
H           -4.45062867878306       -8.18236624674864        4.41075315839111
H           -4.96273890589633       -6.49544411067041        4.31151820557659
H           -7.48353245757086       -9.54717855496560        2.95806404280031
H           -5.93495200199688       -9.33669780327244        2.13035856304462
H           -7.64268418413763      -10.76944952513771        5.04838521979989
H           -6.66084785112573      -12.54059588308974        6.44547777609702
H           -2.89643755032024      -11.99795143814619        4.51581449444278
H           -3.86300466322995      -10.24631706394517        3.10539503272174
H           -2.68408167700226      -15.57651154776215        7.00426944355818
H           -0.36513387834118      -15.57692455517863        7.87795027005986
H            0.78161407158704      -13.43348686922907        8.30181592835406
H           -0.38176925321747      -11.30545096581399        7.87586888217533
H           -2.68055810479314      -11.30394464011870        7.00251088066057
H           -7.00878863358657       -6.80590933866229        5.30497425782246
H           -8.02998046816939       -8.18373407139701        4.87743023594786
H           -6.46471028754461       -8.45505133698132        5.65765988790707
H           -7.05733225964062       -5.99712171386494        3.04800003467994
H           -6.68373221400735       -7.07885064272744        1.69534586003835
H           -8.14545845234625       -7.33317566506993        2.65386344855646

          :  Hamiltonian                  GFN2-xTB          :
         :: total energy             -87.961222404505 Eh    ::
         :: gradient norm              0.000804432198 Eh/a0 ::
         :: HOMO-LUMO gap              2.374863940342 eV    ::
         :: SCC energy               -89.355683057394 Eh    ::
         :: -> dispersion             -0.069475849778 Eh    ::
         :: repulsion energy           1.394460652889 Eh    ::

    * Orbital Energies and Occupations

         #    Occupation            Energy/Eh            Energy/eV
      -------------------------------------------------------------
         1        2.0000           -0.8585393             -23.3620
       ...           ...                  ...                  ...
        70        2.0000           -0.5181097             -14.0985
        71        2.0000           -0.5142186             -13.9926
        72        2.0000           -0.5074615             -13.8087
        73        2.0000           -0.5047428             -13.7348
        74        2.0000           -0.4972993             -13.5322
        75        2.0000           -0.4933627             -13.4251
        76        2.0000           -0.4915895             -13.3768
        77        2.0000           -0.4900104             -13.3339
        78        2.0000           -0.4898123             -13.3285
        79        2.0000           -0.4751601             -12.9298
        80        2.0000           -0.4749973             -12.9253
        81        2.0000           -0.4711123             -12.8196
        82        2.0000           -0.4688315             -12.7576 (HOMO)
        83                         -0.3815569             -10.3827 (LUMO)
        84                         -0.3487323              -9.4895
        85                         -0.3404264              -9.2635
        86                         -0.3077204              -8.3735
        87                         -0.2788260              -7.5872
        88                         -0.2292922              -6.2394
        89                         -0.2075917              -5.6489
        90                         -0.1687087              -4.5908
        91                         -0.1553260              -4.2266
        92                         -0.1423185              -3.8727
        93                         -0.1369484              -3.7266
       ...                                ...                  ...
       162                          0.5970798              16.2474
      -------------------------------------------------------------
                  HL-Gap            0.0872746 Eh            2.3749 eV

     #   Z          covCN         q      C6AA      α(0)
     1   6 C        3.751    -0.103    22.521     6.768
     2   6 C        3.799    -0.053    21.519     6.605
     3   6 C        3.800    -0.058    21.615     6.619
     4   6 C        3.800    -0.058    21.613     6.619
     5   6 C        3.800    -0.058    21.611     6.619
     6   6 C        3.800    -0.059    21.633     6.622
     7   6 C        3.800    -0.059    21.644     6.624
     8   6 C        3.800    -0.060    21.662     6.627
     9   6 C        3.800    -0.063    21.712     6.634
    10   6 C        3.800    -0.070    21.849     6.655
    11   6 C        3.799    -0.070    21.847     6.655
    12   6 C        3.758    -0.039    21.324     6.584
    13   7 N        3.620     0.128    19.051     6.483
    14   6 C        3.764    -0.040    21.332     6.583
    15   6 C        2.967    -0.006    28.164     8.705
    16   6 C        2.921    -0.039    28.963     8.825
    17   6 C        2.923    -0.015    28.390     8.738
    18   6 C        2.971     0.002    27.973     8.675
    19   6 C        2.919    -0.023    28.586     8.768
    20   6 C        2.921    -0.039    28.970     8.826
    21   6 C        2.828     0.226    23.256     7.902
    22   8 O        0.858    -0.346    20.635     6.090
    23   6 C        2.972    -0.014    28.364     8.736
    24   6 C        2.925    -0.013    28.350     8.732
    25   6 C        2.917    -0.021    28.541     8.761
    26   6 C        2.920    -0.016    28.422     8.742
    27   6 C        2.918    -0.026    28.646     8.777
    28   6 C        2.920    -0.028    28.694     8.784
    29   6 C        3.726    -0.091    22.349     6.750
    30   6 C        3.721    -0.091    22.357     6.753
    31   1 H        0.925     0.034     2.537     2.491
    32   1 H        0.925     0.034     2.530     2.487
    33   1 H        0.925     0.036     2.507     2.476
    34   1 H        0.924     0.029     2.599     2.521
    35   1 H        0.924     0.029     2.594     2.519
    36   1 H        0.924     0.027     2.634     2.538
    37   1 H        0.924     0.032     2.561     2.503
    38   1 H        0.924     0.026     2.648     2.545
    39   1 H        0.924     0.036     2.509     2.477
    40   1 H        0.924     0.024     2.670     2.555
    41   1 H        0.924     0.036     2.497     2.471
    42   1 H        0.924     0.023     2.682     2.561
    43   1 H        0.924     0.039     2.462     2.454
    44   1 H        0.924     0.023     2.692     2.566
    45   1 H        0.924     0.042     2.424     2.435
    46   1 H        0.924     0.022     2.702     2.571
    47   1 H        0.924     0.045     2.383     2.414
    48   1 H        0.924     0.021     2.715     2.577
    49   1 H        0.925     0.051     2.305     2.374
    50   1 H        0.924     0.031     2.575     2.509
    51   1 H        0.925     0.061     2.192     2.315
    52   1 H        0.924     0.046     2.374     2.410
    53   1 H        0.925     0.073     2.050     2.239
    54   1 H        0.924     0.081     1.966     2.192
    55   1 H        0.924     0.087     1.908     2.160
    56   1 H        0.924     0.084     1.941     2.179
    57   1 H        0.924     0.086     1.920     2.167
    58   1 H        0.926     0.045     2.381     2.413
    59   1 H        0.926     0.076     2.021     2.223
    60   1 H        0.926     0.059     2.208     2.324
    61   1 H        0.926     0.044     2.390     2.418
    62   1 H        0.926     0.066     2.129     2.282
    63   1 H        0.926     0.055     2.264     2.353
    64   1 H        0.926     0.052     2.292     2.367
    65   1 H        0.926     0.043     2.407     2.426
    66   1 H        0.926     0.026     2.643     2.542
    67   1 H        0.925     0.094     1.842     2.123
    68   1 H        0.925     0.096     1.822     2.111
    69   1 H        0.925     0.098     1.803     2.100
    70   1 H        0.925     0.097     1.814     2.106
    71   1 H        0.925     0.102     1.769     2.080
    72   1 H        0.925     0.093     1.854     2.129

Wiberg/Mayer (AO) data.
largest (>0.10) Wiberg bond orders for each atom

     #   Z sym  total        # sym  WBO       # sym  WBO       # sym  WBO
 ---------------------------------------------------------------------------
     1   6 C    3.997 --     2 C    1.020    33 H    0.987    32 H    0.987
                            31 H    0.986
     2   6 C    3.998 --     1 C    1.020     3 C    1.008    35 H    0.978
                            34 H    0.976
     3   6 C    3.997 --     2 C    1.008     4 C    1.008    37 H    0.977
                            36 H    0.976
     4   6 C    3.997 --     5 C    1.008     3 C    1.008    38 H    0.975
                            39 H    0.975
     5   6 C    3.997 --     4 C    1.008     6 C    1.008    40 H    0.975
                            41 H    0.974
     6   6 C    3.997 --     5 C    1.008     7 C    1.008    42 H    0.975
                            43 H    0.974
     7   6 C    3.996 --     6 C    1.008     8 C    1.007    44 H    0.975
                            45 H    0.974
     8   6 C    3.996 --     9 C    1.007     7 C    1.007    46 H    0.974
                            47 H    0.973
     9   6 C    3.995 --     8 C    1.007    10 C    1.007    48 H    0.973
                            49 H    0.972
    10   6 C    3.992 --     9 C    1.007    11 C    1.005    50 H    0.974
                            51 H    0.970
    11   6 C    3.984 --    10 C    1.005    12 C    1.004    52 H    0.965
                            53 H    0.964
    12   6 C    3.926 --    11 C    1.004    54 H    0.965    55 H    0.962
                            13 N    0.924
    13   7 N    3.807 --    30 C    0.962    29 C    0.961    12 C    0.924
                            14 C    0.913
    14   6 C    3.931 --    15 C    1.005    56 H    0.965    57 H    0.960
                            13 N    0.913
    15   6 C    3.978 --    20 C    1.406    16 C    1.400    14 C    1.005
                            18 C    0.103
    16   6 C    3.990 --    17 C    1.456    15 C    1.400    58 H    0.967
                            19 C    0.105
    17   6 C    3.985 --    16 C    1.456    18 C    1.391    59 H    0.964
                            20 C    0.106
    18   6 C    3.984 --    19 C    1.397    17 C    1.391    21 C    0.985
                            15 C    0.103
    19   6 C    3.989 --    20 C    1.447    18 C    1.397    60 H    0.966
                            16 C    0.105
    20   6 C    3.990 --    19 C    1.447    15 C    1.406    61 H    0.966
                            17 C    0.106
    21   6 C    3.931 --    22 O    1.811    23 C    1.034    18 C    0.985
    22   8 O    2.078 --    21 C    1.811
    23   6 C    3.988 --    28 C    1.375    24 C    1.373    21 C    1.034
                            26 C    0.100
    24   6 C    3.986 --    25 C    1.456    23 C    1.373    62 H    0.966
                            27 C    0.105
    25   6 C    3.990 --    24 C    1.456    26 C    1.432    63 H    0.968
                            28 C    0.106
    26   6 C    3.989 --    25 C    1.432    27 C    1.428    64 H    0.970
                            23 C    0.100
    27   6 C    3.992 --    28 C    1.459    26 C    1.428    65 H    0.970
                            24 C    0.105
    28   6 C    3.992 --    27 C    1.459    23 C    1.375    66 H    0.968
                            25 C    0.106
    29   6 C    3.931 --    67 H    0.975    68 H    0.974    69 H    0.972
                            13 N    0.961
    30   6 C    3.930 --    72 H    0.975    70 H    0.973    71 H    0.972
                            13 N    0.962
    31   1 H    0.999 --     1 C    0.986
    32   1 H    0.999 --     1 C    0.987
    33   1 H    0.999 --     1 C    0.987
    34   1 H    0.999 --     2 C    0.976
    35   1 H    0.999 --     2 C    0.978
    36   1 H    0.999 --     3 C    0.976
    37   1 H    0.999 --     3 C    0.977
    38   1 H    0.999 --     4 C    0.975
    39   1 H    0.999 --     4 C    0.975
    40   1 H    0.999 --     5 C    0.975
    41   1 H    0.999 --     5 C    0.974
    42   1 H    0.999 --     6 C    0.975
    43   1 H    0.998 --     6 C    0.974
    44   1 H    0.999 --     7 C    0.975
    45   1 H    0.998 --     7 C    0.974
    46   1 H    1.000 --     8 C    0.974
    47   1 H    0.998 --     8 C    0.973
    48   1 H    1.000 --     9 C    0.973
    49   1 H    0.997 --     9 C    0.972
    50   1 H    0.999 --    10 C    0.974
    51   1 H    0.996 --    10 C    0.970
    52   1 H    0.998 --    11 C    0.965
    53   1 H    0.994 --    11 C    0.964
    54   1 H    0.993 --    12 C    0.965
    55   1 H    0.992 --    12 C    0.962
    56   1 H    0.993 --    14 C    0.965
    57   1 H    0.992 --    14 C    0.960
    58   1 H    0.997 --    16 C    0.967
    59   1 H    0.994 --    17 C    0.964
    60   1 H    0.996 --    19 C    0.966
    61   1 H    0.997 --    20 C    0.966
    62   1 H    0.996 --    24 C    0.966
    63   1 H    0.996 --    25 C    0.968
    64   1 H    0.997 --    26 C    0.970
    65   1 H    0.998 --    27 C    0.970
    66   1 H    0.999 --    28 C    0.968
    67   1 H    0.991 --    29 C    0.975
    68   1 H    0.990 --    29 C    0.974
    69   1 H    0.990 --    29 C    0.972
    70   1 H    0.990 --    30 C    0.973
    71   1 H    0.990 --    30 C    0.972
    72   1 H    0.991 --    30 C    0.975
 ---------------------------------------------------------------------------

molecular dipole:
                 x           y           z       tot (Debye)
 q only:       -9.955     -14.632       7.047
   full:      -10.017     -14.531       6.998      48.258

           -------------------------------------------------
          | TOTAL ENERGY              -87.961222404505 Eh   |
          | GRADIENT NORM               0.000804432198 Eh/α |
          | HOMO-LUMO GAP               2.374863940342 eV   |
           -------------------------------------------------

 * finished run on 2024/12/20 at 07:08:48.533
