   * xtb version 6.7.1 (edcfbbe) compiled by 'conda@3ef47c1a292c' on 2024-11-25

   ID    Z sym.   atoms
    1    6 C      1-9, 11-27
    2    7 N      10
    3    1 H      28-59

          program call               : xtb C1026.xyz --opt --namespace C1026 --charge +1
          :  Hamiltonian                  GFN2-xTB          :
 * total energy  :   -74.4895229 Eh     change       -0.4713314E-09 Eh
 * total energy  :   -74.4996754 Eh     change       -0.1015242E-01 Eh
 * total energy  :   -74.5029131 Eh     change       -0.3237795E-02 Eh
 * total energy  :   -74.5036747 Eh     change       -0.7615068E-03 Eh
 * total energy  :   -74.5040324 Eh     change       -0.3577539E-03 Eh
 * total energy  :   -74.5042123 Eh     change       -0.1799209E-03 Eh
 * total energy  :   -74.5043686 Eh     change       -0.1562267E-03 Eh
 * total energy  :   -74.5045326 Eh     change       -0.1640197E-03 Eh
 * total energy  :   -74.5046932 Eh     change       -0.1606505E-03 Eh
 * total energy  :   -74.5048287 Eh     change       -0.1355151E-03 Eh
 * total energy  :   -74.5143933 Eh     change       -0.2063676E-04 Eh
 * total energy  :   -74.5144139 Eh     change       -0.2055033E-04 Eh
 * total energy  :   -74.5144293 Eh     change       -0.1545049E-04 Eh
 * total energy  :   -74.5144455 Eh     change       -0.1617709E-04 Eh
 * total energy  :   -74.5144558 Eh     change       -0.1030049E-04 Eh
 * total energy  :   -74.5144693 Eh     change       -0.1354122E-04 Eh
 * total energy  :   -74.5144779 Eh     change       -0.8616713E-05 Eh
 * total energy  :   -74.5144831 Eh     change       -0.5133057E-05 Eh
 * total energy  :   -74.5144870 Eh     change       -0.3941356E-05 Eh
   *** GEOMETRY OPTIMIZATION CONVERGED AFTER 69 ITERATIONS ***

 final structure:
================
59
 xtb: 6.7.1 (edcfbbe)
C           -0.35576800583220        0.52861989931179       -0.05390130026057
C            0.31131672605614        0.88135820669568        1.27613894279046
C            0.58753856858421        2.35604466591957        1.41538729481207
C            0.33845549801714        3.01265608759490        2.61523252777614
C            0.68316000622644        4.33871075547162        2.77098051933920
C            1.23470912147302        5.08701465318481        1.73398980349576
C            1.41171097790700        4.45985240569492        0.49609688636424
C            1.13643529127552        3.09631166375596        0.38209660333869
C            1.95587772258372        5.15390227641866       -0.73076010528430
N            0.92083128438803        5.59057139998530       -1.73533210564471
C            0.14242189758771        6.77596165202150       -1.22119669744916
C            0.70100259975378        8.12859504393653       -1.58739696490205
C            1.75598749887150        8.71446185284774       -0.89605233975384
C            2.22920325275410        9.96345417207107       -1.25981638099059
C            1.65275826127200       10.64772103799982       -2.31585013775086
C            0.59349776636003       10.08011647208909       -3.00374250115210
C            0.12325516957886        8.83082793601929       -2.64223574394130
C            1.60960084691116        5.95599338140573       -3.02027871613515
C            2.34335445990220        4.82228552408820       -3.68737729218706
C            1.69475620190829        3.98882845590297       -4.59386337214369
C            2.37861693095021        2.95753155610202       -5.21340910975620
C            3.72013865413049        2.75027192714634       -4.94115825682654
C            4.38169170743399        3.59095077810423       -4.06166678587887
C            3.69912945451759        4.62329020384882       -3.44186778565787
C           -0.03753952019622        4.50403038552218       -1.99632562709029
C            1.66066497451827        6.49455847005277        2.03826291224583
C            1.61926917806194        0.10316808715376        1.44770580861313
H           -1.23079722747248        1.15257902396068       -0.22430167730914
H           -0.67555446419511       -0.50959617557455       -0.03770953219728
H            0.33146988857242        0.64994255804095       -0.88793445151412
H           -0.36735568494391        0.59067513299608        2.08408171221409
H           -0.09541675699999        2.47252636340668        3.44272036279396
H            0.53047536076473        4.81373959918365        3.72826957187585
H            1.37733520397240        2.59413101700781       -0.54263878119268
H            2.53068774176410        6.04092416763336       -0.46709175921653
H            2.61362808134864        4.45500189703126       -1.25215664645616
H            0.06682127886409        6.65790393870079       -0.14034014980600
H           -0.86464519355455        6.71193944847277       -1.63739274991744
H            2.20826523608694        8.21248056370922       -0.05611709477468
H            3.04593558108205       10.40419665457720       -0.70969882292537
H            2.02028174947906       11.62242790628414       -2.59457005216638
H            0.12905727837075       10.61143711096218       -3.81937786556276
H           -0.71399256838117        8.40582254765262       -3.17783094426705
H            2.31190430459375        6.76177186848757       -2.79781990436132
H            0.84338495445355        6.34511842453756       -3.69416482086594
H            0.65527402093617        4.15469901300398       -4.83569358788657
H            1.86353854014646        2.32088880539922       -5.91555950934045
H            4.25252896544732        1.94723714409399       -5.42566351337563
H            5.43267662618681        3.45039004174523       -3.86302503271272
H            4.23266136179972        5.29114285408303       -2.78015702259551
H            0.48923842539471        3.61687806690159       -2.34017381975996
H           -0.58515735874211        4.26414908891622       -1.08683680203147
H           -0.74097411460279        4.81108626568664       -2.76840493490469
H            0.92591986900934        7.23284234658699        1.71593862954766
H            1.77463474290347        6.60987599700503        3.11306295037988
H            2.62170041039908        6.72565059680945        1.58279975220565
H            2.06750936988160        0.31985967486479        2.41416518738541
H            1.42936729270795       -0.96497913200894        1.38645057414683
H            2.33102055973385        0.37333823946869        0.67054065860617

          :  Hamiltonian                  GFN2-xTB          :
         :: total energy             -74.514487023014 Eh    ::
         :: gradient norm              0.000694527117 Eh/a0 ::
         :: HOMO-LUMO gap              3.814085254800 eV    ::
         :: SCC energy               -75.824795551260 Eh    ::
         :: -> dispersion             -0.065454904740 Eh    ::
         :: repulsion energy           1.310308528247 Eh    ::

    * Orbital Energies and Occupations

         #    Occupation            Energy/Eh            Energy/eV
      -------------------------------------------------------------
         1        2.0000           -0.8367395             -22.7688
       ...           ...                  ...                  ...
        58        2.0000           -0.5402639             -14.7013
        59        2.0000           -0.5366757             -14.6037
        60        2.0000           -0.5351650             -14.5626
        61        2.0000           -0.5316810             -14.4678
        62        2.0000           -0.5286846             -14.3862
        63        2.0000           -0.5237685             -14.2525
        64        2.0000           -0.5215352             -14.1917
        65        2.0000           -0.5205598             -14.1652
        66        2.0000           -0.5189085             -14.1202
        67        2.0000           -0.5143418             -13.9960
        68        2.0000           -0.5132284             -13.9657
        69        2.0000           -0.5098776             -13.8745
        70        2.0000           -0.4938375             -13.4380 (HOMO)
        71                         -0.3536725              -9.6239 (LUMO)
        72                         -0.3455742              -9.4036
        73                         -0.3405889              -9.2679
        74                         -0.3387634              -9.2182
        75                         -0.3382223              -9.2035
        76                         -0.3266893              -8.8897
        77                         -0.2313203              -6.2945
        78                         -0.2158745              -5.8742
        79                         -0.2127642              -5.7896
        80                         -0.1772856              -4.8242
        81                         -0.1341473              -3.6503
       ...                                ...                  ...
       140                          0.5485506              14.9268
      -------------------------------------------------------------
                  HL-Gap            0.1401651 Eh            3.8141 eV

     #   Z          covCN         q      C6AA      α(0)
     1   6 C        3.755    -0.107    22.599     6.778
     2   6 C        3.855    -0.017    20.836     6.492
     3   6 C        2.971     0.015    27.672     8.629
     4   6 C        2.925    -0.033    28.826     8.805
     5   6 C        2.926    -0.037    28.924     8.820
     6   6 C        2.965     0.006    27.883     8.661
     7   6 C        2.967    -0.021    28.533     8.762
     8   6 C        2.933    -0.051    29.259     8.871
     9   6 C        3.757    -0.037    21.281     6.577
    10   7 N        3.617     0.111    19.329     6.530
    11   6 C        3.761    -0.041    21.349     6.587
    12   6 C        2.966    -0.006    28.160     8.704
    13   6 C        2.923    -0.041    29.022     8.834
    14   6 C        2.919    -0.024    28.602     8.770
    15   6 C        2.920    -0.019    28.491     8.753
    16   6 C        2.918    -0.022    28.550     8.762
    17   6 C        2.925    -0.037    28.927     8.820
    18   6 C        3.762    -0.035    21.235     6.569
    19   6 C        2.967    -0.006    28.170     8.706
    20   6 C        2.923    -0.038    28.954     8.824
    21   6 C        2.919    -0.023    28.583     8.767
    22   6 C        2.920    -0.019    28.492     8.753
    23   6 C        2.918    -0.023    28.570     8.765
    24   6 C        2.923    -0.038    28.943     8.822
    25   6 C        3.716    -0.082    22.201     6.731
    26   6 C        3.758    -0.113    22.716     6.795
    27   6 C        3.758    -0.106    22.576     6.774
    28   1 H        0.925     0.031     2.566     2.505
    29   1 H        0.925     0.051     2.312     2.378
    30   1 H        0.925     0.034     2.533     2.489
    31   1 H        0.924     0.045     2.381     2.413
    32   1 H        0.926     0.052     2.294     2.369
    33   1 H        0.926     0.052     2.300     2.372
    34   1 H        0.926     0.036     2.505     2.475
    35   1 H        0.925     0.079     1.991     2.207
    36   1 H        0.924     0.082     1.959     2.189
    37   1 H        0.925     0.089     1.886     2.147
    38   1 H        0.924     0.078     2.003     2.213
    39   1 H        0.926     0.041     2.435     2.440
    40   1 H        0.926     0.055     2.263     2.352
    41   1 H        0.926     0.059     2.210     2.325
    42   1 H        0.926     0.057     2.239     2.340
    43   1 H        0.926     0.036     2.496     2.471
    44   1 H        0.924     0.080     1.976     2.198
    45   1 H        0.924     0.080     1.980     2.201
    46   1 H        0.926     0.040     2.449     2.447
    47   1 H        0.926     0.056     2.245     2.343
    48   1 H        0.926     0.059     2.208     2.323
    49   1 H        0.926     0.056     2.243     2.342
    50   1 H        0.926     0.039     2.459     2.452
    51   1 H        0.925     0.095     1.828     2.114
    52   1 H        0.925     0.094     1.838     2.120
    53   1 H        0.925     0.084     1.939     2.177
    54   1 H        0.924     0.048     2.350     2.397
    55   1 H        0.925     0.062     2.174     2.306
    56   1 H        0.925     0.043     2.412     2.429
    57   1 H        0.925     0.042     2.428     2.437
    58   1 H        0.925     0.051     2.302     2.373
    59   1 H        0.925     0.037     2.488     2.467

Wiberg/Mayer (AO) data.
largest (>0.10) Wiberg bond orders for each atom

     #   Z sym  total        # sym  WBO       # sym  WBO       # sym  WBO
 ---------------------------------------------------------------------------
     1   6 C    3.995 --     2 C    1.002    28 H    0.987    29 H    0.985
                            30 H    0.984
     2   6 C    3.994 --     1 C    1.002     3 C    1.001    27 C    0.989
                            31 H    0.965
     3   6 C    3.986 --     8 C    1.426     4 C    1.391     2 C    1.001
                             6 C    0.101
     4   6 C    3.989 --     5 C    1.462     3 C    1.391    32 H    0.967
                             7 C    0.104
     5   6 C    3.990 --     4 C    1.462     6 C    1.400    33 H    0.966
                             8 C    0.106
     6   6 C    3.986 --     5 C    1.400     7 C    1.389    26 C    1.025
                             3 C    0.101
     7   6 C    3.975 --     8 C    1.398     6 C    1.389     9 C    1.005
                             4 C    0.104
     8   6 C    3.990 --     3 C    1.426     7 C    1.398    34 H    0.961
                             5 C    0.106
     9   6 C    3.928 --     7 C    1.005    35 H    0.960    36 H    0.956
                            10 N    0.913
    10   7 N    3.800 --    25 C    0.967    18 C    0.919    11 C    0.914
                             9 C    0.913
    11   6 C    3.932 --    12 C    1.006    38 H    0.967    37 H    0.956
                            10 N    0.914
    12   6 C    3.981 --    13 C    1.411    17 C    1.405    11 C    1.006
                            15 C    0.109
    13   6 C    3.991 --    14 C    1.443    12 C    1.411    39 H    0.961
                            16 C    0.110
    14   6 C    3.990 --    13 C    1.443    15 C    1.439    40 H    0.969
                            17 C    0.110
    15   6 C    3.988 --    14 C    1.439    16 C    1.436    41 H    0.969
                            12 C    0.109
    16   6 C    3.990 --    17 C    1.448    15 C    1.436    42 H    0.969
                            13 C    0.110
    17   6 C    3.991 --    16 C    1.448    12 C    1.405    43 H    0.967
                            14 C    0.110
    18   6 C    3.935 --    19 C    1.005    45 H    0.964    44 H    0.963
                            10 N    0.919
    19   6 C    3.980 --    20 C    1.408    24 C    1.406    18 C    1.005
                            22 C    0.109
    20   6 C    3.991 --    21 C    1.445    19 C    1.408    46 H    0.968
                            23 C    0.110
    21   6 C    3.990 --    20 C    1.445    22 C    1.438    47 H    0.969
                            24 C    0.109
    22   6 C    3.989 --    23 C    1.438    21 C    1.438    48 H    0.969
                            19 C    0.109
    23   6 C    3.990 --    24 C    1.444    22 C    1.438    49 H    0.969
                            20 C    0.110
    24   6 C    3.991 --    23 C    1.444    19 C    1.406    50 H    0.967
                            21 C    0.109
    25   6 C    3.935 --    53 H    0.975    52 H    0.972    51 H    0.968
                            10 N    0.967
    26   6 C    3.993 --     6 C    1.025    55 H    0.979    56 H    0.971
                            54 H    0.962
    27   6 C    3.994 --     2 C    0.989    57 H    0.987    59 H    0.986
                            58 H    0.983
    28   1 H    0.999 --     1 C    0.987
    29   1 H    0.997 --     1 C    0.985
    30   1 H    0.999 --     1 C    0.984
    31   1 H    0.998 --     2 C    0.965
    32   1 H    0.997 --     4 C    0.967
    33   1 H    0.997 --     5 C    0.966
    34   1 H    0.998 --     8 C    0.961
    35   1 H    0.993 --     9 C    0.960
    36   1 H    0.993 --     9 C    0.956
    37   1 H    0.991 --    11 C    0.956
    38   1 H    0.994 --    11 C    0.967
    39   1 H    0.998 --    13 C    0.961
    40   1 H    0.997 --    14 C    0.969
    41   1 H    0.996 --    15 C    0.969
    42   1 H    0.996 --    16 C    0.969
    43   1 H    0.999 --    17 C    0.967
    44   1 H    0.993 --    18 C    0.963
    45   1 H    0.993 --    18 C    0.964
    46   1 H    0.998 --    20 C    0.968
    47   1 H    0.997 --    21 C    0.969
    48   1 H    0.996 --    22 C    0.969
    49   1 H    0.997 --    23 C    0.969
    50   1 H    0.998 --    24 C    0.967
    51   1 H    0.990 --    25 C    0.968
    52   1 H    0.991 --    25 C    0.972
    53   1 H    0.993 --    25 C    0.975
    54   1 H    0.997 --    26 C    0.962
    55   1 H    0.996 --    26 C    0.979
    56   1 H    0.998 --    26 C    0.971
    57   1 H    0.998 --    27 C    0.987
    58   1 H    0.996 --    27 C    0.983
    59   1 H    0.999 --    27 C    0.986
 ---------------------------------------------------------------------------

molecular dipole:
                 x           y           z       tot (Debye)
 q only:        2.203      10.165      -3.067
   full:        2.182      10.266      -3.088      27.808

           -------------------------------------------------
          | TOTAL ENERGY              -74.514487023014 Eh   |
          | GRADIENT NORM               0.000694527117 Eh/α |
          | HOMO-LUMO GAP               3.814085254800 eV   |
           -------------------------------------------------

 * finished run on 2024/12/20 at 07:08:56.356
