   * xtb version 6.7.1 (edcfbbe) compiled by 'conda@3ef47c1a292c' on 2024-11-25

   ID    Z sym.   atoms
    1    6 C      1, 3-8, 10, 11, 13-15
    2    8 O      2, 9
    3    7 N      12
    4    1 H      16-35

          program call               : xtb C1023.xyz --opt --namespace C1023 --charge +1
          :  Hamiltonian                  GFN2-xTB          :
 * total energy  :   -46.5446034 Eh     change       -0.6160263E-09 Eh
 * total energy  :   -46.5515997 Eh     change       -0.6996311E-02 Eh
 * total energy  :   -46.5535598 Eh     change       -0.1960073E-02 Eh
 * total energy  :   -46.5537452 Eh     change       -0.1854353E-03 Eh
 * total energy  :   -46.5538767 Eh     change       -0.1314192E-03 Eh
 * total energy  :   -46.5538095 Eh     change        0.6717571E-04 Eh
 * total energy  :   -46.5539286 Eh     change       -0.1191564E-03 Eh
 * total energy  :   -46.5539687 Eh     change       -0.4003977E-04 Eh
 * total energy  :   -46.5540334 Eh     change       -0.6469445E-04 Eh
 * total energy  :   -46.5540551 Eh     change       -0.2175579E-04 Eh
 * total energy  :   -46.5540720 Eh     change       -0.1688095E-04 Eh
 * total energy  :   -46.5540937 Eh     change       -0.2163578E-04 Eh
 * total energy  :   -46.5541152 Eh     change       -0.2158554E-04 Eh
 * total energy  :   -46.5541280 Eh     change       -0.1277997E-04 Eh
 * total energy  :   -46.5541349 Eh     change       -0.6910193E-05 Eh
 * total energy  :   -46.5541398 Eh     change       -0.4865403E-05 Eh
   *** GEOMETRY OPTIMIZATION CONVERGED AFTER 16 ITERATIONS ***

 final structure:
================
35
 xtb: 6.7.1 (edcfbbe)
C            1.12540490605110        0.23473018209413        0.11757469742737
O            0.28567366706729        0.16133264317464       -1.01579725749833
C            0.82885866301099        0.21449055796179       -2.24733661190369
C           -0.08282024649672        0.15214953069750       -3.30470015136212
C            0.36593198947613        0.18314962231589       -4.61600883198257
C            1.72271991712397        0.28982233675814       -4.87965843791560
C            2.64115178517538        0.36436938851587       -3.82931769969500
C            2.19173300019568        0.31611770167888       -2.51247813982224
O            3.93156871346736        0.47267954889639       -4.19946325363691
C            4.92942700520942        0.60840180466680       -3.20894364985270
C           -0.61733140084135        0.12364943028690       -5.75574557636616
N           -0.94880202404355       -1.27355159675288       -6.20212077669963
C           -1.59380974042507       -2.01723039407737       -5.10695039657256
C           -1.87243067313721       -1.19814259143326       -7.34734552377187
C            0.27629974486715       -1.98034950976428       -6.61219439180834
H            0.45960000642806        0.18382483462581        0.97661286009358
H            1.67845996809612        1.17718119961414        0.14508711538856
H            1.82366459085978       -0.60638740577394        0.15162563327079
H           -1.13161537278288        0.11239868776197       -3.05986028273635
H            2.10508117722865        0.35078976526105       -5.88540293753124
H            2.89574212893406        0.37344149348047       -1.70061944883932
H            4.76459713819707        1.49864421337598       -2.59614970621274
H            4.98155654371454       -0.27762566234885       -2.56986427006781
H            5.86606969341064        0.71471466568607       -3.75236866227242
H           -1.55226963067465        0.60363583349957       -5.46080527529021
H           -0.20748335600836        0.65378689146178       -6.61734505647345
H           -2.51663006057035       -1.52228594771385       -4.81037586774091
H           -1.82790044654428       -3.03001171828480       -5.42951144152478
H           -0.92776974460284       -2.06131462045838       -4.24723694843884
H           -1.40611668664109       -0.66790382474120       -8.17579611104217
H           -2.13800049777282       -2.19995548325740       -7.68104843938481
H           -2.78287187706241       -0.67210908739166       -7.06571063008146
H            0.75709544173137       -1.45252019991986       -7.43348206014088
H            0.97170552889816       -2.03178058618483       -5.77639080175323
H            0.03356014846103       -2.99004170371150       -6.93806166776103

          :  Hamiltonian                  GFN2-xTB          :
         :: total energy             -46.554139792899 Eh    ::
         :: gradient norm              0.000288598011 Eh/a0 ::
         :: HOMO-LUMO gap              3.737791880831 eV    ::
         :: SCC energy               -47.186902478559 Eh    ::
         :: -> dispersion             -0.029522064121 Eh    ::
         :: repulsion energy           0.632762685660 Eh    ::

    * Orbital Energies and Occupations

         #    Occupation            Energy/Eh            Energy/eV
      -------------------------------------------------------------
         1        2.0000           -0.8600078             -23.4020
       ...           ...                  ...                  ...
        30        2.0000           -0.6247894             -17.0014
        31        2.0000           -0.6216871             -16.9170
        32        2.0000           -0.6123661             -16.6633
        33        2.0000           -0.5929822             -16.1359
        34        2.0000           -0.5827522             -15.8575
        35        2.0000           -0.5705866             -15.5265
        36        2.0000           -0.5660323             -15.4025
        37        2.0000           -0.5653856             -15.3849
        38        2.0000           -0.5471321             -14.8882
        39        2.0000           -0.5454575             -14.8427
        40        2.0000           -0.5444391             -14.8149
        41        2.0000           -0.5008127             -13.6278
        42        2.0000           -0.4833496             -13.1526 (HOMO)
        43                         -0.3459883              -9.4148 (LUMO)
        44                         -0.3253462              -8.8531
        45                         -0.2246129              -6.1120
        46                         -0.1936781              -5.2702
        47                         -0.1407063              -3.8288
        48                         -0.1366362              -3.7181
        49                         -0.1338336              -3.6418
        50                         -0.0797012              -2.1688
        51                         -0.0669563              -1.8220
        52                         -0.0500187              -1.3611
        53                         -0.0089347              -0.2431
       ...                                ...                  ...
        80                          0.5431131              14.7789
      -------------------------------------------------------------
                  HL-Gap            0.1373613 Eh            3.7378 eV

     #   Z          covCN         q      C6AA      α(0)
     1   6 C        3.643     0.026    20.471     6.504
     2   8 O        1.706    -0.249    18.119     5.747
     3   6 C        2.863     0.152    24.707     8.148
     4   6 C        2.923    -0.087    30.176     9.008
     5   6 C        2.966    -0.006    28.171     8.706
     6   6 C        2.923    -0.086    30.155     9.005
     7   6 C        2.863     0.152    24.701     8.147
     8   6 C        2.915    -0.103    30.591     9.070
     9   8 O        1.706    -0.248    18.110     5.746
    10   6 C        3.643     0.026    20.471     6.504
    11   6 C        3.767    -0.045    21.413     6.595
    12   7 N        3.622     0.144    18.797     6.439
    13   6 C        3.722    -0.098    22.496     6.773
    14   6 C        3.725    -0.098    22.472     6.769
    15   6 C        3.722    -0.098    22.487     6.772
    16   1 H        0.925     0.079     1.985     2.203
    17   1 H        0.924     0.053     2.278     2.360
    18   1 H        0.924     0.050     2.315     2.380
    19   1 H        0.926     0.056     2.252     2.346
    20   1 H        0.926     0.055     2.253     2.347
    21   1 H        0.926     0.060     2.200     2.319
    22   1 H        0.924     0.053     2.280     2.361
    23   1 H        0.924     0.051     2.313     2.378
    24   1 H        0.925     0.080     1.984     2.203
    25   1 H        0.924     0.089     1.890     2.150
    26   1 H        0.924     0.089     1.889     2.149
    27   1 H        0.925     0.098     1.800     2.098
    28   1 H        0.925     0.097     1.817     2.108
    29   1 H        0.925     0.107     1.719     2.050
    30   1 H        0.925     0.099     1.798     2.097
    31   1 H        0.925     0.100     1.787     2.091
    32   1 H        0.925     0.099     1.797     2.096
    33   1 H        0.925     0.099     1.794     2.095
    34   1 H        0.925     0.106     1.729     2.057
    35   1 H        0.925     0.097     1.815     2.107

Wiberg/Mayer (AO) data.
largest (>0.10) Wiberg bond orders for each atom

     #   Z sym  total        # sym  WBO       # sym  WBO       # sym  WBO
 ---------------------------------------------------------------------------
     1   6 C    3.933 --    16 H    0.978    18 H    0.976    17 H    0.976
                             2 O    0.973
     2   8 O    2.272 --     3 C    1.103     1 C    0.973
     3   6 C    3.942 --     8 C    1.367     4 C    1.333     2 O    1.103
     4   6 C    3.980 --     5 C    1.417     3 C    1.333    19 H    0.965
     5   6 C    3.977 --     6 C    1.417     4 C    1.417    11 C    1.005
     6   6 C    3.980 --     5 C    1.417     7 C    1.333    20 H    0.965
     7   6 C    3.942 --     8 C    1.366     6 C    1.333     9 O    1.103
     8   6 C    3.979 --     3 C    1.367     7 C    1.366    21 H    0.959
     9   8 O    2.273 --     7 C    1.103    10 C    0.973
    10   6 C    3.933 --    24 H    0.978    22 H    0.976    23 H    0.976
                             9 O    0.973
    11   6 C    3.925 --     5 C    1.005    26 H    0.965    25 H    0.965
                            12 N    0.908
    12   7 N    3.816 --    14 C    0.960    13 C    0.958    15 C    0.958
                            11 C    0.908
    13   6 C    3.926 --    27 H    0.975    28 H    0.975    29 H    0.969
                            12 N    0.958
    14   6 C    3.929 --    32 H    0.975    30 H    0.975    31 H    0.974
                            12 N    0.960
    15   6 C    3.926 --    33 H    0.975    35 H    0.975    34 H    0.970
                            12 N    0.958
    16   1 H    0.993 --     1 C    0.978
    17   1 H    0.997 --     1 C    0.976
    18   1 H    0.997 --     1 C    0.976
    19   1 H    0.997 --     4 C    0.965
    20   1 H    0.997 --     6 C    0.965
    21   1 H    0.996 --     8 C    0.959
    22   1 H    0.997 --    10 C    0.976
    23   1 H    0.997 --    10 C    0.976
    24   1 H    0.993 --    10 C    0.978
    25   1 H    0.992 --    11 C    0.965
    26   1 H    0.992 --    11 C    0.965
    27   1 H    0.990 --    13 C    0.975
    28   1 H    0.991 --    13 C    0.975
    29   1 H    0.988 --    13 C    0.969
    30   1 H    0.990 --    14 C    0.975
    31   1 H    0.989 --    14 C    0.974
    32   1 H    0.990 --    14 C    0.975
    33   1 H    0.990 --    15 C    0.975
    34   1 H    0.989 --    15 C    0.970
    35   1 H    0.991 --    15 C    0.975
 ---------------------------------------------------------------------------

molecular dipole:
                 x           y           z       tot (Debye)
 q only:       -0.438      -2.141     -10.157
   full:       -0.327      -2.086     -10.025      26.040

           -------------------------------------------------
          | TOTAL ENERGY              -46.554139792899 Eh   |
          | GRADIENT NORM               0.000288598011 Eh/α |
          | HOMO-LUMO GAP               3.737791880831 eV   |
           -------------------------------------------------

 * finished run on 2024/12/20 at 07:08:51.165
