   * xtb version 6.7.1 (edcfbbe) compiled by 'conda@3ef47c1a292c' on 2024-11-25

   ID    Z sym.   atoms
    1    6 C      1-8, 10, 12-17
    2    7 N      9
    3   16 S      11
    4    1 H      18-39

          program call               : xtb C1021.xyz --opt --namespace C1021 --charge +1
          :  Hamiltonian                  GFN2-xTB          :
 * total energy  :   -49.1210138 Eh     change       -0.1986628E-08 Eh
 * total energy  :   -49.1252837 Eh     change       -0.4269903E-02 Eh
 * total energy  :   -49.1259554 Eh     change       -0.6717964E-03 Eh
 * total energy  :   -49.1261275 Eh     change       -0.1720838E-03 Eh
 * total energy  :   -49.1263009 Eh     change       -0.1733334E-03 Eh
 * total energy  :   -49.1264081 Eh     change       -0.1072164E-03 Eh
 * total energy  :   -49.1265370 Eh     change       -0.1289549E-03 Eh
 * total energy  :   -49.1267170 Eh     change       -0.1800046E-03 Eh
 * total energy  :   -49.1269293 Eh     change       -0.2122386E-03 Eh
 * total energy  :   -49.1271399 Eh     change       -0.2106524E-03 Eh
 * total energy  :   -49.1276680 Eh     change       -0.7293084E-05 Eh
 * total energy  :   -49.1276764 Eh     change       -0.8378203E-05 Eh
 * total energy  :   -49.1276857 Eh     change       -0.9251168E-05 Eh
 * total energy  :   -49.1276926 Eh     change       -0.6959436E-05 Eh
 * total energy  :   -49.1276981 Eh     change       -0.5461698E-05 Eh
 * total energy  :   -49.1277043 Eh     change       -0.6228027E-05 Eh
 * total energy  :   -49.1277119 Eh     change       -0.7560967E-05 Eh
 * total energy  :   -49.1277188 Eh     change       -0.6917445E-05 Eh
 * total energy  :   -49.1277237 Eh     change       -0.4940948E-05 Eh
   *** GEOMETRY OPTIMIZATION CONVERGED AFTER 32 ITERATIONS ***

 final structure:
================
39
 xtb: 6.7.1 (edcfbbe)
C            0.74665692450399       -0.04240409741728        0.38603608346653
C            0.41685459879837        0.94399111044677       -0.74079893946502
C            1.09917692556998        0.64814384224630       -2.07768194446597
C            0.57185140817283       -0.55926024311185       -2.85798379170372
C           -0.92977797102970       -0.54607249510684       -3.15282178532748
C           -1.42700889431006        0.68909637085187       -3.90816241722998
C           -0.77252647945984        0.91348948995401       -5.27234709719665
C           -1.03634878224637       -0.21637448239152       -6.26038232979030
N            0.15020214149382       -1.35142457377972        0.19561970924985
C           -1.15474920803047       -1.53314653068872        0.20910660765545
S           -1.67072658186866       -3.11951737048816       -0.04934348190575
C           -0.00541939064591       -3.62181968157088       -0.18867092621054
C            0.85310750887199       -2.51994880518160       -0.02661639994391
C            2.23371436852135       -2.70494919348261       -0.10297295970738
C            2.71429481932709       -3.97567284996664       -0.33585212100179
C            1.85288291823371       -5.06276503218961       -0.49443133101579
C            0.48483163559811       -4.89892501554445       -0.42392234573171
H            0.37736427609720        0.36104536683466        1.33327900794662
H            1.82633363855204       -0.16442154315202        0.46274524593770
H           -0.66247430802073        1.00723378966829       -0.87719033139615
H            0.75698189797915        1.92259897702094       -0.39817723443020
H            0.98568824686484        1.53447615254298       -2.70201377737656
H            2.16998701383811        0.51270896007704       -1.90996320778633
H            1.10876730771828       -0.59068234696147       -3.80661989918149
H            0.82050338073964       -1.48705507569851       -2.33652305046269
H           -1.16531767704358       -1.43702252865908       -3.73749509956616
H           -1.49588873745611       -0.62591151173169       -2.21778053973392
H           -2.50390303265738        0.57912211499005       -4.05579823718541
H           -1.27446798128823        1.57975495671856       -3.29495397652075
H           -1.17456804909359        1.84096709285891       -5.68504989712399
H            0.30374132237347        1.05280689203923       -5.15552207675422
H           -2.10467283028250       -0.39962289321404       -6.35326951571015
H           -0.65078049934667        0.04915878624771       -7.24125883082619
H           -0.55229657312894       -1.13954541847176       -5.94927333640044
H           -1.84323147925424       -0.72836309532808        0.39721957079105
H            2.91814035122074       -1.88023197420410        0.01035272095582
H            3.77933896880051       -4.13272810128829       -0.39790357484954
H            2.26299434852852       -6.04342102203951       -0.67498040622062
H           -0.18855552664670       -5.73140802083586       -0.54545808380108

          :  Hamiltonian                  GFN2-xTB          :
         :: total energy             -49.127723737978 Eh    ::
         :: gradient norm              0.000520053100 Eh/a0 ::
         :: HOMO-LUMO gap              1.512533537305 eV    ::
         :: SCC energy               -49.889789951437 Eh    ::
         :: -> dispersion             -0.039209887483 Eh    ::
         :: repulsion energy           0.762066213459 Eh    ::

    * Orbital Energies and Occupations

         #    Occupation            Energy/Eh            Energy/eV
      -------------------------------------------------------------
         1        2.0000           -0.9157299             -24.9183
       ...           ...                  ...                  ...
        34        2.0000           -0.5840889             -15.8939
        35        2.0000           -0.5831502             -15.8683
        36        2.0000           -0.5746368             -15.6367
        37        2.0000           -0.5701319             -15.5141
        38        2.0000           -0.5640388             -15.3483
        39        2.0000           -0.5594959             -15.2247
        40        2.0000           -0.5549278             -15.1004
        41        2.0000           -0.5461255             -14.8608
        42        2.0000           -0.5405699             -14.7097
        43        2.0000           -0.5357625             -14.5788
        44        2.0000           -0.5158706             -14.0376
        45        2.0000           -0.5110789             -13.9072
        46        2.0000           -0.5056735             -13.7601 (HOMO)
        47                         -0.4500889             -12.2475 (LUMO)
        48                         -0.3917949             -10.6613
        49                         -0.3760183             -10.2320
        50                         -0.3753582             -10.2140
        51                         -0.2884908              -7.8502
        52                         -0.2637616              -7.1773
        53                         -0.1921166              -5.2278
        54                         -0.1502391              -4.0882
        55                         -0.1327840              -3.6132
        56                         -0.1304730              -3.5504
        57                         -0.0694159              -1.8889
       ...                                ...                  ...
        95                          0.5188822              14.1195
      -------------------------------------------------------------
                  HL-Gap            0.0555846 Eh            1.5125 eV

     #   Z          covCN         q      C6AA      α(0)
     1   6 C        3.747    -0.025    21.090     6.550
     2   6 C        3.800    -0.070    21.842     6.654
     3   6 C        3.800    -0.068    21.804     6.648
     4   6 C        3.799    -0.062    21.693     6.632
     5   6 C        3.799    -0.056    21.575     6.613
     6   6 C        3.800    -0.060    21.664     6.627
     7   6 C        3.800    -0.056    21.574     6.613
     8   6 C        3.751    -0.105    22.574     6.776
     9   7 N        2.872     0.066    20.081     6.656
    10   6 C        2.928     0.028    27.376     8.581
    11  16 S        2.231     0.197   133.266    19.429
    12   6 C        3.006     0.014    27.692     8.632
    13   6 C        3.137     0.049    26.678     8.454
    14   6 C        2.913    -0.029    28.732     8.790
    15   6 C        2.921    -0.014    28.351     8.732
    16   6 C        2.923    -0.012    28.306     8.725
    17   6 C        2.929    -0.023    28.576     8.767
    18   1 H        0.924     0.083     1.951     2.184
    19   1 H        0.925     0.091     1.865     2.136
    20   1 H        0.925     0.058     2.220     2.330
    21   1 H        0.924     0.071     2.075     2.252
    22   1 H        0.925     0.064     2.150     2.293
    23   1 H        0.924     0.041     2.433     2.439
    24   1 H        0.924     0.055     2.257     2.350
    25   1 H        0.924     0.009     2.904     2.665
    26   1 H        0.924     0.040     2.448     2.447
    27   1 H        0.924     0.005     2.969     2.695
    28   1 H        0.924     0.039     2.465     2.455
    29   1 H        0.924     0.031     2.579     2.512
    30   1 H        0.924     0.040     2.454     2.450
    31   1 H        0.924     0.032     2.555     2.500
    32   1 H        0.925     0.039     2.462     2.454
    33   1 H        0.925     0.043     2.414     2.430
    34   1 H        0.925     0.031     2.571     2.508
    35   1 H        0.926     0.117     1.635     1.999
    36   1 H        0.926     0.076     2.017     2.221
    37   1 H        0.926     0.087     1.911     2.162
    38   1 H        0.926     0.089     1.890     2.150
    39   1 H        0.926     0.084     1.940     2.178

Wiberg/Mayer (AO) data.
largest (>0.10) Wiberg bond orders for each atom

     #   Z sym  total        # sym  WBO       # sym  WBO       # sym  WBO
 ---------------------------------------------------------------------------
     1   6 C    3.934 --     2 C    0.983    19 H    0.960    18 H    0.958
                             9 N    0.957
     2   6 C    3.982 --     3 C    1.007     1 C    0.983    20 H    0.969
                            21 H    0.967
     3   6 C    3.992 --     2 C    1.007     4 C    1.007    23 H    0.975
                            22 H    0.969
     4   6 C    3.996 --     5 C    1.008     3 C    1.007    25 H    0.973
                            24 H    0.970
     5   6 C    3.996 --     4 C    1.008     6 C    1.006    26 H    0.974
                            27 H    0.967
     6   6 C    3.995 --     7 C    1.007     5 C    1.006    28 H    0.976
                            29 H    0.976
     7   6 C    3.995 --     8 C    1.021     6 C    1.007    30 H    0.977
                            31 H    0.975
     8   6 C    3.996 --     7 C    1.021    32 H    0.987    33 H    0.986
                            34 H    0.986
     9   7 N    3.720 --    10 C    1.437    13 C    1.118     1 C    0.957
                            11 S    0.126
    10   6 C    3.956 --     9 N    1.437    11 S    1.349    35 H    0.953
    11  16 S    2.754 --    10 C    1.349    12 C    1.102     9 N    0.126
    12   6 C    3.953 --    17 C    1.373    13 C    1.294    11 S    1.102
    13   6 C    3.956 --    14 C    1.329    12 C    1.294     9 N    1.118
    14   6 C    3.986 --    15 C    1.495    13 C    1.329    36 H    0.956
                            17 C    0.113
    15   6 C    3.984 --    14 C    1.495    16 C    1.379    37 H    0.965
    16   6 C    3.983 --    17 C    1.478    15 C    1.379    38 H    0.963
    17   6 C    3.985 --    16 C    1.478    12 C    1.373    39 H    0.963
                            14 C    0.113
    18   1 H    0.993 --     1 C    0.958
    19   1 H    0.992 --     1 C    0.960
    20   1 H    0.997 --     2 C    0.969
    21   1 H    0.994 --     2 C    0.967
    22   1 H    0.995 --     3 C    0.969
    23   1 H    0.998 --     3 C    0.975
    24   1 H    0.996 --     4 C    0.970
    25   1 H    1.000 --     4 C    0.973
    26   1 H    0.998 --     5 C    0.974
    27   1 H    1.000 --     5 C    0.967
    28   1 H    0.998 --     6 C    0.976
    29   1 H    0.999 --     6 C    0.976
    30   1 H    0.998 --     7 C    0.977
    31   1 H    0.999 --     7 C    0.975
    32   1 H    0.998 --     8 C    0.987
    33   1 H    0.998 --     8 C    0.986
    34   1 H    0.999 --     8 C    0.986
    35   1 H    0.985 --    10 C    0.953
    36   1 H    0.994 --    14 C    0.956
    37   1 H    0.991 --    15 C    0.965
    38   1 H    0.992 --    16 C    0.963
    39   1 H    0.992 --    17 C    0.963
 ---------------------------------------------------------------------------

molecular dipole:
                 x           y           z       tot (Debye)
 q only:        0.542      -3.748      -0.570
   full:        0.492      -3.680      -0.429       9.500

           -------------------------------------------------
          | TOTAL ENERGY              -49.127723737978 Eh   |
          | GRADIENT NORM               0.000520053100 Eh/α |
          | HOMO-LUMO GAP               1.512533537305 eV   |
           -------------------------------------------------

 * finished run on 2024/12/20 at 07:08:49.946
