   * xtb version 6.7.1 (edcfbbe) compiled by 'conda@3ef47c1a292c' on 2024-11-25

   ID    Z sym.   atoms
    1    6 C      1-4, 6, 9, 10
    2    7 N      5, 7, 8
    3    1 H      11-24

          program call               : xtb C1025.xyz --opt --namespace C1025 --charge +1
          :  Hamiltonian                  GFN2-xTB          :
 * total energy  :   -30.5030846 Eh     change       -0.1444533E-10 Eh
 * total energy  :   -30.5065039 Eh     change       -0.3419369E-02 Eh
 * total energy  :   -30.5072516 Eh     change       -0.7477112E-03 Eh
 * total energy  :   -30.5073631 Eh     change       -0.1114522E-03 Eh
 * total energy  :   -30.5074476 Eh     change       -0.8450155E-04 Eh
 * total energy  :   -30.5074731 Eh     change       -0.2548938E-04 Eh
 * total energy  :   -30.5075150 Eh     change       -0.4187311E-04 Eh
 * total energy  :   -30.5075658 Eh     change       -0.5081442E-04 Eh
 * total energy  :   -30.5076043 Eh     change       -0.3848227E-04 Eh
 * total energy  :   -30.5076316 Eh     change       -0.2730086E-04 Eh
 * total energy  :   -30.5076465 Eh     change       -0.1498535E-04 Eh
 * total energy  :   -30.5076534 Eh     change       -0.6838323E-05 Eh
 * total energy  :   -30.5076574 Eh     change       -0.4036067E-05 Eh
 * total energy  :   -30.5076623 Eh     change       -0.4933732E-05 Eh
   *** GEOMETRY OPTIMIZATION CONVERGED AFTER 14 ITERATIONS ***

 final structure:
================
24
 xtb: 6.7.1 (edcfbbe)
C            0.47500147642401       -0.04247698003134        0.01475506674423
C            0.29967311116896       -1.53308454331683       -0.29380110919657
C            1.43364530359095       -2.42925077188620        0.20894731041478
C            1.44659573133383       -2.65439967796081        1.71837142528235
N            0.32774078129778        0.26128731059884        1.42084453613128
C            1.26170780037028        0.79573626219540        2.25004048957927
N            0.79646383074117        0.90711486982378        3.45596033731398
N           -0.44653475528075        0.44324618661104        3.41736673848180
C           -0.74747723390205        0.04912668973463        2.18888076400584
C           -1.25585394796682        0.41525428902792        4.59992620828150
H           -0.27144551011604        0.53443196662238       -0.53905408320828
H            1.46917734389461        0.28765781383859       -0.29168090871125
H           -0.65278919934133       -1.88691473378100        0.10506552793787
H            0.24951271370428       -1.61859968175035       -1.37990692346747
H            1.31854844437064       -3.39842818911601       -0.27744199736976
H            2.39353286845378       -2.02022994601665       -0.11031754615704
H            0.45757577798214       -2.93525730517802        2.07645920814242
H            2.12692870435776       -3.46690883719113        1.95663580296839
H            1.78906707511773       -1.77868034085372        2.26580850461608
H            2.24940694718803        1.08851252420649        1.95551918009009
H           -1.68494494695870       -0.35905888688567        1.86641012735847
H           -2.23461581828355       -0.00026596785606        4.37459732628978
H           -0.76182174871347       -0.18849138394392        5.36222828816144
H           -1.36243474943316        1.42731933310857        4.99189572631063

          :  Hamiltonian                  GFN2-xTB          :
         :: total energy             -30.507662345782 Eh    ::
         :: gradient norm              0.000643024329 Eh/a0 ::
         :: HOMO-LUMO gap              3.424351006070 eV    ::
         :: SCC energy               -30.938795721106 Eh    ::
         :: -> dispersion             -0.017278738135 Eh    ::
         :: repulsion energy           0.431133375323 Eh    ::

    * Orbital Energies and Occupations

         #    Occupation            Energy/Eh            Energy/eV
      -------------------------------------------------------------
         1        2.0000           -0.9310701             -25.3357
       ...           ...                  ...                  ...
        16        2.0000           -0.6885903             -18.7375
        17        2.0000           -0.6625765             -18.0296
        18        2.0000           -0.6529224             -17.7669
        19        2.0000           -0.6466002             -17.5949
        20        2.0000           -0.6381215             -17.3642
        21        2.0000           -0.6322616             -17.2047
        22        2.0000           -0.6195487             -16.8588
        23        2.0000           -0.6145985             -16.7241
        24        2.0000           -0.6054605             -16.4754
        25        2.0000           -0.5992524             -16.3065
        26        2.0000           -0.5749976             -15.6465
        27        2.0000           -0.5671125             -15.4319
        28        2.0000           -0.5586873             -15.2027 (HOMO)
        29                         -0.4328447             -11.7783 (LUMO)
        30                         -0.4075471             -11.0899
        31                         -0.2054342              -5.5901
        32                         -0.1513055              -4.1172
        33                         -0.0994021              -2.7049
        34                         -0.0692167              -1.8835
        35                         -0.0627788              -1.7083
        36                         -0.0429652              -1.1691
        37                         -0.0190036              -0.5171
        38                         -0.0104125              -0.2833
        39                         -0.0055342              -0.1506
       ...                                ...                  ...
        54                          0.3562754               9.6947
      -------------------------------------------------------------
                  HL-Gap            0.1258426 Eh            3.4244 eV

     #   Z          covCN         q      C6AA      α(0)
     1   6 C        3.739    -0.026    21.114     6.556
     2   6 C        3.801    -0.072    21.875     6.659
     3   6 C        3.799    -0.066    21.775     6.644
     4   6 C        3.751    -0.109    22.650     6.787
     5   7 N        2.853     0.060    20.193     6.674
     6   6 C        3.153     0.089    25.748     8.299
     7   7 N        2.044    -0.145    24.830     7.391
     8   7 N        3.058     0.164    18.483     6.385
     9   6 C        3.071     0.051    26.775     8.484
    10   6 C        3.693    -0.097    22.549     6.795
    11   1 H        0.924     0.089     1.885     2.147
    12   1 H        0.924     0.094     1.838     2.120
    13   1 H        0.924     0.055     2.258     2.350
    14   1 H        0.924     0.077     2.008     2.216
    15   1 H        0.924     0.064     2.149     2.292
    16   1 H        0.924     0.050     2.315     2.379
    17   1 H        0.925     0.034     2.526     2.485
    18   1 H        0.925     0.061     2.183     2.311
    19   1 H        0.925     0.019     2.747     2.592
    20   1 H        0.926     0.122     1.599     1.977
    21   1 H        0.926     0.124     1.582     1.967
    22   1 H        0.925     0.106     1.732     2.058
    23   1 H        0.924     0.127     1.557     1.951
    24   1 H        0.924     0.127     1.559     1.953

Wiberg/Mayer (AO) data.
largest (>0.10) Wiberg bond orders for each atom

     #   Z sym  total        # sym  WBO       # sym  WBO       # sym  WBO
 ---------------------------------------------------------------------------
     1   6 C    3.929 --     2 C    0.986    12 H    0.965     5 N    0.961
                            11 H    0.955
     2   6 C    3.982 --     3 C    1.008     1 C    0.986    13 H    0.972
                            14 H    0.967
     3   6 C    3.991 --     4 C    1.020     2 C    1.008    16 H    0.975
                            15 H    0.973
     4   6 C    3.995 --     3 C    1.020    17 H    0.987    19 H    0.986
                            18 H    0.984
     5   7 N    3.719 --     9 C    1.336     6 C    1.249     1 C    0.961
     6   6 C    3.949 --     7 N    1.585     5 N    1.249    20 H    0.953
     7   7 N    3.024 --     6 C    1.585     8 N    1.212
     8   7 N    3.756 --     9 C    1.404     7 N    1.212    10 C    0.989
     9   6 C    3.950 --     8 N    1.404     5 N    1.336    21 H    0.951
    10   6 C    3.921 --     8 N    0.989    22 H    0.973    24 H    0.953
                            23 H    0.953
    11   1 H    0.992 --     1 C    0.955
    12   1 H    0.991 --     1 C    0.965
    13   1 H    0.997 --     2 C    0.972
    14   1 H    0.994 --     2 C    0.967
    15   1 H    0.996 --     3 C    0.973
    16   1 H    0.997 --     3 C    0.975
    17   1 H    0.999 --     4 C    0.987
    18   1 H    0.996 --     4 C    0.984
    19   1 H    1.000 --     4 C    0.986
    20   1 H    0.985 --     6 C    0.953
    21   1 H    0.985 --     9 C    0.951
    22   1 H    0.989 --    10 C    0.973
    23   1 H    0.983 --    10 C    0.953
    24   1 H    0.983 --    10 C    0.953
 ---------------------------------------------------------------------------

molecular dipole:
                 x           y           z       tot (Debye)
 q only:       -0.411      -0.046       3.991
   full:       -0.574      -0.085       3.646       9.385

           -------------------------------------------------
          | TOTAL ENERGY              -30.507662345782 Eh   |
          | GRADIENT NORM               0.000643024329 Eh/α |
          | HOMO-LUMO GAP               3.424351006070 eV   |
           -------------------------------------------------

 * finished run on 2024/12/20 at 07:08:52.261
