   * xtb version 6.7.1 (edcfbbe) compiled by 'conda@3ef47c1a292c' on 2024-11-25

   ID    Z sym.   atoms
    1    6 C      1-4, 6-11
    2    7 N      5
    3    1 H      12-31

          program call               : xtb C1027.xyz --opt --namespace C1027 --charge +1
          :  Hamiltonian                  GFN2-xTB          :
 * total energy  :   -34.0502209 Eh     change       -0.4917666E-10 Eh
 * total energy  :   -34.0755910 Eh     change       -0.2537009E-01 Eh
 * total energy  :   -34.0803614 Eh     change       -0.4770463E-02 Eh
 * total energy  :   -34.0811715 Eh     change       -0.8100133E-03 Eh
 * total energy  :   -34.0812848 Eh     change       -0.1133620E-03 Eh
 * total energy  :   -34.0813679 Eh     change       -0.8304982E-04 Eh
 * total energy  :   -34.0814197 Eh     change       -0.5187023E-04 Eh
 * total energy  :   -34.0814626 Eh     change       -0.4287270E-04 Eh
 * total energy  :   -34.0814900 Eh     change       -0.2740565E-04 Eh
 * total energy  :   -34.0815042 Eh     change       -0.1422163E-04 Eh
 * total energy  :   -34.0815249 Eh     change       -0.2065775E-04 Eh
 * total energy  :   -34.0815397 Eh     change       -0.1477789E-04 Eh
 * total energy  :   -34.0815556 Eh     change       -0.1596438E-04 Eh
 * total energy  :   -34.0815708 Eh     change       -0.1516983E-04 Eh
 * total energy  :   -34.0815831 Eh     change       -0.1228754E-04 Eh
 * total energy  :   -34.0815902 Eh     change       -0.7097645E-05 Eh
 * total energy  :   -34.0815941 Eh     change       -0.3894468E-05 Eh
   *** GEOMETRY OPTIMIZATION CONVERGED AFTER 17 ITERATIONS ***

 final structure:
================
31
 xtb: 6.7.1 (edcfbbe)
C            0.89009399318348        0.17425399960889        0.02832275239922
C            0.43093032335855        1.44918166525822       -0.45344418261324
C            0.04220779699629        2.51210323906860       -0.85423695096525
C           -0.44874833556926        3.78011471834136       -1.35753907725353
N            0.44496892880290        4.92058404751873       -0.98960142461463
C            1.81966680637135        4.66673076557963       -1.53824074798637
C            1.96614567712079        4.68912211489379       -3.05225696348684
C           -0.07279307778024        6.18892788155947       -1.58504988168449
C           -1.35326392501331        6.75644443839428       -0.99369513323539
C            0.59839050852599        5.02943704091949        0.50234627367761
C           -0.60057553488406        4.64222625450866        1.35745906609929
H            0.48945216989604       -0.61831767289297       -0.60172506145804
H            0.55471494012135        0.01567374235069        1.05220650259044
H            1.97796488070843        0.13105234548599       -0.00231592057185
H           -0.51972641735155        3.73799120180358       -2.44745849031594
H           -1.44589922596377        3.97260743436913       -0.95842861317024
H            2.48479626404281        5.41728343546931       -1.10615703062423
H            2.11908998765266        3.68105539424317       -1.17462115443770
H            1.80103566558366        5.67427516926912       -3.47729921049959
H            2.99041009515824        4.40576959237330       -3.28213007708102
H            1.31859211116068        3.96941020279677       -3.54387214057363
H            0.71912904230333        6.93534743877705       -1.48638855052565
H           -0.23754546198455        6.00239918571586       -2.64724503726266
H           -1.22429242834427        7.08852331745619        0.03168890737143
H           -1.62504837661853        7.62899024270361       -1.58367528626878
H           -2.18423130755736        6.05905312195699       -1.05049996371911
H            1.42133555835410        4.37330268758047        0.79160133049006
H            0.89398124436069        6.05793846906113        0.71675942597472
H           -0.80797959254026        3.57783818164666        1.29134809905307
H           -0.34045497251504        4.85982906908420        2.39089044572789
H           -1.50096733757833        5.19867127510450        1.12354809497275

          :  Hamiltonian                  GFN2-xTB          :
         :: total energy             -34.081594082855 Eh    ::
         :: gradient norm              0.000731553801 Eh/a0 ::
         :: HOMO-LUMO gap              6.200755046006 eV    ::
         :: SCC energy               -34.654875612954 Eh    ::
         :: -> dispersion             -0.023444264817 Eh    ::
         :: repulsion energy           0.573281530099 Eh    ::

    * Orbital Energies and Occupations

         #    Occupation            Energy/Eh            Energy/eV
      -------------------------------------------------------------
         1        2.0000           -0.8502180             -23.1356
       ...           ...                  ...                  ...
        20        2.0000           -0.6278866             -17.0857
        21        2.0000           -0.6207732             -16.8921
        22        2.0000           -0.6145534             -16.7228
        23        2.0000           -0.6084295             -16.5562
        24        2.0000           -0.6064117             -16.5013
        25        2.0000           -0.6048124             -16.4578
        26        2.0000           -0.6033498             -16.4180
        27        2.0000           -0.5998020             -16.3214
        28        2.0000           -0.5976430             -16.2627
        29        2.0000           -0.5935926             -16.1525
        30        2.0000           -0.5864048             -15.9569
        31        2.0000           -0.5366099             -14.6019
        32        2.0000           -0.5304221             -14.4335 (HOMO)
        33                         -0.3025485              -8.2328 (LUMO)
        34                         -0.2814016              -7.6573
        35                         -0.2234588              -6.0806
        36                         -0.1619201              -4.4061
        37                         -0.1579435              -4.2979
        38                         -0.1327037              -3.6111
        39                         -0.0731045              -1.9893
        40                         -0.0522699              -1.4223
        41                         -0.0451276              -1.2280
        42                         -0.0244259              -0.6647
        43                         -0.0234905              -0.6392
       ...                                ...                  ...
        64                          1.2727982              34.6346
      -------------------------------------------------------------
                  HL-Gap            0.2278736 Eh            6.2008 eV

     #   Z          covCN         q      C6AA      α(0)
     1   6 C        3.754    -0.101    22.495     6.763
     2   6 C        1.961    -0.013    31.411     9.051
     3   6 C        1.963    -0.080    33.243     9.311
     4   6 C        3.756    -0.011    20.825     6.507
     5   7 N        3.619     0.103    19.468     6.553
     6   6 C        3.763    -0.030    21.159     6.557
     7   6 C        3.751    -0.128    23.012     6.841
     8   6 C        3.753    -0.028    21.135     6.556
     9   6 C        3.751    -0.125    22.961     6.834
    10   6 C        3.754    -0.027    21.106     6.551
    11   6 C        3.750    -0.129    23.038     6.845
    12   1 H        0.925     0.086     1.918     2.166
    13   1 H        0.925     0.080     1.980     2.200
    14   1 H        0.925     0.078     1.996     2.210
    15   1 H        0.924     0.090     1.876     2.142
    16   1 H        0.924     0.099     1.795     2.095
    17   1 H        0.924     0.077     2.015     2.220
    18   1 H        0.924     0.089     1.893     2.152
    19   1 H        0.925     0.065     2.140     2.288
    20   1 H        0.925     0.084     1.935     2.175
    21   1 H        0.925     0.066     2.134     2.285
    22   1 H        0.924     0.079     1.994     2.208
    23   1 H        0.924     0.085     1.932     2.174
    24   1 H        0.925     0.069     2.101     2.267
    25   1 H        0.925     0.081     1.966     2.193
    26   1 H        0.925     0.062     2.172     2.305
    27   1 H        0.924     0.082     1.961     2.190
    28   1 H        0.924     0.079     1.992     2.207
    29   1 H        0.925     0.071     2.072     2.251
    30   1 H        0.925     0.080     1.984     2.203
    31   1 H        0.925     0.069     2.102     2.267

Wiberg/Mayer (AO) data.
largest (>0.10) Wiberg bond orders for each atom

     #   Z sym  total        # sym  WBO       # sym  WBO       # sym  WBO
 ---------------------------------------------------------------------------
     1   6 C    3.990 --     2 C    1.086    13 H    0.955    14 H    0.954
                            12 H    0.951
     2   6 C    3.976 --     3 C    2.774     1 C    1.086
     3   6 C    3.970 --     2 C    2.774     4 C    1.048
     4   6 C    3.939 --     3 C    1.048    15 H    0.946    16 H    0.945
                             5 N    0.919
     5   7 N    3.797 --     8 C    0.934     6 C    0.928    10 C    0.925
                             4 C    0.919
     6   6 C    3.936 --     7 C    1.023    17 H    0.969    18 H    0.962
                             5 N    0.928
     7   6 C    3.983 --     6 C    1.023    19 H    0.982    21 H    0.979
                            20 H    0.972
     8   6 C    3.939 --     9 C    1.022    22 H    0.968    23 H    0.965
                             5 N    0.934
     9   6 C    3.983 --     8 C    1.022    24 H    0.980    26 H    0.979
                            25 H    0.973
    10   6 C    3.935 --    11 C    1.022    28 H    0.969    27 H    0.968
                             5 N    0.925
    11   6 C    3.981 --    10 C    1.022    29 H    0.979    31 H    0.977
                            30 H    0.973
    12   1 H    0.991 --     1 C    0.951
    13   1 H    0.993 --     1 C    0.955
    14   1 H    0.994 --     1 C    0.954
    15   1 H    0.992 --     4 C    0.946
    16   1 H    0.990 --     4 C    0.945
    17   1 H    0.994 --     6 C    0.969
    18   1 H    0.992 --     6 C    0.962
    19   1 H    0.996 --     7 C    0.982
    20   1 H    0.992 --     7 C    0.972
    21   1 H    0.996 --     7 C    0.979
    22   1 H    0.993 --     8 C    0.968
    23   1 H    0.993 --     8 C    0.965
    24   1 H    0.995 --     9 C    0.980
    25   1 H    0.993 --     9 C    0.973
    26   1 H    0.996 --     9 C    0.979
    27   1 H    0.993 --    10 C    0.968
    28   1 H    0.994 --    10 C    0.969
    29   1 H    0.995 --    11 C    0.979
    30   1 H    0.993 --    11 C    0.973
    31   1 H    0.995 --    11 C    0.977
 ---------------------------------------------------------------------------

molecular dipole:
                 x           y           z       tot (Debye)
 q only:        0.844       8.571      -1.625
   full:        0.903       8.640      -1.662      22.480

           -------------------------------------------------
          | TOTAL ENERGY              -34.081594082855 Eh   |
          | GRADIENT NORM               0.000731553801 Eh/α |
          | HOMO-LUMO GAP               6.200755046006 eV   |
           -------------------------------------------------

 * finished run on 2024/12/20 at 07:08:57.060
