   * xtb version 6.7.1 (edcfbbe) compiled by 'conda@3ef47c1a292c' on 2024-11-25

   ID    Z sym.   atoms
    1    6 C      1, 3, 4, 6-8, 11-13
    2    7 N      2, 5
    3    8 O      9
    4   14 Si     10
    5    1 H      14-32

          program call               : xtb C1028.xyz --opt --namespace C1028 --charge +1
          :  Hamiltonian                  GFN2-xTB          :
 * total energy  :   -40.2520084 Eh     change       -0.2252627E-08 Eh
 * total energy  :   -40.2597033 Eh     change       -0.7694879E-02 Eh
 * total energy  :   -40.2620392 Eh     change       -0.2335952E-02 Eh
 * total energy  :   -40.2629965 Eh     change       -0.9572149E-03 Eh
 * total energy  :   -40.2639228 Eh     change       -0.9263246E-03 Eh
 * total energy  :   -40.2645035 Eh     change       -0.5807179E-03 Eh
 * total energy  :   -40.2650677 Eh     change       -0.5641578E-03 Eh
 * total energy  :   -40.2655201 Eh     change       -0.4524152E-03 Eh
 * total energy  :   -40.2658323 Eh     change       -0.3122293E-03 Eh
 * total energy  :   -40.2660100 Eh     change       -0.1776870E-03 Eh
 * total energy  :   -40.2677048 Eh     change       -0.1315020E-04 Eh
 * total energy  :   -40.2677159 Eh     change       -0.1108819E-04 Eh
 * total energy  :   -40.2677281 Eh     change       -0.1213693E-04 Eh
 * total energy  :   -40.2677393 Eh     change       -0.1118676E-04 Eh
 * total energy  :   -40.2677515 Eh     change       -0.1223815E-04 Eh
 * total energy  :   -40.2677602 Eh     change       -0.8691108E-05 Eh
 * total energy  :   -40.2677661 Eh     change       -0.5895443E-05 Eh
 * total energy  :   -40.2677712 Eh     change       -0.5124509E-05 Eh
 * total energy  :   -40.2677746 Eh     change       -0.3426907E-05 Eh
   *** GEOMETRY OPTIMIZATION CONVERGED AFTER 57 ITERATIONS ***

 final structure:
================
32
 xtb: 6.7.1 (edcfbbe)
C            0.61030108822156       -2.02587051343033        0.15004697835235
N            0.67989741030796       -1.92233784573394        1.58237793764126
C            1.63334875702587       -2.49609074704257        2.37013151881234
C            1.35251523173594       -2.15540358395161        3.65788231098656
N            0.22599013426945       -1.39110405546448        3.63642714134094
C           -0.15804011637376       -1.25533045428053        2.36985948413437
C           -0.34939499052446       -0.66475239561951        4.73746194864257
C            0.17462612358437        0.78523445736799        4.67987964873809
O           -0.07604212066913        1.28351907602768        3.40790726224542
Si           0.83651160890240        2.35270072791457        2.51337596659919
C            2.60905854472571        1.65544775429796        2.36599013638008
C           -0.08443399285235        2.26426064313215        0.85628793013654
C            0.85630472285030        4.07482901912907        3.30773463367958
H           -0.25484608254893       -1.47888114039240       -0.21725649361395
H            0.52482928557272       -3.07140163134326       -0.14823571541701
H            1.51278242438443       -1.61048289786788       -0.30016255744391
H            2.42672147869491       -3.09421637021160        1.97016504378284
H            1.86227820328158       -2.40711792705804        4.56540491739861
H           -1.00228036375790       -0.67994598113738        2.04452225617899
H           -1.43517411414438       -0.65793876611366        4.62730029309219
H           -0.07457715814784       -1.13779756621166        5.67962901764758
H           -0.34783960964532        1.38237655264776        5.43368246517583
H            1.24714384098505        0.79842396789146        4.90216385504737
H            2.62515784515905        0.61696215017081        2.04119675544949
H            3.18872698785915        2.22489623598298        1.64812436169397
H            3.14125061500274        1.70979110960396        3.31168573315773
H           -1.15884491158229        2.32466252036474        0.99297092629857
H            0.20885812932301        3.09987497287143        0.23230008000130
H            0.13424758276439        1.35848876465502        0.29835925869668
H           -0.15178324996286        4.45650153476182        3.44660817583774
H            1.33824413255316        4.06522722122402        4.28262962214852
H            1.39094256300283        4.79018516781738        2.69130910717294

          :  Hamiltonian                  GFN2-xTB          :
         :: total energy             -40.267774637453 Eh    ::
         :: gradient norm              0.000574651982 Eh/a0 ::
         :: HOMO-LUMO gap              2.659342912931 eV    ::
         :: SCC energy               -40.829171767824 Eh    ::
         :: -> dispersion             -0.026879904291 Eh    ::
         :: repulsion energy           0.561397130371 Eh    ::

    * Orbital Energies and Occupations

         #    Occupation            Energy/Eh            Energy/eV
      -------------------------------------------------------------
         1        2.0000           -0.8908452             -24.2411
       ...           ...                  ...                  ...
        25        2.0000           -0.6135407             -16.6953
        26        2.0000           -0.6017959             -16.3757
        27        2.0000           -0.5830911             -15.8667
        28        2.0000           -0.5765616             -15.6890
        29        2.0000           -0.5704625             -15.5231
        30        2.0000           -0.5684231             -15.4676
        31        2.0000           -0.5628090             -15.3148
        32        2.0000           -0.5591013             -15.2139
        33        2.0000           -0.5560607             -15.1312
        34        2.0000           -0.5513362             -15.0026
        35        2.0000           -0.5499776             -14.9657
        36        2.0000           -0.5017905             -13.6544
        37        2.0000           -0.4975749             -13.5397 (HOMO)
        38                         -0.3998459             -10.8804 (LUMO)
        39                         -0.3672669              -9.9938
        40                         -0.2425142              -6.5991
        41                         -0.2260627              -6.1515
        42                         -0.2156491              -5.8681
        43                         -0.1768818              -4.8132
        44                         -0.1276646              -3.4739
        45                         -0.1127511              -3.0681
        46                         -0.0895321              -2.4363
        47                         -0.0668029              -1.8178
        48                         -0.0537424              -1.4624
       ...                                ...                  ...
        76                          0.6041025              16.4385
      -------------------------------------------------------------
                  HL-Gap            0.0977291 Eh            2.6593 eV

     #   Z          covCN         q      C6AA      α(0)
     1   6 C        3.692    -0.087    22.347     6.764
     2   7 N        2.868     0.077    19.900     6.625
     3   6 C        3.072    -0.011    28.207     8.708
     4   6 C        3.068    -0.008    28.152     8.700
     5   7 N        2.875     0.076    19.923     6.629
     6   6 C        3.096     0.051    26.745     8.476
     7   6 C        3.743    -0.035    21.272     6.580
     8   6 C        3.723     0.076    19.424     6.294
     9   8 O        1.621    -0.391    20.685     6.139
    10  14 Si       3.437     0.549   102.592    19.783
    11   6 C        3.648    -0.213    25.113     7.200
    12   6 C        3.650    -0.213    25.099     7.196
    13   6 C        3.650    -0.213    25.101     7.197
    14   1 H        0.925     0.100     1.784     2.089
    15   1 H        0.924     0.106     1.729     2.056
    16   1 H        0.924     0.106     1.733     2.059
    17   1 H        0.926     0.109     1.704     2.042
    18   1 H        0.926     0.107     1.722     2.052
    19   1 H        0.926     0.130     1.538     1.939
    20   1 H        0.924     0.100     1.785     2.089
    21   1 H        0.925     0.094     1.841     2.122
    22   1 H        0.924     0.069     2.094     2.263
    23   1 H        0.924     0.039     2.456     2.451
    24   1 H        0.925     0.019     2.752     2.594
    25   1 H        0.925     0.048     2.340     2.392
    26   1 H        0.925     0.036     2.501     2.473
    27   1 H        0.925     0.048     2.348     2.396
    28   1 H        0.925     0.041     2.434     2.440
    29   1 H        0.925     0.030     2.593     2.518
    30   1 H        0.925     0.057     2.239     2.340
    31   1 H        0.925     0.049     2.333     2.388
    32   1 H        0.925     0.054     2.269     2.355

Wiberg/Mayer (AO) data.
largest (>0.10) Wiberg bond orders for each atom

     #   Z sym  total        # sym  WBO       # sym  WBO       # sym  WBO
 ---------------------------------------------------------------------------
     1   6 C    3.934 --     2 N    0.991    14 H    0.975    15 H    0.963
                            16 H    0.963
     2   7 N    3.719 --     6 C    1.363     3 C    1.221     1 C    0.991
     3   6 C    3.948 --     4 C    1.596     2 N    1.221    17 H    0.961
     4   6 C    3.949 --     3 C    1.596     5 N    1.223    18 H    0.961
     5   7 N    3.717 --     6 C    1.357     4 C    1.223     7 C    0.982
     6   6 C    3.943 --     2 N    1.363     5 N    1.357    19 H    0.949
     7   6 C    3.944 --     5 N    0.982     8 C    0.967    21 H    0.966
                            20 H    0.962
     8   6 C    3.956 --     9 O    1.016    23 H    0.975     7 C    0.967
                            22 H    0.961
     9   8 O    2.209 --     8 C    1.016    10 Si   1.014
    10  14 Si   3.788 --     9 O    1.014    13 C    0.915    11 C    0.888
                            12 C    0.886
    11   6 C    3.978 --    25 H    0.990    26 H    0.986    24 H    0.986
                            10 Si   0.888
    12   6 C    3.982 --    28 H    0.995    29 H    0.987    27 H    0.987
                            10 Si   0.886
    13   6 C    3.984 --    32 H    0.985    31 H    0.979    30 H    0.978
                            10 Si   0.915
    14   1 H    0.990 --     1 C    0.975
    15   1 H    0.988 --     1 C    0.963
    16   1 H    0.988 --     1 C    0.963
    17   1 H    0.988 --     3 C    0.961
    18   1 H    0.988 --     4 C    0.961
    19   1 H    0.983 --     6 C    0.949
    20   1 H    0.990 --     7 C    0.962
    21   1 H    0.990 --     7 C    0.966
    22   1 H    0.995 --     8 C    0.961
    23   1 H    0.998 --     8 C    0.975
    24   1 H    1.000 --    11 C    0.986
    25   1 H    0.998 --    11 C    0.990
    26   1 H    0.999 --    11 C    0.986
    27   1 H    0.998 --    12 C    0.987
    28   1 H    0.998 --    12 C    0.995
    29   1 H    0.999 --    12 C    0.987
    30   1 H    0.997 --    13 C    0.978
    31   1 H    0.998 --    13 C    0.979
    32   1 H    0.997 --    13 C    0.985
 ---------------------------------------------------------------------------

molecular dipole:
                 x           y           z       tot (Debye)
 q only:        1.095      -2.136       4.941
   full:        1.166      -2.074       5.060      14.213

           -------------------------------------------------
          | TOTAL ENERGY              -40.267774637453 Eh   |
          | GRADIENT NORM               0.000574651982 Eh/α |
          | HOMO-LUMO GAP               2.659342912931 eV   |
           -------------------------------------------------

 * finished run on 2024/12/20 at 07:08:58.503
