   * xtb version 6.7.1 (edcfbbe) compiled by 'conda@3ef47c1a292c' on 2024-11-25

   ID    Z sym.   atoms
    1    6 C      1-4, 6, 7, 9, 10
    2    7 N      5, 8
    3    1 H      11-25

          program call               : xtb C1024.xyz --opt --namespace C1024 --charge +1
          :  Hamiltonian                  GFN2-xTB          :
 * total energy  :   -30.2529825 Eh     change       -0.5998402E-10 Eh
 * total energy  :   -30.2561737 Eh     change       -0.3191189E-02 Eh
 * total energy  :   -30.2569366 Eh     change       -0.7629493E-03 Eh
 * total energy  :   -30.2571167 Eh     change       -0.1800936E-03 Eh
 * total energy  :   -30.2573341 Eh     change       -0.2173674E-03 Eh
 * total energy  :   -30.2574815 Eh     change       -0.1474317E-03 Eh
 * total energy  :   -30.2577024 Eh     change       -0.2208426E-03 Eh
 * total energy  :   -30.2581211 Eh     change       -0.4187316E-03 Eh
 * total energy  :   -30.2586033 Eh     change       -0.4821773E-03 Eh
 * total energy  :   -30.2590672 Eh     change       -0.4639249E-03 Eh
 * total energy  :   -30.2604431 Eh     change       -0.1067867E-03 Eh
 * total energy  :   -30.2599422 Eh     change        0.5008891E-03 Eh
 * total energy  :   -30.2606790 Eh     change       -0.7368376E-03 Eh
 * total energy  :   -30.2607020 Eh     change       -0.2296444E-04 Eh
 * total energy  :   -30.2607519 Eh     change       -0.4988805E-04 Eh
 * total energy  :   -30.2607716 Eh     change       -0.1976891E-04 Eh
 * total energy  :   -30.2607801 Eh     change       -0.8503865E-05 Eh
 * total energy  :   -30.2607859 Eh     change       -0.5764178E-05 Eh
 * total energy  :   -30.2607895 Eh     change       -0.3594695E-05 Eh
   *** GEOMETRY OPTIMIZATION CONVERGED AFTER 22 ITERATIONS ***

 final structure:
================
25
 xtb: 6.7.1 (edcfbbe)
C            1.16220926334256        0.53185060474588       -0.20529620583590
C            0.80006362591558       -0.00994690388260       -1.58337779385464
C            1.14104138131627       -1.48979892532043       -1.76006628751552
C            0.29549776638103       -2.42955976501370       -0.89072700684948
N           -1.09676302902371       -2.37538427211281       -1.27170131861606
C           -1.66293941085093       -3.06069565918168       -2.30231091229293
C           -2.96583355681806       -2.67276810138436       -2.38204864419463
N           -3.17385331850105       -1.75082126346267       -1.40113046093970
C           -2.02795681691873       -1.58472719486821       -0.74581273070184
C           -4.42169088211684       -1.08798356997278       -1.13286122274739
H            0.58533867131357        0.06005508918182        0.58739497612277
H            0.97220369010982        1.60072114003878       -0.16500832551773
H            2.21713958696800        0.36993805007218       -0.00094148499853
H           -0.26174055241602        0.15935945077164       -1.78534678684132
H            1.35917180294665        0.55105130420260       -2.33282193192496
H            1.01772411697285       -1.76922466541479       -2.80822576508265
H            2.18593482903982       -1.64912931040931       -1.49372990629072
H            0.64350734495915       -3.45672029925352       -1.01448444408695
H            0.38217316805790       -2.15281215549388        0.16043095457629
H           -1.11710902161260       -3.76727076037322       -2.89362387689285
H           -3.73994095818414       -2.98438536400102       -3.05326577304302
H           -1.88171695288988       -0.92426369525733        0.08677577959705
H           -4.30937968487079       -0.41367809112472       -0.28700944040880
H           -4.73780896200766       -0.51585951954259       -2.00596218779023
H           -5.19418210111386       -1.82275612294111       -0.90341920387108

          :  Hamiltonian                  GFN2-xTB          :
         :: total energy             -30.260789497382 Eh    ::
         :: gradient norm              0.000298397402 Eh/a0 ::
         :: HOMO-LUMO gap              3.927109519705 eV    ::
         :: SCC energy               -30.725045460983 Eh    ::
         :: -> dispersion             -0.017537423852 Eh    ::
         :: repulsion energy           0.464255963601 Eh    ::

    * Orbital Energies and Occupations

         #    Occupation            Energy/Eh            Energy/eV
      -------------------------------------------------------------
         1        2.0000           -0.8984916             -24.4492
       ...           ...                  ...                  ...
        16        2.0000           -0.6704487             -18.2438
        17        2.0000           -0.6612893             -17.9946
        18        2.0000           -0.6519424             -17.7403
        19        2.0000           -0.6433429             -17.5063
        20        2.0000           -0.6404028             -17.4262
        21        2.0000           -0.6211508             -16.9024
        22        2.0000           -0.6108245             -16.6214
        23        2.0000           -0.6003003             -16.3350
        24        2.0000           -0.5915340             -16.0965
        25        2.0000           -0.5901185             -16.0579
        26        2.0000           -0.5658611             -15.3979
        27        2.0000           -0.5580871             -15.1863
        28        2.0000           -0.5524682             -15.0334 (HOMO)
        29                         -0.4081496             -11.1063 (LUMO)
        30                         -0.3728560             -10.1459
        31                         -0.1851285              -5.0376
        32                         -0.1301144              -3.5406
        33                         -0.0624158              -1.6984
        34                         -0.0615683              -1.6754
        35                         -0.0411120              -1.1187
        36                         -0.0294247              -0.8007
        37                         -0.0211841              -0.5765
        38                         -0.0133553              -0.3634
        39                         -0.0027205              -0.0740
       ...                                ...                  ...
        55                          0.4615442              12.5593
      -------------------------------------------------------------
                  HL-Gap            0.1443186 Eh            3.9271 eV

     #   Z          covCN         q      C6AA      α(0)
     1   6 C        3.751    -0.114    22.744     6.801
     2   6 C        3.800    -0.061    21.675     6.629
     3   6 C        3.802    -0.072    21.878     6.659
     4   6 C        3.742    -0.029    21.160     6.563
     5   7 N        2.869     0.072    19.984     6.639
     6   6 C        3.075    -0.006    28.086     8.689
     7   6 C        3.072    -0.009    28.164     8.701
     8   7 N        2.867     0.076    19.925     6.630
     9   6 C        3.100     0.046    26.838     8.489
    10   6 C        3.692    -0.086    22.335     6.762
    11   1 H        0.925     0.029     2.605     2.524
    12   1 H        0.925     0.054     2.265     2.353
    13   1 H        0.925     0.054     2.265     2.354
    14   1 H        0.924     0.024     2.675     2.558
    15   1 H        0.924     0.061     2.184     2.311
    16   1 H        0.924     0.055     2.259     2.350
    17   1 H        0.925     0.079     1.993     2.208
    18   1 H        0.924     0.089     1.888     2.149
    19   1 H        0.924     0.090     1.883     2.146
    20   1 H        0.926     0.109     1.704     2.042
    21   1 H        0.926     0.110     1.698     2.038
    22   1 H        0.926     0.115     1.658     2.014
    23   1 H        0.925     0.099     1.790     2.092
    24   1 H        0.924     0.107     1.720     2.051
    25   1 H        0.924     0.107     1.719     2.050

Wiberg/Mayer (AO) data.
largest (>0.10) Wiberg bond orders for each atom

     #   Z sym  total        # sym  WBO       # sym  WBO       # sym  WBO
 ---------------------------------------------------------------------------
     1   6 C    3.993 --     2 C    1.021    13 H    0.986    12 H    0.985
                            11 H    0.985
     2   6 C    3.994 --     1 C    1.021     3 C    1.009    14 H    0.975
                            15 H    0.972
     3   6 C    3.983 --     2 C    1.009     4 C    0.981    16 H    0.975
                            17 H    0.966
     4   6 C    3.935 --     3 C    0.981     5 N    0.968    18 H    0.963
                            19 H    0.962
     5   7 N    3.720 --     9 C    1.362     6 C    1.230     4 C    0.968
     6   6 C    3.951 --     7 C    1.592     5 N    1.230    20 H    0.961
     7   6 C    3.948 --     6 C    1.592     8 N    1.227    21 H    0.961
     8   7 N    3.720 --     9 C    1.358     7 C    1.227    10 C    0.991
     9   6 C    3.946 --     5 N    1.362     8 N    1.358    22 H    0.952
    10   6 C    3.933 --     8 N    0.991    23 H    0.976    25 H    0.962
                            24 H    0.962
    11   1 H    0.999 --     1 C    0.985
    12   1 H    0.997 --     1 C    0.985
    13   1 H    0.997 --     1 C    0.986
    14   1 H    0.999 --     2 C    0.975
    15   1 H    0.996 --     2 C    0.972
    16   1 H    0.997 --     3 C    0.975
    17   1 H    0.993 --     3 C    0.966
    18   1 H    0.992 --     4 C    0.963
    19   1 H    0.992 --     4 C    0.962
    20   1 H    0.988 --     6 C    0.961
    21   1 H    0.988 --     7 C    0.961
    22   1 H    0.987 --     9 C    0.952
    23   1 H    0.990 --    10 C    0.976
    24   1 H    0.988 --    10 C    0.962
    25   1 H    0.988 --    10 C    0.962
 ---------------------------------------------------------------------------

molecular dipole:
                 x           y           z       tot (Debye)
 q only:       -3.635      -3.482      -2.523
   full:       -3.695      -3.513      -2.473      14.402

           -------------------------------------------------
          | TOTAL ENERGY              -30.260789497382 Eh   |
          | GRADIENT NORM               0.000298397402 Eh/α |
          | HOMO-LUMO GAP               3.927109519705 eV   |
           -------------------------------------------------

 * finished run on 2024/12/20 at 07:08:51.766
