   * xtb version 6.7.1 (edcfbbe) compiled by 'conda@3ef47c1a292c' on 2024-11-25

   ID    Z sym.   atoms
    1    6 C      1-3, 5-10
    2    7 N      4, 11
    3    1 H      12-20

          program call               : xtb C1022.xyz --opt --namespace C1022 --charge +1
          :  Hamiltonian                  GFN2-xTB          :
 * total energy  :   -29.1994198 Eh     change       -0.6208580E-09 Eh
 * total energy  :   -29.2023737 Eh     change       -0.2953904E-02 Eh
 * total energy  :   -29.2027331 Eh     change       -0.3593535E-03 Eh
 * total energy  :   -29.2025033 Eh     change        0.2298029E-03 Eh
 * total energy  :   -29.2029350 Eh     change       -0.4317462E-03 Eh
 * total energy  :   -29.2029601 Eh     change       -0.2512141E-04 Eh
 * total energy  :   -29.2029904 Eh     change       -0.3025815E-04 Eh
 * total energy  :   -29.2030047 Eh     change       -0.1427275E-04 Eh
 * total energy  :   -29.2030393 Eh     change       -0.3461415E-04 Eh
 * total energy  :   -29.2030507 Eh     change       -0.1145941E-04 Eh
 * total energy  :   -29.2030575 Eh     change       -0.6722540E-05 Eh
 * total energy  :   -29.2030633 Eh     change       -0.5824344E-05 Eh
 * total energy  :   -29.2030714 Eh     change       -0.8134984E-05 Eh
 * total energy  :   -29.2030818 Eh     change       -0.1035869E-04 Eh
 * total energy  :   -29.2030790 Eh     change        0.2741771E-05 Eh
 * total energy  :   -29.2030864 Eh     change       -0.7352737E-05 Eh
 * total energy  :   -29.2030878 Eh     change       -0.1414461E-05 Eh
   *** GEOMETRY OPTIMIZATION CONVERGED AFTER 17 ITERATIONS ***

 final structure:
================
20
 xtb: 6.7.1 (edcfbbe)
C            0.81124214595269        0.12353669464192       -0.03799553909540
C            0.35321255373528       -0.92205972860267        0.62133713185415
C           -1.11516947756329       -1.15976073967821        0.88460269463778
N           -1.51320378520957       -2.44177858285311        0.32184237294768
C           -1.37754834546615       -3.55715306695451        1.05006922208076
C           -1.67045597066783       -4.79690420298945        0.52718029787539
C           -2.11737219019139       -4.88579641078821       -0.79516420608723
C           -2.24815230545989       -3.70884636808091       -1.53989649463977
C           -1.93312302794920       -2.50660954912093       -0.94793758043954
C           -2.43116278043236       -6.14577686360912       -1.37017737083182
N           -2.68128382508762       -7.16025463228689       -1.83291171677716
H            0.16240538819888        0.88404541456794       -0.44190737513177
H            1.86668059148581        0.27333109820407       -0.18158094505905
H            1.02040558307134       -1.66712974620980        1.03106709153383
H           -1.30024878739708       -1.17309516314504        1.96198519539538
H           -1.70956918795087       -0.36421948110612        0.43265826180202
H           -1.03206734429200       -3.44722078643312        2.06813520634786
H           -1.55819191905826       -5.68359210332542        1.13190035171983
H           -2.59085934122922       -3.73931135498248       -2.56269361229295
H           -2.01421797448931       -1.57625442724787       -1.49091298584001

          :  Hamiltonian                  GFN2-xTB          :
         :: total energy             -29.203087801311 Eh    ::
         :: gradient norm              0.000924397536 Eh/a0 ::
         :: HOMO-LUMO gap              2.214849608108 eV    ::
         :: SCC energy               -29.762315040314 Eh    ::
         :: -> dispersion             -0.015624919430 Eh    ::
         :: repulsion energy           0.559227239003 Eh    ::

    * Orbital Energies and Occupations

         #    Occupation            Energy/Eh            Energy/eV
      -------------------------------------------------------------
         1        2.0000           -0.8995380             -24.4777
       ...           ...                  ...                  ...
        15        2.0000           -0.6975331             -18.9808
        16        2.0000           -0.6825633             -18.5735
        17        2.0000           -0.6702420             -18.2382
        18        2.0000           -0.6646573             -18.0862
        19        2.0000           -0.6522737             -17.7493
        20        2.0000           -0.6476773             -17.6242
        21        2.0000           -0.6355885             -17.2952
        22        2.0000           -0.6280446             -17.0900
        23        2.0000           -0.6257559             -17.0277
        24        2.0000           -0.6166980             -16.7812
        25        2.0000           -0.5879419             -15.9987
        26        2.0000           -0.5772861             -15.7088
        27        2.0000           -0.5704674             -15.5232 (HOMO)
        28                         -0.4890731             -13.3084 (LUMO)
        29                         -0.4481257             -12.1941
        30                         -0.3755483             -10.2192
        31                         -0.3662838              -9.9671
        32                         -0.3660011              -9.9594
        33                         -0.2798698              -7.6156
        34                         -0.1810470              -4.9265
        35                         -0.0955453              -2.5999
        36                         -0.0634738              -1.7272
        37                         -0.0584250              -1.5898
        38                         -0.0540369              -1.4704
       ...                                ...                  ...
        53                          1.0213670              27.7928
      -------------------------------------------------------------
                  HL-Gap            0.0813942 Eh            2.2148 eV

     #   Z          covCN         q      C6AA      α(0)
     1   6 C        2.837    -0.074    29.842     8.952
     2   6 C        2.887    -0.040    28.995     8.828
     3   6 C        3.763    -0.036    21.258     6.572
     4   7 N        2.751     0.114    19.283     6.522
     5   6 C        2.890     0.035    27.207     8.552
     6   6 C        2.920    -0.007    28.185     8.706
     7   6 C        2.978     0.075    26.312     8.414
     8   6 C        2.920    -0.006    28.180     8.705
     9   6 C        2.890     0.035    27.210     8.552
    10   6 C        1.907     0.118    28.201     8.576
    11   7 N        0.911    -0.108    23.364     6.991
    12   1 H        0.926     0.074     2.037     2.232
    13   1 H        0.926     0.091     1.873     2.140
    14   1 H        0.926     0.063     2.170     2.303
    15   1 H        0.924     0.101     1.774     2.083
    16   1 H        0.924     0.101     1.775     2.084
    17   1 H        0.926     0.116     1.644     2.005
    18   1 H        0.926     0.115     1.650     2.009
    19   1 H        0.926     0.115     1.650     2.009
    20   1 H        0.926     0.116     1.647     2.007

Wiberg/Mayer (AO) data.
largest (>0.10) Wiberg bond orders for each atom

     #   Z sym  total        # sym  WBO       # sym  WBO       # sym  WBO
 ---------------------------------------------------------------------------
     1   6 C    3.977 --     2 C    1.987    12 H    0.970    13 H    0.965
     2   6 C    3.974 --     1 C    1.987     3 C    0.980    14 H    0.962
     3   6 C    3.928 --     2 C    0.980    16 H    0.959     4 N    0.956
                            15 H    0.951
     4   7 N    3.748 --     5 C    1.322     9 C    1.321     3 C    0.956
     5   6 C    3.957 --     6 C    1.474     4 N    1.322    17 H    0.952
     6   6 C    3.979 --     5 C    1.474     7 C    1.355    18 H    0.957
     7   6 C    3.981 --     6 C    1.355     8 C    1.353    10 C    1.083
     8   6 C    3.979 --     9 C    1.476     7 C    1.353    19 H    0.957
     9   6 C    3.957 --     8 C    1.476     4 N    1.321    20 H    0.952
    10   6 C    3.957 --    11 N    2.840     7 C    1.083
    11   7 N    3.011 --    10 C    2.840
    12   1 H    0.994 --     1 C    0.970
    13   1 H    0.990 --     1 C    0.965
    14   1 H    0.996 --     2 C    0.962
    15   1 H    0.989 --     3 C    0.951
    16   1 H    0.989 --     3 C    0.959
    17   1 H    0.985 --     5 C    0.952
    18   1 H    0.986 --     6 C    0.957
    19   1 H    0.986 --     8 C    0.957
    20   1 H    0.985 --     9 C    0.952
 ---------------------------------------------------------------------------

molecular dipole:
                 x           y           z       tot (Debye)
 q only:       -2.547      -4.781       0.244
   full:       -2.502      -4.362       0.481      12.838

           -------------------------------------------------
          | TOTAL ENERGY              -29.203087801311 Eh   |
          | GRADIENT NORM               0.000924397536 Eh/α |
          | HOMO-LUMO GAP               2.214849608108 eV   |
           -------------------------------------------------

 * finished run on 2024/12/20 at 07:08:50.367
