   * xtb version 6.7.1 (edcfbbe) compiled by 'conda@3ef47c1a292c' on 2024-11-25

   ID    Z sym.   atoms
    1    6 C      1-10, 13, 15-21
    2    7 N      11, 12, 14
    3    9 F      22-30
    4    1 H      31-57

          program call               : xtb C1029.xyz --opt --namespace C1029 --charge +1
          :  Hamiltonian                  GFN2-xTB          :
 * total energy  :  -103.2706913 Eh     change       -0.1405311E-09 Eh
 * total energy  :  -103.2812411 Eh     change       -0.1054974E-01 Eh
 * total energy  :  -103.2842375 Eh     change       -0.2996408E-02 Eh
 * total energy  :  -103.2847365 Eh     change       -0.4990549E-03 Eh
 * total energy  :  -103.2850607 Eh     change       -0.3242080E-03 Eh
 * total energy  :  -103.2852365 Eh     change       -0.1757369E-03 Eh
 * total energy  :  -103.2854677 Eh     change       -0.2312306E-03 Eh
 * total energy  :  -103.2856720 Eh     change       -0.2042636E-03 Eh
 * total energy  :  -103.2858219 Eh     change       -0.1499122E-03 Eh
 * total energy  :  -103.2859420 Eh     change       -0.1201104E-03 Eh
 * total energy  :  -103.2868142 Eh     change       -0.1924230E-04 Eh
 * total energy  :  -103.2868330 Eh     change       -0.1871375E-04 Eh
 * total energy  :  -103.2868519 Eh     change       -0.1894298E-04 Eh
 * total energy  :  -103.2868719 Eh     change       -0.2000356E-04 Eh
 * total energy  :  -103.2868922 Eh     change       -0.2025844E-04 Eh
 * total energy  :  -103.2869113 Eh     change       -0.1911250E-04 Eh
 * total energy  :  -103.2869249 Eh     change       -0.1358260E-04 Eh
 * total energy  :  -103.2869339 Eh     change       -0.9039419E-05 Eh
 * total energy  :  -103.2869382 Eh     change       -0.4335824E-05 Eh
   *** GEOMETRY OPTIMIZATION CONVERGED AFTER 40 ITERATIONS ***

 final structure:
================
57
 xtb: 6.7.1 (edcfbbe)
C            0.91759881192892        0.86130455408005        0.05193363486849
C            1.09191928528387        0.82658404636436       -1.46146305427848
C            1.31307669419435       -0.58324705576481       -2.01205134122568
C            0.16527472004868       -1.56293232643833       -1.75794556983582
C           -1.18827774867360       -1.13505657727252       -2.32812047892163
C           -1.21044829365178       -0.92106139314153       -3.84306289090915
C           -0.85508226055671       -2.15713184013569       -4.67235317669791
C           -1.75696415126723       -3.37161569639285       -4.43749223571190
C           -3.24991572570389       -3.11192220575202       -4.64223749154922
C           -3.59903654268503       -2.57756965986117       -6.03781898442607
N           -3.19911619578664       -3.51138010281050       -7.05716401830502
N           -2.07613055440216       -3.34169557032933       -7.74223152457485
C           -1.95897251548045       -4.37282555537757       -8.51594976332503
N           -3.01009199349322       -5.22265181984615       -8.34076496956818
C           -3.77937450860190       -4.64520893246862       -7.40560228363660
C           -3.20550841887334       -6.50758653703416       -8.97550874522373
C           -2.18866230205312       -7.54769158530235       -8.48870078549190
C           -2.19617389919118       -7.82141184898419       -6.98184729951814
C           -3.50506135747814       -8.37091532717680       -6.32744662600576
C           -4.09778778593267       -9.67974366852219       -6.92642389791319
C           -3.14058657523363      -10.91483605828209       -6.92466841993842
F           -2.48867598114177      -11.02769751942535       -5.78140251923533
F           -3.81831235657815      -12.02080428127880       -7.15190320423753
F           -2.24925585861388      -10.75693458298371       -7.90887440111840
F           -5.22144842536151       -9.97866165084317       -6.27027880652749
F           -4.44253040036001       -9.42045474796948       -8.21234251657166
F           -3.30499927689079       -8.52748972766191       -5.01624378998437
F           -4.45812284719905       -7.40671039645781       -6.45744709695858
F           -1.19586100907938       -8.66512904101372       -6.67846556412790
F           -1.92181754139745       -6.66047818445716       -6.31751748540245
H           -0.00368383017443        0.37062197329097        0.35444607276392
H            0.88150250736415        1.88993696091032        0.40238941848666
H            1.75079953708168        0.36349219355913        0.54181882543049
H            0.22284134524990        1.28282132541185       -1.93878372582813
H            1.96124324206810        1.43162062089846       -1.72875077982114
H            1.50393625701006       -0.51433727109734       -3.08531260526430
H            2.21340374533504       -0.99670368953225       -1.55169107131992
H            0.44548450002363       -2.53444681013928       -2.17149946145540
H            0.04896346573753       -1.69935990205189       -0.68192629043996
H           -1.93022947482113       -1.88814235058822       -2.05191898640522
H           -1.49374970683193       -0.20201926846965       -1.85284923696139
H           -2.20153297913587       -0.55597900518815       -4.12451917852492
H           -0.50145745315202       -0.13286106696197       -4.09828795076539
H           -0.86666658237570       -1.88764121000421       -5.73111870439846
H            0.16654231840192       -2.45588432610404       -4.43770712921886
H           -1.42901025727029       -4.18293265508618       -5.09288686823117
H           -1.62335861312762       -3.72132297338112       -3.41407019374838
H           -3.80260734748002       -4.03616283176680       -4.46118617043450
H           -3.59413706036738       -2.37289409168355       -3.92031624330495
H           -4.67423604921745       -2.40598745534177       -6.11591223951692
H           -3.06042504107755       -1.64971131090775       -6.23131828235568
H           -1.15156448163531       -4.52434291486470       -9.20330604638108
H           -4.69931812912316       -5.03569881428530       -7.01690056691860
H           -4.22997069315433       -6.83586819037289       -8.79244804778786
H           -3.07076930355193       -6.38917274980545      -10.05419369991337
H           -2.34514977928756       -8.48409021705129       -9.02478780852246
H           -1.17055512226666       -7.21149867681059       -8.70840772281191

          :  Hamiltonian                  GFN2-xTB          :
         :: total energy            -103.286938236724 Eh    ::
         :: gradient norm              0.000678494078 Eh/a0 ::
         :: HOMO-LUMO gap              1.135698540974 eV    ::
         :: SCC energy              -104.168459276188 Eh    ::
         :: -> dispersion             -0.053756684397 Eh    ::
         :: repulsion energy           0.881521039464 Eh    ::

    * Orbital Energies and Occupations

         #    Occupation            Energy/Eh            Energy/eV
      -------------------------------------------------------------
         1        2.0000           -1.0375424             -28.2330
       ...           ...                  ...                  ...
        76        2.0000           -0.5652852             -15.3822
        77        2.0000           -0.5556306             -15.1195
        78        2.0000           -0.5492963             -14.9471
        79        2.0000           -0.5453490             -14.8397
        80        2.0000           -0.5329431             -14.5021
        81        2.0000           -0.5286264             -14.3847
        82        2.0000           -0.5210103             -14.1774
        83        2.0000           -0.5097423             -13.8708
        84        2.0000           -0.5042871             -13.7223
        85        2.0000           -0.5006772             -13.6241
        86        2.0000           -0.4832274             -13.1493
        87        2.0000           -0.4796937             -13.0531
        88        2.0000           -0.4768329             -12.9753 (HOMO)
        89                         -0.4350968             -11.8396 (LUMO)
        90                         -0.4115136             -11.1979
        91                         -0.2277091              -6.1963
        92                         -0.2236857              -6.0868
        93                         -0.2129039              -5.7934
        94                         -0.1938642              -5.2753
        95                         -0.1860896              -5.0638
        96                         -0.1608893              -4.3780
        97                         -0.1402766              -3.8171
        98                         -0.1300435              -3.5387
        99                         -0.1095736              -2.9816
       ...                                ...                  ...
       147                          0.3515277               9.5656
      -------------------------------------------------------------
                  HL-Gap            0.0417362 Eh            1.1357 eV

     #   Z          covCN         q      C6AA      α(0)
     1   6 C        3.752    -0.104    22.542     6.771
     2   6 C        3.799    -0.053    21.532     6.607
     3   6 C        3.800    -0.059    21.634     6.622
     4   6 C        3.800    -0.059    21.645     6.624
     5   6 C        3.800    -0.060    21.660     6.626
     6   6 C        3.800    -0.062    21.698     6.632
     7   6 C        3.800    -0.068    21.803     6.648
     8   6 C        3.800    -0.066    21.774     6.644
     9   6 C        3.802    -0.070    21.836     6.653
    10   6 C        3.742    -0.040    21.368     6.595
    11   7 N        3.061     0.171    18.375     6.367
    12   7 N        2.047    -0.130    24.492     7.341
    13   6 C        3.144     0.086    25.852     8.319
    14   7 N        2.856     0.047    20.410     6.710
    15   6 C        3.066     0.051    26.794     8.488
    16   6 C        3.738    -0.029    21.165     6.565
    17   6 C        3.803    -0.098    22.374     6.734
    18   6 C        3.516     0.316    16.974     6.081
    19   6 C        3.518     0.314    16.989     6.081
    20   6 C        3.517     0.307    17.088     6.100
    21   6 C        3.326     0.487    17.401     6.627
    22   9 F        0.790    -0.153    10.763     3.875
    23   9 F        0.791    -0.137    10.608     3.847
    24   9 F        0.791    -0.177    11.000     3.918
    25   9 F        0.789    -0.146    10.697     3.863
    26   9 F        0.789    -0.189    11.127     3.940
    27   9 F        0.789    -0.154    10.776     3.878
    28   9 F        0.789    -0.198    11.212     3.955
    29   9 F        0.790    -0.184    11.074     3.931
    30   9 F        0.789    -0.206    11.299     3.971
    31   1 H        0.925     0.034     2.533     2.489
    32   1 H        0.925     0.036     2.507     2.476
    33   1 H        0.925     0.037     2.490     2.468
    34   1 H        0.924     0.029     2.603     2.523
    35   1 H        0.924     0.031     2.571     2.507
    36   1 H        0.924     0.026     2.643     2.542
    37   1 H        0.924     0.034     2.530     2.488
    38   1 H        0.924     0.026     2.647     2.544
    39   1 H        0.924     0.039     2.458     2.452
    40   1 H        0.924     0.024     2.668     2.554
    41   1 H        0.924     0.042     2.427     2.436
    42   1 H        0.924     0.021     2.712     2.575
    43   1 H        0.924     0.046     2.364     2.405
    44   1 H        0.924     0.031     2.569     2.507
    45   1 H        0.925     0.052     2.291     2.367
    46   1 H        0.924     0.027     2.633     2.538
    47   1 H        0.925     0.065     2.147     2.291
    48   1 H        0.924     0.050     2.322     2.383
    49   1 H        0.925     0.086     1.916     2.165
    50   1 H        0.924     0.090     1.878     2.143
    51   1 H        0.925     0.122     1.595     1.975
    52   1 H        0.926     0.122     1.593     1.974
    53   1 H        0.926     0.134     1.501     1.916
    54   1 H        0.924     0.108     1.713     2.047
    55   1 H        0.924     0.118     1.631     1.997
    56   1 H        0.924     0.117     1.638     2.001
    57   1 H        0.924     0.116     1.643     2.005

Wiberg/Mayer (AO) data.
largest (>0.10) Wiberg bond orders for each atom

     #   Z sym  total        # sym  WBO       # sym  WBO       # sym  WBO
 ---------------------------------------------------------------------------
     1   6 C    3.997 --     2 C    1.020    33 H    0.987    32 H    0.987
                            31 H    0.986
     2   6 C    3.998 --     1 C    1.020     3 C    1.008    35 H    0.978
                            34 H    0.976
     3   6 C    3.997 --     2 C    1.008     4 C    1.008    37 H    0.977
                            36 H    0.976
     4   6 C    3.997 --     5 C    1.008     3 C    1.008    38 H    0.975
                            39 H    0.975
     5   6 C    3.997 --     4 C    1.008     6 C    1.007    40 H    0.975
                            41 H    0.974
     6   6 C    3.996 --     7 C    1.007     5 C    1.007    42 H    0.975
                            43 H    0.973
     7   6 C    3.994 --     6 C    1.007     8 C    1.006    44 H    0.974
                            45 H    0.972
     8   6 C    3.991 --     9 C    1.007     7 C    1.006    46 H    0.977
                            47 H    0.968
     9   6 C    3.978 --     8 C    1.007    48 H    0.975    10 C    0.970
                            49 H    0.961
    10   6 C    3.917 --     9 C    0.970    11 N    0.961    50 H    0.958
                            51 H    0.954
    11   7 N    3.760 --    15 C    1.424    12 N    1.211    10 C    0.961
    12   7 N    3.034 --    13 C    1.599    11 N    1.211
    13   6 C    3.947 --    12 N    1.599    14 N    1.233    52 H    0.953
    14   7 N    3.703 --    15 C    1.320    13 C    1.233    16 C    0.978
    15   6 C    3.947 --    11 N    1.424    14 N    1.320    53 H    0.948
    16   6 C    3.944 --    17 C    0.997    14 N    0.978    54 H    0.962
                            55 H    0.954
    17   6 C    3.970 --    16 C    0.997    18 C    0.968    57 H    0.958
                            56 H    0.957
    18   6 C    3.867 --    29 F    0.972    17 C    0.968    30 F    0.943
                            19 C    0.908
    19   6 C    3.883 --    27 F    0.994    28 F    0.947    20 C    0.913
                            18 C    0.908
    20   6 C    3.890 --    25 F    0.996    26 F    0.956    19 C    0.913
                            21 C    0.887
    21   6 C    3.884 --    23 F    0.998    22 F    0.986    24 F    0.958
                            20 C    0.887
    22   9 F    1.124 --    21 C    0.986
    23   9 F    1.140 --    21 C    0.998
    24   9 F    1.094 --    21 C    0.958
    25   9 F    1.118 --    20 C    0.996
    26   9 F    1.070 --    20 C    0.956
    27   9 F    1.114 --    19 C    0.994
    28   9 F    1.063 --    19 C    0.947
    29   9 F    1.086 --    18 C    0.972
    30   9 F    1.057 --    18 C    0.943
    31   1 H    0.999 --     1 C    0.986
    32   1 H    0.999 --     1 C    0.987
    33   1 H    0.999 --     1 C    0.987
    34   1 H    0.999 --     2 C    0.976
    35   1 H    0.999 --     2 C    0.978
    36   1 H    0.999 --     3 C    0.976
    37   1 H    0.999 --     3 C    0.977
    38   1 H    0.999 --     4 C    0.975
    39   1 H    0.998 --     4 C    0.975
    40   1 H    0.999 --     5 C    0.975
    41   1 H    0.998 --     5 C    0.974
    42   1 H    1.000 --     6 C    0.975
    43   1 H    0.998 --     6 C    0.973
    44   1 H    0.999 --     7 C    0.974
    45   1 H    0.997 --     7 C    0.972
    46   1 H    0.999 --     8 C    0.977
    47   1 H    0.996 --     8 C    0.968
    48   1 H    0.997 --     9 C    0.975
    49   1 H    0.992 --     9 C    0.961
    50   1 H    0.992 --    10 C    0.958
    51   1 H    0.985 --    10 C    0.954
    52   1 H    0.985 --    13 C    0.953
    53   1 H    0.982 --    15 C    0.948
    54   1 H    0.988 --    16 C    0.962
    55   1 H    0.986 --    16 C    0.954
    56   1 H    0.986 --    17 C    0.957
    57   1 H    0.986 --    17 C    0.958
 ---------------------------------------------------------------------------

molecular dipole:
                 x           y           z       tot (Debye)
 q only:       -5.733      -8.380     -14.614
   full:       -6.060      -8.885     -14.847      46.598

           -------------------------------------------------
          | TOTAL ENERGY             -103.286938236724 Eh   |
          | GRADIENT NORM               0.000678494078 Eh/α |
          | HOMO-LUMO GAP               1.135698540974 eV   |
           -------------------------------------------------

 * finished run on 2024/12/20 at 07:09:01.396
