   * xtb version 6.7.1 (edcfbbe) compiled by 'conda@3ef47c1a292c' on 2024-11-25

   ID    Z sym.   atoms
    1    6 C      1-5, 7, 9-14
    2    7 N      6
    3   16 S      8
    4    1 H      15-30

          program call               : xtb C1038.xyz --opt --namespace C1038 --charge +1
          :  Hamiltonian                  GFN2-xTB          :
 * total energy  :   -39.6305178 Eh     change       -0.2089486E-08 Eh
 * total energy  :   -39.6345431 Eh     change       -0.4025355E-02 Eh
 * total energy  :   -39.6351431 Eh     change       -0.5999576E-03 Eh
 * total energy  :   -39.6352715 Eh     change       -0.1284458E-03 Eh
 * total energy  :   -39.6353652 Eh     change       -0.9367931E-04 Eh
 * total energy  :   -39.6354067 Eh     change       -0.4146671E-04 Eh
 * total energy  :   -39.6354457 Eh     change       -0.3902686E-04 Eh
 * total energy  :   -39.6354916 Eh     change       -0.4585305E-04 Eh
 * total energy  :   -39.6355557 Eh     change       -0.6407818E-04 Eh
 * total energy  :   -39.6355892 Eh     change       -0.3350216E-04 Eh
 * total energy  :   -39.6356327 Eh     change       -0.4357418E-04 Eh
 * total energy  :   -39.6356876 Eh     change       -0.5487510E-04 Eh
 * total energy  :   -39.6357098 Eh     change       -0.2221400E-04 Eh
 * total energy  :   -39.6357250 Eh     change       -0.1517139E-04 Eh
 * total energy  :   -39.6357362 Eh     change       -0.1119871E-04 Eh
 * total energy  :   -39.6357449 Eh     change       -0.8707414E-05 Eh
 * total energy  :   -39.6357521 Eh     change       -0.7238964E-05 Eh
 * total energy  :   -39.6357565 Eh     change       -0.4319974E-05 Eh
   *** GEOMETRY OPTIMIZATION CONVERGED AFTER 18 ITERATIONS ***

 final structure:
================
30
 xtb: 6.7.1 (edcfbbe)
C            1.40514780488362       -0.40710959322897       -0.00038519364138
C            0.53121469971839       -0.42098322682206       -1.26087284948068
C            0.39806130987637       -1.78403854432273       -1.94267784956252
C           -0.48338244540869       -2.81585935882069       -1.23323686597171
C           -1.91210012887633       -2.34301895464985       -0.99152823163941
N            0.78392043333330       -1.06770035965217        1.13232201022386
C           -0.28910416471124       -0.58024450067593        1.72121220455760
S           -0.89707214603587       -1.49804598299369        3.00027328161530
C            0.38831186855932       -2.65336448280858        2.76147957275918
C            1.21404132370709       -2.25329729224877        1.69574222066384
C            2.30668166856922       -3.04271953000486        1.33584801155996
C            2.54096730387761       -4.20148252925518        2.04430234232546
C            1.71411089099222       -4.58996819870000        3.10005483755842
C            0.62952431006110       -3.82212693755741        3.47053550165100
H            1.60488982271802        0.62997644464103        0.28323630399742
H            2.35660807599338       -0.89607589508915       -0.20574160120147
H           -0.45636228368259       -0.01967079858606       -1.03418607793931
H            1.00331261175855        0.26349631508905       -1.96719667695427
H           -0.02558938883923       -1.60805829552485       -2.93282844665506
H            1.39285352648527       -2.21005610603021       -2.09022274705060
H           -0.52019240131318       -3.69989915297074       -1.87183709124915
H           -0.03215472758638       -3.13248013014465       -0.29097227769034
H           -2.35632185659235       -1.99357108447123       -1.91971849450345
H           -2.51709252164989       -3.16426401460185       -0.61606936039187
H           -1.95975135058995       -1.53440001087170       -0.26331202584160
H           -0.73789003725294        0.34833753076975        1.41527257633076
H            2.95453038708918       -2.76620114661901        0.52015567603798
H            3.38072894030826       -4.82218847666226        1.77572053767767
H            1.92559048546354       -5.50363274257664        3.63189943722685
H           -0.01564201085670       -4.11413294461139        4.28289127558817

          :  Hamiltonian                  GFN2-xTB          :
         :: total energy             -39.635756454349 Eh    ::
         :: gradient norm              0.000399721518 Eh/a0 ::
         :: HOMO-LUMO gap              2.460008241381 eV    ::
         :: SCC energy               -40.258480880005 Eh    ::
         :: -> dispersion             -0.030513271420 Eh    ::
         :: repulsion energy           0.622724425656 Eh    ::

    * Orbital Energies and Occupations

         #    Occupation            Energy/Eh            Energy/eV
      -------------------------------------------------------------
         1        2.0000           -0.9175041             -24.9666
       ...           ...                  ...                  ...
        25        2.0000           -0.6263618             -17.0442
        26        2.0000           -0.6211654             -16.9028
        27        2.0000           -0.6074238             -16.5288
        28        2.0000           -0.5946558             -16.1814
        29        2.0000           -0.5930188             -16.1369
        30        2.0000           -0.5882863             -16.0081
        31        2.0000           -0.5841726             -15.8961
        32        2.0000           -0.5766073             -15.6903
        33        2.0000           -0.5707655             -15.5313
        34        2.0000           -0.5571233             -15.1601
        35        2.0000           -0.5533813             -15.0583
        36        2.0000           -0.5494207             -14.9505
        37        2.0000           -0.5422865             -14.7564 (HOMO)
        38                         -0.4518828             -12.2964 (LUMO)
        39                         -0.3931923             -10.6993
        40                         -0.3774832             -10.2718
        41                         -0.3767225             -10.2511
        42                         -0.2899808              -7.8908
        43                         -0.2651570              -7.2153
        44                         -0.1935968              -5.2680
        45                         -0.1514639              -4.1215
        46                         -0.1342393              -3.6528
        47                         -0.1319674              -3.5910
        48                         -0.0708966              -1.9292
       ...                                ...                  ...
        77                          0.5175996              14.0846
      -------------------------------------------------------------
                  HL-Gap            0.0904036 Eh            2.4600 eV

     #   Z          covCN         q      C6AA      α(0)
     1   6 C        3.747    -0.026    21.098     6.552
     2   6 C        3.800    -0.071    21.861     6.657
     3   6 C        3.800    -0.069    21.828     6.652
     4   6 C        3.799    -0.059    21.629     6.622
     5   6 C        3.751    -0.108    22.619     6.782
     6   7 N        2.873     0.067    20.066     6.653
     7   6 C        2.929     0.027    27.405     8.585
     8  16 S        2.232     0.200   133.138    19.420
     9   6 C        3.006     0.014    27.690     8.632
    10   6 C        3.138     0.049    26.671     8.452
    11   6 C        2.913    -0.029    28.727     8.789
    12   6 C        2.921    -0.013    28.346     8.731
    13   6 C        2.923    -0.011    28.298     8.724
    14   6 C        2.929    -0.023    28.571     8.766
    15   1 H        0.924     0.083     1.945     2.181
    16   1 H        0.925     0.092     1.859     2.132
    17   1 H        0.925     0.059     2.206     2.323
    18   1 H        0.924     0.073     2.054     2.241
    19   1 H        0.924     0.062     2.171     2.304
    20   1 H        0.924     0.043     2.404     2.425
    21   1 H        0.924     0.052     2.299     2.371
    22   1 H        0.924     0.014     2.826     2.629
    23   1 H        0.925     0.054     2.272     2.357
    24   1 H        0.925     0.046     2.376     2.410
    25   1 H        0.925     0.017     2.772     2.604
    26   1 H        0.926     0.117     1.635     2.000
    27   1 H        0.926     0.077     2.012     2.218
    28   1 H        0.926     0.087     1.907     2.159
    29   1 H        0.926     0.089     1.886     2.147
    30   1 H        0.926     0.084     1.937     2.176

Wiberg/Mayer (AO) data.
largest (>0.10) Wiberg bond orders for each atom

     #   Z sym  total        # sym  WBO       # sym  WBO       # sym  WBO
 ---------------------------------------------------------------------------
     1   6 C    3.934 --     2 C    0.982    16 H    0.960    15 H    0.958
                             6 N    0.957
     2   6 C    3.982 --     3 C    1.008     1 C    0.982    17 H    0.969
                            18 H    0.967
     3   6 C    3.992 --     2 C    1.008     4 C    1.007    20 H    0.975
                            19 H    0.971
     4   6 C    3.996 --     5 C    1.020     3 C    1.007    21 H    0.975
                            22 H    0.974
     5   6 C    3.995 --     4 C    1.020    24 H    0.986    23 H    0.985
                            25 H    0.982
     6   7 N    3.721 --     7 C    1.438    10 C    1.119     1 C    0.957
                             8 S    0.128
     7   6 C    3.956 --     6 N    1.438     8 S    1.353    26 H    0.953
     8  16 S    2.759 --     7 C    1.353     9 C    1.103     6 N    0.128
     9   6 C    3.953 --    14 C    1.372    10 C    1.293     8 S    1.103
    10   6 C    3.956 --    11 C    1.328     9 C    1.293     6 N    1.119
    11   6 C    3.986 --    12 C    1.495    10 C    1.328    27 H    0.956
                            14 C    0.113
    12   6 C    3.984 --    11 C    1.495    13 C    1.379    28 H    0.964
    13   6 C    3.984 --    14 C    1.479    12 C    1.379    29 H    0.963
    14   6 C    3.985 --    13 C    1.479     9 C    1.372    30 H    0.963
                            11 C    0.113
    15   1 H    0.993 --     1 C    0.958
    16   1 H    0.991 --     1 C    0.960
    17   1 H    0.996 --     2 C    0.969
    18   1 H    0.994 --     2 C    0.967
    19   1 H    0.995 --     3 C    0.971
    20   1 H    0.998 --     3 C    0.975
    21   1 H    0.997 --     4 C    0.975
    22   1 H    1.000 --     4 C    0.974
    23   1 H    0.997 --     5 C    0.985
    24   1 H    0.998 --     5 C    0.986
    25   1 H    1.000 --     5 C    0.982
    26   1 H    0.985 --     7 C    0.953
    27   1 H    0.994 --    11 C    0.956
    28   1 H    0.991 --    12 C    0.964
    29   1 H    0.992 --    13 C    0.963
    30   1 H    0.992 --    14 C    0.963
 ---------------------------------------------------------------------------

molecular dipole:
                 x           y           z       tot (Debye)
 q only:        1.297      -3.445       2.652
   full:        1.318      -3.296       2.673      11.294

           -------------------------------------------------
          | TOTAL ENERGY              -39.635756454349 Eh   |
          | GRADIENT NORM               0.000399721518 Eh/α |
          | HOMO-LUMO GAP               2.460008241381 eV   |
           -------------------------------------------------

 * finished run on 2024/12/20 at 07:09:18.612
