   * xtb version 6.7.1 (edcfbbe) compiled by 'conda@3ef47c1a292c' on 2024-11-25

   ID    Z sym.   atoms
    1    6 C      1, 3, 5
    2    7 N      2, 4, 6
    3    1 H      7-12

          program call               : xtb C1031.xyz --opt --namespace C1031 --charge +1
          :  Hamiltonian                  GFN2-xTB          :
 * total energy  :   -17.7002626 Eh     change       -0.1333689E-09 Eh
 * total energy  :   -17.7236367 Eh     change       -0.2337410E-01 Eh
 * total energy  :   -17.7314534 Eh     change       -0.7816755E-02 Eh
 * total energy  :   -17.7330408 Eh     change       -0.1587373E-02 Eh
 * total energy  :   -17.7339683 Eh     change       -0.9275129E-03 Eh
 * total energy  :   -17.7343252 Eh     change       -0.3568424E-03 Eh
 * total energy  :   -17.7345067 Eh     change       -0.1815240E-03 Eh
 * total energy  :   -17.7346063 Eh     change       -0.9963569E-04 Eh
 * total energy  :   -17.7346572 Eh     change       -0.5090847E-04 Eh
 * total energy  :   -17.7346805 Eh     change       -0.2325682E-04 Eh
 * total energy  :   -17.7346892 Eh     change       -0.8698190E-05 Eh
 * total energy  :   -17.7346926 Eh     change       -0.3456463E-05 Eh
 * total energy  :   -17.7346946 Eh     change       -0.1964499E-05 Eh
   *** GEOMETRY OPTIMIZATION CONVERGED AFTER 13 ITERATIONS ***

 final structure:
================
12
 xtb: 6.7.1 (edcfbbe)
C            1.07539395659151        0.17464653947062       -0.10961678263980
N            0.08174987235751        0.80326962744980       -1.01223009270772
C           -0.14102996558364        0.08741338181050       -2.31614367302702
N            0.11174546386504        0.85709033367517       -3.26965523194653
C            0.49200069262203        2.08073761447508       -2.70497063455135
N            0.48341081677296        2.09063982608898       -1.43294297076114
H            0.70764294083281       -0.78935710599297        0.23629972701850
H            1.24819230083527        0.83304190374898        0.74099038212618
H            2.01323895799000        0.04086204876174       -0.64808995939205
H           -0.80349453997450        0.89817677481174       -0.48873356066811
H           -0.45367747073733       -0.93839102964513       -2.35331231541093
H            0.76519697442835        2.92574008534550       -3.31131488804003

          :  Hamiltonian                  GFN2-xTB          :
         :: total energy             -17.734694602011 Eh    ::
         :: gradient norm              0.000496577976 Eh/a0 ::
         :: HOMO-LUMO gap              2.823948563170 eV    ::
         :: SCC energy               -17.968628283435 Eh    ::
         :: -> dispersion             -0.006321131554 Eh    ::
         :: repulsion energy           0.233933681424 Eh    ::

    * Orbital Energies and Occupations

         #    Occupation            Energy/Eh            Energy/eV
      -------------------------------------------------------------
         1        2.0000           -0.9569826             -26.0408
       ...           ...                  ...                  ...
         4        2.0000           -0.8621043             -23.4591
         5        2.0000           -0.8424298             -22.9237
         6        2.0000           -0.8364320             -22.7605
         7        2.0000           -0.8068869             -21.9565
         8        2.0000           -0.7743874             -21.0722
         9        2.0000           -0.7438953             -20.2424
        10        2.0000           -0.7320271             -19.9195
        11        2.0000           -0.7067078             -19.2305
        12        2.0000           -0.7007002             -19.0670
        13        2.0000           -0.6886231             -18.7384
        14        2.0000           -0.6768475             -18.4180
        15        2.0000           -0.6465496             -17.5935
        16        2.0000           -0.6239592             -16.9788 (HOMO)
        17                         -0.5201810             -14.1548 (LUMO)
        18                         -0.4232667             -11.5177
        19                         -0.2891877              -7.8692
        20                         -0.2582062              -7.0261
        21                         -0.1805450              -4.9129
        22                         -0.1458746              -3.9695
        23                         -0.1073634              -2.9215
        24                         -0.0489733              -1.3326
        25                          0.0078004               0.2123
        26                          0.0124893               0.3399
        27                          0.0358285               0.9749
       ...                                ...                  ...
        30                          0.3576863               9.7331
      -------------------------------------------------------------
                  HL-Gap            0.1037782 Eh            2.8239 eV

     #   Z          covCN         q      C6AA      α(0)
     1   6 C        3.688    -0.097    22.548     6.797
     2   7 N        3.776     0.135    18.943     6.464
     3   6 C        3.021     0.104    25.680     8.312
     4   7 N        1.864    -0.111    24.183     7.289
     5   6 C        3.102     0.151    24.617     8.130
     6   7 N        1.951    -0.133    24.652     7.363
     7   1 H        0.925     0.124     1.580     1.966
     8   1 H        0.925     0.141     1.456     1.887
     9   1 H        0.925     0.125     1.577     1.964
    10   1 H        0.859     0.259     0.848     1.442
    11   1 H        0.926     0.148     1.407     1.855
    12   1 H        0.926     0.154     1.362     1.825

Wiberg/Mayer (AO) data.
largest (>0.10) Wiberg bond orders for each atom

     #   Z sym  total        # sym  WBO       # sym  WBO       # sym  WBO
 ---------------------------------------------------------------------------
     1   6 C    3.875 --     9 H    0.974     7 H    0.969     8 H    0.965
                             2 N    0.913
     2   7 N    3.804 --     6 N    1.007     1 C    0.913     3 C    0.896
                            10 H    0.874
     3   6 C    3.931 --     4 N    1.901    11 H    0.944     2 N    0.896
                             6 N    0.138
     4   7 N    3.140 --     3 C    1.901     5 C    1.093
     5   6 C    3.931 --     6 N    1.807     4 N    1.093    12 H    0.940
     6   7 N    3.024 --     5 C    1.807     2 N    1.007     3 C    0.138
     7   1 H    0.985 --     1 C    0.969
     8   1 H    0.980 --     1 C    0.965
     9   1 H    0.984 --     1 C    0.974
    10   1 H    0.933 --     2 N    0.874
    11   1 H    0.978 --     3 C    0.944
    12   1 H    0.976 --     5 C    0.940
 ---------------------------------------------------------------------------

molecular dipole:
                 x           y           z       tot (Debye)
 q only:        0.467       1.155      -2.181
   full:        0.208       0.962      -2.034       5.744

           -------------------------------------------------
          | TOTAL ENERGY              -17.734694602011 Eh   |
          | GRADIENT NORM               0.000496577976 Eh/α |
          | HOMO-LUMO GAP               2.823948563170 eV   |
           -------------------------------------------------

 * finished run on 2024/12/20 at 07:09:02.832
