   * xtb version 6.7.1 (edcfbbe) compiled by 'conda@3ef47c1a292c' on 2024-11-25

   ID    Z sym.   atoms
    1    6 C      1-12, 14-19, 21-34
    2    8 O      13
    3    7 N      20
    4    1 H      35-94

          program call               : xtb C1036.xyz --opt --namespace C1036 --charge +1
          :  Hamiltonian                  GFN2-xTB          :
 * total energy  :  -105.7327454 Eh     change       -0.1344091E-08 Eh
 * total energy  :  -105.7426886 Eh     change       -0.9943223E-02 Eh
 * total energy  :  -105.7451478 Eh     change       -0.2459133E-02 Eh
 * total energy  :  -105.7454686 Eh     change       -0.3208776E-03 Eh
 * total energy  :  -105.7458416 Eh     change       -0.3729181E-03 Eh
 * total energy  :  -105.7460560 Eh     change       -0.2144466E-03 Eh
 * total energy  :  -105.7462713 Eh     change       -0.2153104E-03 Eh
 * total energy  :  -105.7464220 Eh     change       -0.1507222E-03 Eh
 * total energy  :  -105.7465272 Eh     change       -0.1051589E-03 Eh
 * total energy  :  -105.7466385 Eh     change       -0.1112742E-03 Eh
 * total energy  :  -105.7504422 Eh     change       -0.1466283E-04 Eh
 * total energy  :  -105.7504575 Eh     change       -0.1526234E-04 Eh
 * total energy  :  -105.7504712 Eh     change       -0.1372410E-04 Eh
 * total energy  :  -105.7504839 Eh     change       -0.1268632E-04 Eh
 * total energy  :  -105.7504976 Eh     change       -0.1368859E-04 Eh
 * total energy  :  -105.7505118 Eh     change       -0.1424926E-04 Eh
 * total energy  :  -105.7505231 Eh     change       -0.1124608E-04 Eh
 * total energy  :  -105.7505324 Eh     change       -0.9315793E-05 Eh
 * total energy  :  -105.7505360 Eh     change       -0.3597308E-05 Eh
   *** GEOMETRY OPTIMIZATION CONVERGED AFTER 94 ITERATIONS ***

 final structure:
================
94
 xtb: 6.7.1 (edcfbbe)
C            0.45989600360413        0.40052884362202        1.47105615290802
C           -0.12190714513833        1.80554437804225        1.37810627811875
C            0.51107193752450        2.64597387011026        0.26763837202556
C            0.30818704990093        2.10376196924541       -1.14909809211248
C           -1.15039439095906        1.93494080621276       -1.57945212350835
C           -1.99798730042672        3.20601246948706       -1.50238340810936
C           -1.47186385167097        4.37650253465380       -2.33563864159424
C           -1.36807016322616        4.11080202600959       -3.83866375534914
C           -2.68219409065242        3.72480681949106       -4.52293420997312
C           -3.84274811027679        4.69601221679047       -4.29557714463992
C           -3.56712822376884        6.09828525677829       -4.83641985779980
C           -4.70704039475686        7.08624123978749       -4.58194641609777
O           -4.83020725227705        7.41005100855316       -3.19702004043606
C           -5.52341974819365        6.64106297238053       -2.32612521504988
C           -6.57348429223578        5.80840637180858       -2.73080813192215
C           -7.32993161682288        5.08833101274858       -1.83554066830640
C           -7.06536132862622        5.19052747340647       -0.48131205717893
C           -6.03703075153522        6.00514926688911       -0.05753114591715
C           -5.23723124827369        6.71871868974228       -0.94932930679057
N           -4.15884086616033        7.56344162391432       -0.34728088691012
C           -4.86567907787161        8.71096193327951        0.31796284826028
C           -4.02848137768467        9.85380806657185        0.89678807272572
C           -3.30277974098563        9.56498522033902        2.22334841229857
C           -1.77554453947591        9.61320493685546        2.11872530283254
C           -1.21168705205832       11.02265252247660        1.92347041576608
C           -1.37448695073219       11.95341165172683        3.12672805015659
C           -0.74240213934124       11.45122803791520        4.42672692860536
C            0.74706883597207       11.11353308486173        4.33340420267423
C            1.64283650630364       12.26847430861532        3.88177731274243
C            1.59472107634917       13.50985253059154        4.77448132583151
C            1.99924351746562       13.27234494912932        6.23016303801539
C            3.43224061092248       12.77619439069687        6.38287699762193
C           -3.38806626363153        6.72852732411469        0.60231724592034
C           -3.18023479793622        8.08413862797008       -1.32048772100214
H            0.22714636344639       -0.18079771162983        0.58295398348121
H            0.04876740433038       -0.12049613177495        2.33241449115774
H            1.54090610970087        0.44373375425119        1.58168694618857
H           -1.20190565703801        1.74232289486846        1.22959534769546
H            0.04576784078601        2.31905170037404        2.32853928703528
H            0.11607044434170        3.66371758522321        0.32880683512338
H            1.58613991551022        2.70848640557500        0.45201733889417
H            0.81764995944622        2.77185001084257       -1.84699463677539
H            0.79690989781941        1.13203174540382       -1.22954219171898
H           -1.16347874739128        1.55502330644397       -2.60249945730195
H           -1.62390359720646        1.17660676379745       -0.95344083469826
H           -3.01418854242021        2.96104766018695       -1.82120369420671
H           -2.05796817707063        3.52506080973051       -0.45771275925820
H           -2.12961712406283        5.23678475315538       -2.17288615363830
H           -0.48285829770359        4.65975821203524       -1.97090236595404
H           -0.95848514299457        5.00395619358023       -4.31618500910489
H           -0.65118804009808        3.30744627827476       -4.00919735952018
H           -2.49516755108513        3.64327341477340       -5.59535266312864
H           -2.99308842279266        2.73953153307139       -4.17223332010786
H           -4.72778512793080        4.29229076192354       -4.79289812261782
H           -4.06456662469406        4.74226580492045       -3.22726346002560
H           -2.65788491955354        6.50168245058027       -4.38794928408221
H           -3.40909033665749        6.04498981078814       -5.91421153602375
H           -4.47280154139786        8.04581870298816       -5.05000027414527
H           -5.64466542979993        6.72152501971404       -5.00428364696739
H           -6.80640127917949        5.73534862647509       -3.77939400384009
H           -8.13044327548783        4.46149091094909       -2.19314302730043
H           -7.65360686644949        4.64919752225026        0.24054134248723
H           -5.87089720890719        6.07494510453916        1.00447989635425
H           -5.52479687316254        9.12628316736593       -0.44933802103389
H           -5.49430293984684        8.29850627352627        1.10856311358228
H           -3.32137761254056       10.22902932419810        0.15887771960777
H           -4.74635367370916       10.65959472547294        1.06005428634380
H           -3.60535929811742       10.30553001101879        2.96219084539703
H           -3.61154496008401        8.59702070110255        2.62008928447664
H           -1.35116834082398        9.18652811376153        3.02734753142848
H           -1.42819456849820        8.99501872946450        1.28420611761244
H           -0.14998561174718       10.93273217296556        1.68984414634693
H           -1.69139749108635       11.49378441435985        1.06156281595076
H           -0.93020378085180       12.91422112541306        2.86368209459162
H           -2.43607209297802       12.13679201615126        3.30898760923665
H           -0.88620622880488       12.21997012640137        5.18718191109980
H           -1.27643756626589       10.56294941400993        4.77388682025258
H            1.07691732140826       10.76944386238078        5.31504669997343
H            0.88961555368946       10.27878338602025        3.64238429958415
H            2.67021723472347       11.90275035982857        3.83699181480661
H            1.36790788472760       12.56678666677312        2.86746876941988
H            2.26632953602959       14.25775601013626        4.34561628772110
H            0.58789310357297       13.93251141099188        4.75541454653411
H            1.89560940459147       14.21848655544393        6.76653353759721
H            1.31549034169363       12.56048652345568        6.69635957132046
H            4.12235322641253       13.44512284203721        5.87331999422613
H            3.70700065119307       12.73847042611200        7.43429275065454
H            3.55019332765897       11.77803000210677        5.96849004237191
H           -3.06544493832927        5.81932605218462        0.09570978857568
H           -2.51225365565176        7.26976487534524        0.94901983757427
H           -3.97878955527502        6.45111552003114        1.46921902850734
H           -2.78012955994881        7.26630641417009       -1.91552040466228
H           -3.64312748282331        8.81109377600155       -1.98124244352079
H           -2.35755020606160        8.55559267352373       -0.78769419682422

          :  Hamiltonian                  GFN2-xTB          :
         :: total energy            -105.750536006619 Eh    ::
         :: gradient norm              0.000239966184 Eh/a0 ::
         :: HOMO-LUMO gap              2.788792702137 eV    ::
         :: SCC energy              -107.312200028996 Eh    ::
         :: -> dispersion             -0.089139393325 Eh    ::
         :: repulsion energy           1.561664022377 Eh    ::

    * Orbital Energies and Occupations

         #    Occupation            Energy/Eh            Energy/eV
      -------------------------------------------------------------
         1        2.0000           -0.8457868             -23.0150
       ...           ...                  ...                  ...
        87        2.0000           -0.5064585             -13.7814
        88        2.0000           -0.5054301             -13.7535
        89        2.0000           -0.5026047             -13.6766
        90        2.0000           -0.5009791             -13.6323
        91        2.0000           -0.4953535             -13.4793
        92        2.0000           -0.4918792             -13.3847
        93        2.0000           -0.4888251             -13.3016
        94        2.0000           -0.4880944             -13.2817
        95        2.0000           -0.4841304             -13.1739
        96        2.0000           -0.4825543             -13.1310
        97        2.0000           -0.4735372             -12.8856
        98        2.0000           -0.4697965             -12.7838
        99        2.0000           -0.4675378             -12.7224 (HOMO)
       100                         -0.3650515              -9.9336 (LUMO)
       101                         -0.3506734              -9.5423
       102                         -0.2310671              -6.2877
       103                         -0.2182572              -5.9391
       104                         -0.1549614              -4.2167
       105                         -0.1271026              -3.4586
       106                         -0.1196287              -3.2553
       107                         -0.1130662              -3.0767
       108                         -0.0626599              -1.7051
       109                         -0.0552107              -1.5024
       110                         -0.0386221              -1.0510
       ...                                ...                  ...
       196                          0.5248184              14.2810
      -------------------------------------------------------------
                  HL-Gap            0.1024862 Eh            2.7888 eV

     #   Z          covCN         q      C6AA      α(0)
     1   6 C        3.752    -0.104    22.550     6.772
     2   6 C        3.799    -0.052    21.503     6.602
     3   6 C        3.800    -0.056    21.589     6.615
     4   6 C        3.800    -0.059    21.646     6.624
     5   6 C        3.800    -0.059    21.628     6.622
     6   6 C        3.799    -0.054    21.545     6.609
     7   6 C        3.800    -0.051    21.489     6.600
     8   6 C        3.800    -0.061    21.673     6.628
     9   6 C        3.801    -0.062    21.694     6.631
    10   6 C        3.800    -0.054    21.552     6.610
    11   6 C        3.800    -0.071    21.858     6.657
    12   6 C        3.683     0.067    19.651     6.348
    13   8 O        1.703    -0.277    18.593     5.822
    14   6 C        2.849     0.149    24.761     8.155
    15   6 C        2.923    -0.054    29.337     8.882
    16   6 C        2.918    -0.019    28.492     8.753
    17   6 C        2.918    -0.033    28.811     8.802
    18   6 C        2.924    -0.043    29.066     8.841
    19   6 C        2.929    -0.001    28.048     8.685
    20   7 N        3.622     0.128    19.051     6.483
    21   6 C        3.761    -0.032    21.189     6.562
    22   6 C        3.799    -0.076    21.946     6.670
    23   6 C        3.799    -0.071    21.863     6.657
    24   6 C        3.800    -0.059    21.632     6.622
    25   6 C        3.800    -0.061    21.669     6.628
    26   6 C        3.800    -0.060    21.649     6.625
    27   6 C        3.800    -0.059    21.631     6.622
    28   6 C        3.800    -0.057    21.605     6.618
    29   6 C        3.800    -0.058    21.611     6.619
    30   6 C        3.801    -0.058    21.616     6.620
    31   6 C        3.799    -0.053    21.521     6.605
    32   6 C        3.751    -0.102    22.519     6.767
    33   6 C        3.725    -0.086    22.252     6.735
    34   6 C        3.722    -0.085    22.238     6.734
    35   1 H        0.925     0.037     2.485     2.465
    36   1 H        0.925     0.035     2.516     2.480
    37   1 H        0.925     0.038     2.477     2.461
    38   1 H        0.924     0.026     2.643     2.542
    39   1 H        0.924     0.026     2.650     2.546
    40   1 H        0.924     0.017     2.774     2.605
    41   1 H        0.924     0.034     2.534     2.489
    42   1 H        0.924     0.030     2.593     2.518
    43   1 H        0.924     0.040     2.447     2.446
    44   1 H        0.924     0.034     2.532     2.488
    45   1 H        0.924     0.037     2.495     2.470
    46   1 H        0.924     0.025     2.666     2.553
    47   1 H        0.924     0.019     2.751     2.594
    48   1 H        0.924     0.001     3.046     2.729
    49   1 H        0.924     0.035     2.513     2.479
    50   1 H        0.924     0.030     2.593     2.518
    51   1 H        0.925     0.046     2.370     2.407
    52   1 H        0.924     0.040     2.455     2.451
    53   1 H        0.924     0.042     2.416     2.431
    54   1 H        0.924     0.033     2.543     2.494
    55   1 H        0.924     0.024     2.668     2.554
    56   1 H        0.924     0.049     2.336     2.390
    57   1 H        0.924     0.055     2.255     2.348
    58   1 H        0.924     0.065     2.143     2.289
    59   1 H        0.924     0.047     2.360     2.403
    60   1 H        0.926     0.070     2.088     2.260
    61   1 H        0.926     0.073     2.056     2.242
    62   1 H        0.926     0.069     2.092     2.262
    63   1 H        0.926     0.055     2.257     2.349
    64   1 H        0.924     0.076     2.024     2.225
    65   1 H        0.924     0.079     1.984     2.203
    66   1 H        0.925     0.063     2.161     2.299
    67   1 H        0.924     0.068     2.108     2.271
    68   1 H        0.925     0.060     2.196     2.317
    69   1 H        0.924     0.033     2.540     2.492
    70   1 H        0.925     0.049     2.329     2.386
    71   1 H        0.924     0.010     2.889     2.658
    72   1 H        0.924     0.042     2.416     2.431
    73   1 H        0.924     0.025     2.656     2.549
    74   1 H        0.924     0.042     2.424     2.435
    75   1 H        0.924     0.026     2.641     2.541
    76   1 H        0.924     0.040     2.452     2.449
    77   1 H        0.924     0.023     2.682     2.561
    78   1 H        0.924     0.036     2.497     2.471
    79   1 H        0.924     0.022     2.700     2.570
    80   1 H        0.924     0.035     2.522     2.483
    81   1 H        0.924     0.026     2.649     2.545
    82   1 H        0.924     0.031     2.566     2.505
    83   1 H        0.924     0.028     2.617     2.530
    84   1 H        0.924     0.030     2.588     2.516
    85   1 H        0.924     0.029     2.594     2.519
    86   1 H        0.925     0.035     2.510     2.478
    87   1 H        0.925     0.034     2.529     2.487
    88   1 H        0.925     0.033     2.546     2.495
    89   1 H        0.925     0.091     1.867     2.136
    90   1 H        0.925     0.101     1.772     2.082
    91   1 H        0.925     0.089     1.893     2.152
    92   1 H        0.925     0.096     1.821     2.110
    93   1 H        0.925     0.106     1.730     2.057
    94   1 H        0.925     0.089     1.890     2.150

Wiberg/Mayer (AO) data.
largest (>0.10) Wiberg bond orders for each atom

     #   Z sym  total        # sym  WBO       # sym  WBO       # sym  WBO
 ---------------------------------------------------------------------------
     1   6 C    3.996 --     2 C    1.020    37 H    0.987    36 H    0.987
                            35 H    0.986
     2   6 C    3.998 --     1 C    1.020     3 C    1.008    39 H    0.979
                            38 H    0.976
     3   6 C    3.998 --     4 C    1.008     2 C    1.008    41 H    0.977
                            40 H    0.976
     4   6 C    3.997 --     5 C    1.008     3 C    1.008    42 H    0.975
                            43 H    0.975
     5   6 C    3.996 --     4 C    1.008     6 C    1.007    44 H    0.975
                            45 H    0.974
     6   6 C    3.998 --     5 C    1.007     7 C    1.007    46 H    0.976
                            47 H    0.974
     7   6 C    3.998 --     8 C    1.008     6 C    1.007    49 H    0.975
                            48 H    0.967
     8   6 C    3.996 --     7 C    1.008     9 C    1.008    50 H    0.975
                            51 H    0.973
     9   6 C    3.994 --     8 C    1.008    10 C    1.005    52 H    0.977
                            53 H    0.975
    10   6 C    3.997 --    11 C    1.009     9 C    1.005    54 H    0.977
                            55 H    0.971
    11   6 C    3.990 --    10 C    1.009    12 C    0.996    56 H    0.971
                            57 H    0.970
    12   6 C    3.925 --    11 C    0.996    58 H    0.968    59 H    0.962
                            13 O    0.940
    13   8 O    2.246 --    14 C    1.090    12 C    0.940
    14   6 C    3.946 --    15 C    1.340    19 C    1.338    13 O    1.090
    15   6 C    3.987 --    16 C    1.475    14 C    1.340    60 H    0.955
                            18 C    0.108
    16   6 C    3.986 --    15 C    1.475    17 C    1.408    61 H    0.966
    17   6 C    3.986 --    18 C    1.455    16 C    1.408    62 H    0.967
    18   6 C    3.988 --    17 C    1.455    19 C    1.403    63 H    0.958
                            15 C    0.108
    19   6 C    3.910 --    18 C    1.403    14 C    1.338    20 N    0.912
    20   7 N    3.807 --    34 C    0.959    33 C    0.956    21 C    0.918
                            19 C    0.912
    21   6 C    3.933 --    22 C    1.006    64 H    0.969    65 H    0.966
                            20 N    0.918
    22   6 C    3.982 --    21 C    1.006    23 C    1.001    67 H    0.967
                            66 H    0.965
    23   6 C    3.992 --    24 C    1.008    22 C    1.001    69 H    0.975
                            68 H    0.972
    24   6 C    3.995 --    23 C    1.008    25 C    1.007    70 H    0.972
                            71 H    0.966
    25   6 C    3.996 --    26 C    1.007    24 C    1.007    73 H    0.975
                            72 H    0.974
    26   6 C    3.996 --    27 C    1.008    25 C    1.007    75 H    0.974
                            74 H    0.974
    27   6 C    3.997 --    28 C    1.008    26 C    1.008    77 H    0.975
                            76 H    0.974
    28   6 C    3.997 --    29 C    1.008    27 C    1.008    79 H    0.975
                            78 H    0.974
    29   6 C    3.997 --    28 C    1.008    30 C    1.008    81 H    0.975
                            80 H    0.975
    30   6 C    3.997 --    31 C    1.008    29 C    1.008    82 H    0.977
                            83 H    0.976
    31   6 C    3.998 --    32 C    1.020    30 C    1.008    84 H    0.978
                            85 H    0.976
    32   6 C    3.997 --    31 C    1.020    86 H    0.987    87 H    0.987
                            88 H    0.986
    33   6 C    3.930 --    89 H    0.974    91 H    0.970    90 H    0.963
                            20 N    0.956
    34   6 C    3.926 --    93 H    0.971    94 H    0.967    92 H    0.967
                            20 N    0.959
    35   1 H    0.999 --     1 C    0.986
    36   1 H    0.999 --     1 C    0.987
    37   1 H    0.999 --     1 C    0.987
    38   1 H    0.999 --     2 C    0.976
    39   1 H    0.999 --     2 C    0.979
    40   1 H    1.000 --     3 C    0.976
    41   1 H    0.999 --     3 C    0.977
    42   1 H    0.999 --     4 C    0.975
    43   1 H    0.998 --     4 C    0.975
    44   1 H    0.999 --     5 C    0.975
    45   1 H    0.999 --     5 C    0.974
    46   1 H    0.999 --     6 C    0.976
    47   1 H    1.000 --     6 C    0.974
    48   1 H    1.000 --     7 C    0.967
    49   1 H    0.999 --     7 C    0.975
    50   1 H    0.999 --     8 C    0.975
    51   1 H    0.998 --     8 C    0.973
    52   1 H    0.998 --     9 C    0.977
    53   1 H    0.998 --     9 C    0.975
    54   1 H    0.999 --    10 C    0.977
    55   1 H    0.999 --    10 C    0.971
    56   1 H    0.998 --    11 C    0.971
    57   1 H    0.995 --    11 C    0.970
    58   1 H    0.995 --    12 C    0.968
    59   1 H    0.998 --    12 C    0.962
    60   1 H    0.995 --    15 C    0.955
    61   1 H    0.994 --    16 C    0.966
    62   1 H    0.995 --    17 C    0.967
    63   1 H    0.996 --    18 C    0.958
    64   1 H    0.994 --    21 C    0.969
    65   1 H    0.994 --    21 C    0.966
    66   1 H    0.996 --    22 C    0.965
    67   1 H    0.995 --    22 C    0.967
    68   1 H    0.996 --    23 C    0.972
    69   1 H    0.999 --    23 C    0.975
    70   1 H    0.997 --    24 C    0.972
    71   1 H    1.000 --    24 C    0.966
    72   1 H    0.998 --    25 C    0.974
    73   1 H    0.999 --    25 C    0.975
    74   1 H    0.998 --    26 C    0.974
    75   1 H    0.999 --    26 C    0.974
    76   1 H    0.998 --    27 C    0.974
    77   1 H    0.999 --    27 C    0.975
    78   1 H    0.999 --    28 C    0.974
    79   1 H    1.000 --    28 C    0.975
    80   1 H    0.999 --    29 C    0.975
    81   1 H    0.999 --    29 C    0.975
    82   1 H    0.999 --    30 C    0.977
    83   1 H    0.999 --    30 C    0.976
    84   1 H    0.999 --    31 C    0.978
    85   1 H    0.999 --    31 C    0.976
    86   1 H    0.999 --    32 C    0.987
    87   1 H    0.999 --    32 C    0.987
    88   1 H    0.999 --    32 C    0.986
    89   1 H    0.992 --    33 C    0.974
    90   1 H    0.989 --    33 C    0.963
    91   1 H    0.992 --    33 C    0.970
    92   1 H    0.991 --    34 C    0.967
    93   1 H    0.989 --    34 C    0.971
    94   1 H    0.991 --    34 C    0.967
 ---------------------------------------------------------------------------

molecular dipole:
                 x           y           z       tot (Debye)
 q only:       -7.609      13.703      -1.331
   full:       -7.787      13.676      -1.454      40.171

           -------------------------------------------------
          | TOTAL ENERGY             -105.750536006619 Eh   |
          | GRADIENT NORM               0.000239966184 Eh/α |
          | HOMO-LUMO GAP               2.788792702137 eV   |
           -------------------------------------------------

 * finished run on 2024/12/20 at 07:09:16.904
