   * xtb version 6.7.1 (edcfbbe) compiled by 'conda@3ef47c1a292c' on 2024-11-25

   ID    Z sym.   atoms
    1    6 C      1, 2, 4-18
    2    7 N      3
    3    1 H      19-40

          program call               : xtb C1030.xyz --opt --namespace C1030 --charge +1
          :  Hamiltonian                  GFN2-xTB          :
 * total energy  :   -50.1096619 Eh     change       -0.4745502E-09 Eh
 * total energy  :   -50.1187096 Eh     change       -0.9047690E-02 Eh
 * total energy  :   -50.1214229 Eh     change       -0.2713325E-02 Eh
 * total energy  :   -50.1217959 Eh     change       -0.3729614E-03 Eh
 * total energy  :   -50.1219494 Eh     change       -0.1535122E-03 Eh
 * total energy  :   -50.1220353 Eh     change       -0.8591971E-04 Eh
 * total energy  :   -50.1221609 Eh     change       -0.1255603E-03 Eh
 * total energy  :   -50.1222148 Eh     change       -0.5389261E-04 Eh
 * total energy  :   -50.1222593 Eh     change       -0.4451460E-04 Eh
 * total energy  :   -50.1222869 Eh     change       -0.2757481E-04 Eh
 * total energy  :   -50.1223925 Eh     change       -0.2731000E-04 Eh
 * total energy  :   -50.1224181 Eh     change       -0.2551753E-04 Eh
 * total energy  :   -50.1224465 Eh     change       -0.2847984E-04 Eh
 * total energy  :   -50.1224787 Eh     change       -0.3214022E-04 Eh
 * total energy  :   -50.1225098 Eh     change       -0.3108113E-04 Eh
 * total energy  :   -50.1225360 Eh     change       -0.2626224E-04 Eh
 * total energy  :   -50.1225576 Eh     change       -0.2161977E-04 Eh
 * total energy  :   -50.1225762 Eh     change       -0.1853290E-04 Eh
 * total energy  :   -50.1225809 Eh     change       -0.4725032E-05 Eh
   *** GEOMETRY OPTIMIZATION CONVERGED AFTER 22 ITERATIONS ***

 final structure:
================
40
 xtb: 6.7.1 (edcfbbe)
C            1.03446761342947       -0.06505891042026       -0.06856442210613
C            0.50868241163376        1.30623746163127       -0.47593304918079
N            0.89221313496325        1.67948741610455       -1.91320810001002
C            0.39752156050213        0.74533517590628       -2.98332912512203
C           -1.08711998835391        0.51757462746200       -3.12523886555865
C           -1.95105559251893        1.49779688480715       -3.60280151866763
C           -3.29802349217004        1.22689035601395       -3.76775380238525
C           -3.79671779806218       -0.03487371376139       -3.49555206186099
C           -2.93502165055136       -1.03494791706049       -3.08087338770387
C           -1.59209047460886       -0.75933460689701       -2.89869127533430
C            0.43168673598869        3.05195933955058       -2.18897680834598
C            2.36764499535066        1.68837515275052       -2.01959684683214
C           -0.96956119277761        1.46799657278732       -0.17462398186307
C           -1.45050464919310        2.71835712931822        0.21212760540042
C           -2.78571296127184        2.90240383822414        0.52174507555619
C           -3.66443857754472        1.83429964353363        0.46779493431431
C           -3.18813296147416        0.57858925038077        0.13652154857898
C           -1.85189664383541        0.39427865333029       -0.17095924228795
H            0.68921233551750       -0.85833076155244       -0.72324888598046
H            0.66589432435484       -0.27832798032601        0.93202928751589
H            2.11949638936483       -0.08888258428310       -0.02271370298977
H            1.03272595886674        2.05513039739679        0.13017348456032
H            0.77865520301734        1.14567151095149       -3.92782768873971
H            0.87805983528766       -0.21987736927382       -2.81687906632058
H           -1.58413403881439        2.47248356387167       -3.88410162614081
H           -3.95464989083023        2.00204153144556       -4.13052961563286
H           -4.84577619077047       -0.24384874715567       -3.63214495703342
H           -3.30512619976150       -2.03264273501525       -2.90409631514419
H           -0.92747203580688       -1.55684599974507       -2.59673839359816
H            0.92185398421441        3.74976121950329       -1.51190401736641
H            0.68466359142609        3.32851827601392       -3.21112809486067
H           -0.64409212738330        3.12160526943557       -2.05073819160257
H            2.80017360573237        2.29730615016814       -1.22764859624900
H            2.77069388986519        0.68147248731824       -1.95020040084469
H            2.66588871169956        2.10891499670652       -2.97868970607383
H           -0.77613779278935        3.55801886089312        0.30268865020054
H           -3.13445849964756        3.87933194519366        0.81773855091888
H           -4.70616194595938        1.97571326127707        0.70772045634675
H           -3.85483405628576       -0.26917812351987        0.12735987961672
H           -1.50829552080516       -0.60145152296510       -0.39097772717358

          :  Hamiltonian                  GFN2-xTB          :
         :: total energy             -50.122580900013 Eh    ::
         :: gradient norm              0.000265649718 Eh/a0 ::
         :: HOMO-LUMO gap              4.337731396239 eV    ::
         :: SCC energy               -50.999056047043 Eh    ::
         :: -> dispersion             -0.044941660494 Eh    ::
         :: repulsion energy           0.876475147030 Eh    ::

    * Orbital Energies and Occupations

         #    Occupation            Energy/Eh            Energy/eV
      -------------------------------------------------------------
         1        2.0000           -0.8502072             -23.1353
       ...           ...                  ...                  ...
        35        2.0000           -0.5956433             -16.2083
        36        2.0000           -0.5937264             -16.1561
        37        2.0000           -0.5931331             -16.1400
        38        2.0000           -0.5867388             -15.9660
        39        2.0000           -0.5843577             -15.9012
        40        2.0000           -0.5437664             -14.7966
        41        2.0000           -0.5428248             -14.7710
        42        2.0000           -0.5390591             -14.6685
        43        2.0000           -0.5376593             -14.6305
        44        2.0000           -0.5286081             -14.3842
        45        2.0000           -0.5244209             -14.2702
        46        2.0000           -0.5198548             -14.1460
        47        2.0000           -0.5157263             -14.0336 (HOMO)
        48                         -0.3563176              -9.6959 (LUMO)
        49                         -0.3473164              -9.4510
        50                         -0.3433633              -9.3434
        51                         -0.3375443              -9.1850
        52                         -0.2409187              -6.5557
        53                         -0.2195283              -5.9737
        54                         -0.1977104              -5.3800
        55                         -0.1548421              -4.2135
        56                         -0.1446898              -3.9372
        57                         -0.1369037              -3.7253
        58                         -0.0589851              -1.6051
       ...                                ...                  ...
        94                          0.5466451              14.8750
      -------------------------------------------------------------
                  HL-Gap            0.1594087 Eh            4.3377 eV

     #   Z          covCN         q      C6AA      α(0)
     1   6 C        3.753    -0.125    22.958     6.833
     2   6 C        3.798     0.013    20.356     6.424
     3   7 N        3.615     0.114    19.275     6.521
     4   6 C        3.765    -0.035    21.238     6.569
     5   6 C        2.966    -0.001    28.057     8.688
     6   6 C        2.923    -0.041    29.016     8.834
     7   6 C        2.920    -0.024    28.597     8.769
     8   6 C        2.920    -0.020    28.503     8.755
     9   6 C        2.919    -0.022    28.564     8.764
    10   6 C        2.926    -0.032    28.804     8.801
    11   6 C        3.722    -0.087    22.286     6.742
    12   6 C        3.731    -0.090    22.313     6.743
    13   6 C        2.967    -0.008    28.225     8.714
    14   6 C        2.926    -0.043    29.062     8.841
    15   6 C        2.919    -0.025    28.616     8.772
    16   6 C        2.920    -0.020    28.501     8.755
    17   6 C        2.920    -0.024    28.604     8.771
    18   6 C        2.924    -0.034    28.853     8.809
    19   1 H        0.925     0.062     2.170     2.304
    20   1 H        0.925     0.083     1.950     2.184
    21   1 H        0.925     0.060     2.202     2.320
    22   1 H        0.924     0.071     2.073     2.251
    23   1 H        0.924     0.079     1.985     2.203
    24   1 H        0.924     0.083     1.948     2.183
    25   1 H        0.926     0.038     2.471     2.458
    26   1 H        0.926     0.055     2.258     2.350
    27   1 H        0.926     0.059     2.205     2.322
    28   1 H        0.926     0.057     2.231     2.336
    29   1 H        0.926     0.037     2.486     2.466
    30   1 H        0.925     0.088     1.896     2.153
    31   1 H        0.925     0.089     1.890     2.150
    32   1 H        0.925     0.105     1.738     2.061
    33   1 H        0.925     0.092     1.857     2.131
    34   1 H        0.925     0.097     1.814     2.106
    35   1 H        0.925     0.093     1.853     2.129
    36   1 H        0.926     0.036     2.505     2.475
    37   1 H        0.926     0.056     2.247     2.344
    38   1 H        0.926     0.059     2.211     2.325
    39   1 H        0.926     0.053     2.277     2.360
    40   1 H        0.926     0.049     2.326     2.385

Wiberg/Mayer (AO) data.
largest (>0.10) Wiberg bond orders for each atom

     #   Z sym  total        # sym  WBO       # sym  WBO       # sym  WBO
 ---------------------------------------------------------------------------
     1   6 C    3.985 --     2 C    1.013    21 H    0.980    19 H    0.976
                            20 H    0.972
     2   6 C    3.928 --     1 C    1.013    13 C    0.992    22 H    0.956
                             3 N    0.879
     3   7 N    3.799 --    11 C    0.964    12 C    0.963     4 C    0.918
                             2 C    0.879
     4   6 C    3.931 --     5 C    1.004    24 H    0.963    23 H    0.959
                             3 N    0.918
     5   6 C    3.979 --     6 C    1.410    10 C    1.406     4 C    1.004
                             8 C    0.109
     6   6 C    3.992 --     7 C    1.444     5 C    1.410    25 H    0.966
                             9 C    0.109
     7   6 C    3.990 --     6 C    1.444     8 C    1.437    26 H    0.969
                            10 C    0.109
     8   6 C    3.989 --     9 C    1.438     7 C    1.437    27 H    0.969
                             5 C    0.109
     9   6 C    3.990 --    10 C    1.444     8 C    1.438    28 H    0.969
                             6 C    0.109
    10   6 C    3.991 --     9 C    1.444     5 C    1.406    29 H    0.966
                             7 C    0.109
    11   6 C    3.931 --    30 H    0.975    31 H    0.974     3 N    0.964
                            32 H    0.963
    12   6 C    3.932 --    33 H    0.975    35 H    0.974    34 H    0.973
                             3 N    0.963
    13   6 C    3.979 --    18 C    1.414    14 C    1.402     2 C    0.992
                            16 C    0.110
    14   6 C    3.991 --    15 C    1.447    13 C    1.402    36 H    0.967
                            17 C    0.109
    15   6 C    3.990 --    14 C    1.447    16 C    1.435    37 H    0.969
                            18 C    0.109
    16   6 C    3.989 --    17 C    1.440    15 C    1.435    38 H    0.969
                            13 C    0.110
    17   6 C    3.991 --    18 C    1.441    16 C    1.440    39 H    0.969
                            14 C    0.109
    18   6 C    3.991 --    17 C    1.441    13 C    1.414    40 H    0.961
                            15 C    0.109
    19   1 H    0.996 --     1 C    0.976
    20   1 H    0.993 --     1 C    0.972
    21   1 H    0.996 --     1 C    0.980
    22   1 H    0.995 --     2 C    0.956
    23   1 H    0.994 --     4 C    0.959
    24   1 H    0.993 --     4 C    0.963
    25   1 H    0.999 --     6 C    0.966
    26   1 H    0.997 --     7 C    0.969
    27   1 H    0.996 --     8 C    0.969
    28   1 H    0.996 --     9 C    0.969
    29   1 H    0.999 --    10 C    0.966
    30   1 H    0.992 --    11 C    0.975
    31   1 H    0.992 --    11 C    0.974
    32   1 H    0.989 --    11 C    0.963
    33   1 H    0.991 --    12 C    0.975
    34   1 H    0.991 --    12 C    0.973
    35   1 H    0.991 --    12 C    0.974
    36   1 H    0.999 --    14 C    0.967
    37   1 H    0.996 --    15 C    0.969
    38   1 H    0.996 --    16 C    0.969
    39   1 H    0.997 --    17 C    0.969
    40   1 H    0.998 --    18 C    0.961
 ---------------------------------------------------------------------------

molecular dipole:
                 x           y           z       tot (Debye)
 q only:        0.279       2.769      -3.368
   full:        0.441       2.822      -3.401      11.288

           -------------------------------------------------
          | TOTAL ENERGY              -50.122580900013 Eh   |
          | GRADIENT NORM               0.000265649718 Eh/α |
          | HOMO-LUMO GAP               4.337731396239 eV   |
           -------------------------------------------------

 * finished run on 2024/12/20 at 07:09:02.699
