   * xtb version 6.7.1 (edcfbbe) compiled by 'conda@3ef47c1a292c' on 2024-11-25

   ID    Z sym.   atoms
    1    9 F      1, 13-15
    2    6 C      2-4, 7, 9-12
    3    7 N      5, 6, 8
    4    1 H      16-27

          program call               : xtb C1032.xyz --opt --namespace C1032 --charge +1
          :  Hamiltonian                  GFN2-xTB          :
 * total energy  :   -50.5607865 Eh     change       -0.4960299E-10 Eh
 * total energy  :   -50.5674058 Eh     change       -0.6619292E-02 Eh
 * total energy  :   -50.5688131 Eh     change       -0.1407291E-02 Eh
 * total energy  :   -50.5689453 Eh     change       -0.1321644E-03 Eh
 * total energy  :   -50.5690647 Eh     change       -0.1194559E-03 Eh
 * total energy  :   -50.5690910 Eh     change       -0.2625124E-04 Eh
 * total energy  :   -50.5691278 Eh     change       -0.3676994E-04 Eh
 * total energy  :   -50.5691445 Eh     change       -0.1675561E-04 Eh
 * total energy  :   -50.5691575 Eh     change       -0.1293569E-04 Eh
 * total energy  :   -50.5691717 Eh     change       -0.1427506E-04 Eh
 * total energy  :   -50.5691832 Eh     change       -0.1143660E-04 Eh
 * total energy  :   -50.5691932 Eh     change       -0.1006617E-04 Eh
 * total energy  :   -50.5692032 Eh     change       -0.9934127E-05 Eh
 * total energy  :   -50.5692121 Eh     change       -0.8970647E-05 Eh
 * total energy  :   -50.5692201 Eh     change       -0.7987143E-05 Eh
 * total energy  :   -50.5692277 Eh     change       -0.7537011E-05 Eh
 * total energy  :   -50.5692346 Eh     change       -0.6974440E-05 Eh
 * total energy  :   -50.5692402 Eh     change       -0.5549747E-05 Eh
 * total energy  :   -50.5692443 Eh     change       -0.4142839E-05 Eh
   *** GEOMETRY OPTIMIZATION CONVERGED AFTER 19 ITERATIONS ***

 final structure:
================
27
 xtb: 6.7.1 (edcfbbe)
F            1.19082110191443        0.66971989198592       -0.09901836501967
C            2.42721261868697        0.08712076925043        0.08395850068829
C            2.84746754515015       -0.65298444836522       -1.18594632830392
C            2.40472767980348        0.08499449137296       -2.45550729523819
N            2.83923407725600        1.46179677063631       -2.44082054778203
N            4.13454808959318        1.74823942320282       -2.38370737934248
C            4.21764024583114        3.04192944458851       -2.35728007698992
N            2.97370871934280        3.60822609949387       -2.39495098989186
C            2.10626597336663        2.57561406211059       -2.44725086880282
C            0.64258039784614        2.66562078640495       -2.49475369754130
C            2.63973364913669        5.01107847150353       -2.38292543097874
C            5.51302966967515        3.80972895689399       -2.28516494563182
F            5.62765424665603        4.63263427108665       -3.33247069318626
F            5.53850110449511        4.57054652387280       -1.18430028524592
F            6.55301533390550        3.00147655778209       -2.26359956203455
H            3.11431974592728        0.90285099082129        0.33110632565849
H            2.34285839933554       -0.58969287071976        0.93595598127350
H            3.92995829679465       -0.77211369458889       -1.17441364238238
H            2.38896526120138       -1.64110463519198       -1.21433658570496
H            2.84793997060895       -0.40341995916827       -3.32613324209175
H            1.31780468204732        0.07223400047822       -2.53862518289453
H            0.25541710035677        2.17206677496214       -3.38628927421918
H            0.20908890765284        2.16396168827418       -1.62722473876882
H            0.31325236192548        3.70000369148816       -2.49853478434281
H            2.10423790648413        5.27429999778785       -3.29600464011063
H            2.01491465702136        5.23726478355889       -1.51804637380053
H            3.54412225798570        5.61158716047824       -2.32552587731519

          :  Hamiltonian                  GFN2-xTB          :
         :: total energy             -50.569244332376 Eh    ::
         :: gradient norm              0.000201980075 Eh/a0 ::
         :: HOMO-LUMO gap              3.939340168398 eV    ::
         :: SCC energy               -51.020276297658 Eh    ::
         :: -> dispersion             -0.022222677433 Eh    ::
         :: repulsion energy           0.451031965283 Eh    ::

    * Orbital Energies and Occupations

         #    Occupation            Energy/Eh            Energy/eV
      -------------------------------------------------------------
         1        2.0000           -1.0284273             -27.9849
       ...           ...                  ...                  ...
        31        2.0000           -0.6764865             -18.4081
        32        2.0000           -0.6758060             -18.3896
        33        2.0000           -0.6656499             -18.1133
        34        2.0000           -0.6605252             -17.9738
        35        2.0000           -0.6576797             -17.8964
        36        2.0000           -0.6520718             -17.7438
        37        2.0000           -0.6423337             -17.4788
        38        2.0000           -0.6324501             -17.2098
        39        2.0000           -0.6209400             -16.8966
        40        2.0000           -0.6189454             -16.8424
        41        2.0000           -0.6152028             -16.7405
        42        2.0000           -0.5951646             -16.1953
        43        2.0000           -0.5843841             -15.9019 (HOMO)
        44                         -0.4396160             -11.9626 (LUMO)
        45                         -0.4370520             -11.8928
        46                         -0.2285081              -6.2180
        47                         -0.1927542              -5.2451
        48                         -0.1373694              -3.7380
        49                         -0.1186870              -3.2296
        50                         -0.1080479              -2.9401
        51                         -0.0860516              -2.3416
        52                         -0.0711134              -1.9351
        53                         -0.0550077              -1.4968
        54                         -0.0541700              -1.4740
       ...                                ...                  ...
        72                          0.3185505               8.6682
      -------------------------------------------------------------
                  HL-Gap            0.1447681 Eh            3.9393 eV

     #   Z          covCN         q      C6AA      α(0)
     1   9 F        0.784    -0.262    11.899     4.075
     2   6 C        3.608     0.098    19.461     6.373
     3   6 C        3.802    -0.081    22.047     6.685
     4   6 C        3.742    -0.028    21.154     6.562
     5   7 N        3.060     0.137    18.905     6.458
     6   7 N        2.027    -0.151    24.973     7.412
     7   6 C        3.180     0.108    25.227     8.200
     8   7 N        2.848     0.027    20.781     6.770
     9   6 C        3.078     0.122    25.246     8.238
    10   6 C        3.754    -0.150    23.460     6.906
    11   6 C        3.689    -0.081    22.253     6.752
    12   6 C        3.331     0.497    17.207     6.581
    13   9 F        0.791    -0.178    11.008     3.919
    14   9 F        0.791    -0.179    11.025     3.922
    15   9 F        0.791    -0.150    10.733     3.870
    16   1 H        0.924     0.056     2.244     2.342
    17   1 H        0.924     0.089     1.885     2.147
    18   1 H        0.925     0.091     1.873     2.140
    19   1 H        0.925     0.098     1.805     2.101
    20   1 H        0.924     0.113     1.669     2.020
    21   1 H        0.925     0.109     1.709     2.045
    22   1 H        0.925     0.119     1.621     1.991
    23   1 H        0.924     0.144     1.434     1.873
    24   1 H        0.925     0.110     1.694     2.036
    25   1 H        0.924     0.113     1.672     2.022
    26   1 H        0.924     0.114     1.662     2.016
    27   1 H        0.925     0.116     1.644     2.005

Wiberg/Mayer (AO) data.
largest (>0.10) Wiberg bond orders for each atom

     #   Z sym  total        # sym  WBO       # sym  WBO       # sym  WBO
 ---------------------------------------------------------------------------
     1   9 F    0.993 --     2 C    0.931
     2   6 C    3.893 --     3 C    1.004    16 H    0.973    17 H    0.968
                             1 F    0.931
     3   6 C    3.981 --     2 C    1.004     4 C    0.988    18 H    0.970
                            19 H    0.965
     4   6 C    3.925 --     3 C    0.988     5 N    0.961    21 H    0.961
                            20 H    0.950
     5   7 N    3.727 --     9 C    1.357     6 N    1.202     4 C    0.961
     6   7 N    3.030 --     7 C    1.572     5 N    1.202
     7   6 C    3.966 --     6 N    1.572     8 N    1.214    12 C    0.940
     8   7 N    3.690 --     9 C    1.288     7 C    1.214    11 C    0.980
     9   6 C    3.946 --     5 N    1.357     8 N    1.288    10 C    1.061
    10   6 C    3.963 --     9 C    1.061    24 H    0.967    22 H    0.938
                            23 H    0.926
    11   6 C    3.917 --     8 N    0.980    27 H    0.970    26 H    0.959
                            25 H    0.959
    12   6 C    3.873 --    15 F    0.993    13 F    0.956    14 F    0.953
                             7 C    0.940
    13   9 F    1.097 --    12 C    0.956
    14   9 F    1.094 --    12 C    0.953
    15   9 F    1.128 --    12 C    0.993
    16   1 H    0.997 --     2 C    0.973
    17   1 H    0.992 --     2 C    0.968
    18   1 H    0.992 --     3 C    0.970
    19   1 H    0.990 --     3 C    0.965
    20   1 H    0.987 --     4 C    0.950
    21   1 H    0.988 --     4 C    0.961
    22   1 H    0.985 --    10 C    0.938
    23   1 H    0.979 --    10 C    0.926
    24   1 H    0.988 --    10 C    0.967
    25   1 H    0.987 --    11 C    0.959
    26   1 H    0.987 --    11 C    0.959
    27   1 H    0.986 --    11 C    0.970
 ---------------------------------------------------------------------------

molecular dipole:
                 x           y           z       tot (Debye)
 q only:        3.876       3.976      -4.383
   full:        3.785       4.222      -4.403      18.248

           -------------------------------------------------
          | TOTAL ENERGY              -50.569244332376 Eh   |
          | GRADIENT NORM               0.000201980075 Eh/α |
          | HOMO-LUMO GAP               3.939340168398 eV   |
           -------------------------------------------------

 * finished run on 2024/12/20 at 07:09:03.301
