   * xtb version 6.7.1 (edcfbbe) compiled by 'conda@3ef47c1a292c' on 2024-11-25

   ID    Z sym.   atoms
    1    6 C      1-3, 5, 6, 8-11
    2    7 N      4, 7
    3    1 H      12-20

          program call               : xtb C1039.xyz --opt --namespace C1039 --charge +1
          :  Hamiltonian                  GFN2-xTB          :
 * total energy  :   -29.1286958 Eh     change       -0.9237056E-13 Eh
 * total energy  :   -29.1743473 Eh     change       -0.4565155E-01 Eh
 * total energy  :   -29.1782657 Eh     change       -0.3918386E-02 Eh
 * total energy  :   -29.1781873 Eh     change        0.7839681E-04 Eh
 * total energy  :   -29.1786917 Eh     change       -0.5043652E-03 Eh
 * total energy  :   -29.1787391 Eh     change       -0.4745542E-04 Eh
 * total energy  :   -29.1788390 Eh     change       -0.9982319E-04 Eh
 * total energy  :   -29.1788655 Eh     change       -0.2655387E-04 Eh
 * total energy  :   -29.1788908 Eh     change       -0.2531236E-04 Eh
 * total energy  :   -29.1789095 Eh     change       -0.1864282E-04 Eh
 * total energy  :   -29.1789269 Eh     change       -0.1739017E-04 Eh
 * total energy  :   -29.1789356 Eh     change       -0.8744424E-05 Eh
 * total energy  :   -29.1789386 Eh     change       -0.2958663E-05 Eh
 * total energy  :   -29.1789414 Eh     change       -0.2841000E-05 Eh
   *** GEOMETRY OPTIMIZATION CONVERGED AFTER 14 ITERATIONS ***

 final structure:
================
20
 xtb: 6.7.1 (edcfbbe)
C            0.94446052704166        0.04531043854860       -0.00004947302908
C           -0.24989860474080       -0.00733604054435       -0.02783577521344
C           -1.69972900622017       -0.09383876012448       -0.07326595525718
N           -2.12479522237625       -1.17951417426231       -0.93934132779680
C           -2.87803572453876       -1.06600879452206       -2.06574045200775
C           -3.01731634020305       -2.31786033808531       -2.58600863069665
N           -2.34541785592071       -3.17089678508739       -1.76748909293277
C           -1.81010699653953       -2.46151364495468       -0.77825227839223
C           -2.20889880012998       -4.60628347798307       -1.94261992688809
C           -0.80975943316063       -4.99684313927669       -1.93432574772941
C            0.34847624839475       -5.29470398450348       -1.92395375044985
H            1.99110278953336        0.12300750869649        0.03845643718519
H           -2.08526067718883       -0.26193873944681        0.93892770731806
H           -2.11422858838283        0.84214086010610       -0.45732240260078
H           -3.25695987409176       -0.12802651554924       -2.41818916834796
H           -3.53773580963940       -2.64451933351314       -3.46357545036665
H           -1.20684955687939       -2.85963045225040        0.01528159311930
H           -2.73607977129674       -5.12531470087567       -1.13318133329680
H           -2.66609405483353       -4.88687679592691       -2.89538605088848
H            1.35705675117288       -5.58737313044442       -1.92600892172929

          :  Hamiltonian                  GFN2-xTB          :
         :: total energy             -29.178941404041 Eh    ::
         :: gradient norm              0.000696386938 Eh/a0 ::
         :: HOMO-LUMO gap              3.883209371493 eV    ::
         :: SCC energy               -29.781474445430 Eh    ::
         :: -> dispersion             -0.015013834026 Eh    ::
         :: repulsion energy           0.602533041388 Eh    ::

    * Orbital Energies and Occupations

         #    Occupation            Energy/Eh            Energy/eV
      -------------------------------------------------------------
         1        2.0000           -0.9011899             -24.5226
       ...           ...                  ...                  ...
        15        2.0000           -0.6806223             -18.5207
        16        2.0000           -0.6710587             -18.2604
        17        2.0000           -0.6673434             -18.1593
        18        2.0000           -0.6564969             -17.8642
        19        2.0000           -0.6530966             -17.7717
        20        2.0000           -0.6333845             -17.2353
        21        2.0000           -0.6182452             -16.8233
        22        2.0000           -0.6067034             -16.5092
        23        2.0000           -0.5927516             -16.1296
        24        2.0000           -0.5648713             -15.3709
        25        2.0000           -0.5639714             -15.3464
        26        2.0000           -0.5563978             -15.1404
        27        2.0000           -0.5560836             -15.1318 (HOMO)
        28                         -0.4133783             -11.2486 (LUMO)
        29                         -0.3760214             -10.2321
        30                         -0.3135903              -8.5332
        31                         -0.3074334              -8.3657
        32                         -0.2946998              -8.0192
        33                         -0.2941952              -8.0055
        34                         -0.1706743              -4.6443
        35                         -0.1285085              -3.4969
        36                         -0.0844732              -2.2986
        37                         -0.0770714              -2.0972
        38                         -0.0484463              -1.3183
       ...                                ...                  ...
        53                          1.2913811              35.1403
      -------------------------------------------------------------
                  HL-Gap            0.1427053 Eh            3.8832 eV

     #   Z          covCN         q      C6AA      α(0)
     1   6 C        1.909    -0.070    33.016     9.280
     2   6 C        1.967    -0.028    31.815     9.109
     3   6 C        3.744    -0.006    20.760     6.500
     4   7 N        2.878     0.073    19.968     6.637
     5   6 C        3.072    -0.005    28.080     8.689
     6   6 C        3.071    -0.006    28.090     8.690
     7   7 N        2.878     0.073    19.969     6.637
     8   6 C        3.096     0.051    26.734     8.474
     9   6 C        3.744    -0.006    20.759     6.500
    10   6 C        1.967    -0.028    31.819     9.109
    11   6 C        1.909    -0.071    33.026     9.281
    12   1 H        0.928     0.126     1.566     1.957
    13   1 H        0.924     0.107     1.726     2.054
    14   1 H        0.924     0.110     1.693     2.035
    15   1 H        0.926     0.109     1.702     2.040
    16   1 H        0.926     0.109     1.704     2.041
    17   1 H        0.926     0.118     1.632     1.998
    18   1 H        0.924     0.107     1.719     2.050
    19   1 H        0.924     0.111     1.692     2.034
    20   1 H        0.928     0.126     1.567     1.957

Wiberg/Mayer (AO) data.
largest (>0.10) Wiberg bond orders for each atom

     #   Z sym  total        # sym  WBO       # sym  WBO       # sym  WBO
 ---------------------------------------------------------------------------
     1   6 C    3.965 --     2 C    2.907    12 H    0.961
     2   6 C    3.976 --     1 C    2.907     3 C    1.033
     3   6 C    3.940 --     2 C    1.033     4 N    0.954    14 H    0.947
                            13 H    0.938
     4   7 N    3.719 --     8 C    1.365     5 C    1.234     3 C    0.954
     5   6 C    3.948 --     6 C    1.584     4 N    1.234    15 H    0.960
     6   6 C    3.949 --     5 C    1.584     7 N    1.234    16 H    0.960
     7   7 N    3.719 --     8 C    1.365     6 C    1.234     9 C    0.954
     8   6 C    3.948 --     7 N    1.365     4 N    1.365    17 H    0.954
     9   6 C    3.941 --    10 C    1.035     7 N    0.954    19 H    0.947
                            18 H    0.936
    10   6 C    3.976 --    11 C    2.907     9 C    1.035
    11   6 C    3.964 --    10 C    2.907    20 H    0.961
    12   1 H    0.983 --     1 C    0.961
    13   1 H    0.988 --     3 C    0.938
    14   1 H    0.987 --     3 C    0.947
    15   1 H    0.988 --     5 C    0.960
    16   1 H    0.988 --     6 C    0.960
    17   1 H    0.986 --     8 C    0.954
    18   1 H    0.988 --     9 C    0.936
    19   1 H    0.987 --     9 C    0.947
    20   1 H    0.983 --    11 C    0.961
 ---------------------------------------------------------------------------

molecular dipole:
                 x           y           z       tot (Debye)
 q only:       -3.649      -4.229      -2.416
   full:       -3.752      -4.234      -2.386      15.606

           -------------------------------------------------
          | TOTAL ENERGY              -29.178941404041 Eh   |
          | GRADIENT NORM               0.000696386938 Eh/α |
          | HOMO-LUMO GAP               3.883209371493 eV   |
           -------------------------------------------------

 * finished run on 2024/12/20 at 07:09:18.763
