   * xtb version 6.7.1 (edcfbbe) compiled by 'conda@3ef47c1a292c' on 2024-11-25

   ID    Z sym.   atoms
    1    6 C      1-3, 5-10
    2    7 N      4
    3    1 H      11-20

          program call               : xtb C1034.xyz --opt --namespace C1034 --charge +1
          :  Hamiltonian                  GFN2-xTB          :
 * total energy  :   -26.7903795 Eh     change       -0.8788348E-10 Eh
 * total energy  :   -26.8142787 Eh     change       -0.2389927E-01 Eh
 * total energy  :   -26.8160696 Eh     change       -0.1790875E-02 Eh
 * total energy  :   -26.8162438 Eh     change       -0.1741969E-03 Eh
 * total energy  :   -26.8162851 Eh     change       -0.4132258E-04 Eh
 * total energy  :   -26.8163144 Eh     change       -0.2930342E-04 Eh
 * total energy  :   -26.8163261 Eh     change       -0.1164793E-04 Eh
 * total energy  :   -26.8163422 Eh     change       -0.1610109E-04 Eh
 * total energy  :   -26.8163499 Eh     change       -0.7669558E-05 Eh
 * total energy  :   -26.8163560 Eh     change       -0.6178089E-05 Eh
 * total energy  :   -26.8163611 Eh     change       -0.5024698E-05 Eh
 * total energy  :   -26.8163644 Eh     change       -0.3290680E-05 Eh
   *** GEOMETRY OPTIMIZATION CONVERGED AFTER 12 ITERATIONS ***

 final structure:
================
20
 xtb: 6.7.1 (edcfbbe)
C            0.89926760561034        0.01526008676224        0.04512953673447
C           -0.29490291909811       -0.01830637247364       -0.01003590168330
C           -1.74802003465159       -0.04987364111747       -0.04888643643275
N           -2.29621382190539        0.40233149648396        1.22748278731027
C           -2.74315785568834       -0.48169764582748        2.12752923399253
C           -3.22373647302754       -0.07320566080901        3.34850054169569
C           -3.25074668391674        1.28656457093025        3.67918554301291
C           -2.76314639474861        2.17835057846686        2.71722928915821
C           -2.29465416879391        1.71110407581007        1.51314010343538
C           -3.78613476237899        1.75233970576899        4.97624420860693
H            1.94935696689459        0.03130478569043        0.06208720550254
H           -2.10534232258809        0.60603970121364       -0.84932125736428
H           -2.08685263961823       -1.06930854145166       -0.25183719285288
H           -2.71026391088772       -1.52699520455528        1.85716733646509
H           -3.58035369463580       -0.81081956140962        4.05019817823601
H           -2.75179972684416        3.23895479448153        2.91309930941049
H           -1.90584188058668        2.37919148574936        0.75838791808589
H           -4.87721590171237        1.74503724196490        4.94023109741450
H           -3.49126429457418        1.08469674540552        5.78297766506775
H           -3.46484708684852        2.76492135891651        5.20234083420465

          :  Hamiltonian                  GFN2-xTB          :
         :: total energy             -26.816364352411 Eh    ::
         :: gradient norm              0.000320801615 Eh/a0 ::
         :: HOMO-LUMO gap              2.934661524906 eV    ::
         :: SCC energy               -27.350455250431 Eh    ::
         :: -> dispersion             -0.014631000566 Eh    ::
         :: repulsion energy           0.534090898020 Eh    ::

    * Orbital Energies and Occupations

         #    Occupation            Energy/Eh            Energy/eV
      -------------------------------------------------------------
         1        2.0000           -0.8763668             -23.8472
       ...           ...                  ...                  ...
        13        2.0000           -0.6784864             -18.4626
        14        2.0000           -0.6759700             -18.3941
        15        2.0000           -0.6709584             -18.2577
        16        2.0000           -0.6593430             -17.9416
        17        2.0000           -0.6497977             -17.6819
        18        2.0000           -0.6265400             -17.0490
        19        2.0000           -0.6220745             -16.9275
        20        2.0000           -0.6189688             -16.8430
        21        2.0000           -0.6118570             -16.6495
        22        2.0000           -0.6042518             -16.4425
        23        2.0000           -0.5921067             -16.1120
        24        2.0000           -0.5668624             -15.4251
        25        2.0000           -0.5596125             -15.2278 (HOMO)
        26                         -0.4517656             -12.2932 (LUMO)
        27                         -0.4232443             -11.5171
        28                         -0.3147544              -8.5649
        29                         -0.3030973              -8.2477
        30                         -0.2972016              -8.0873
        31                         -0.1540746              -4.1926
        32                         -0.0828870              -2.2555
        33                         -0.0732800              -1.9940
        34                         -0.0415489              -1.1306
        35                         -0.0291585              -0.7934
        36                         -0.0234087              -0.6370
       ...                                ...                  ...
        50                          1.2872739              35.0285
      -------------------------------------------------------------
                  HL-Gap            0.1078468 Eh            2.9347 eV

     #   Z          covCN         q      C6AA      α(0)
     1   6 C        1.909    -0.068    32.942     9.269
     2   6 C        1.967    -0.027    31.775     9.103
     3   6 C        3.758    -0.012    20.839     6.508
     4   7 N        2.755     0.102    19.486     6.556
     5   6 C        2.886     0.031    27.303     8.566
     6   6 C        2.921    -0.027    28.668     8.780
     7   6 C        2.969     0.073    26.355     8.421
     8   6 C        2.920    -0.026    28.650     8.777
     9   6 C        2.888     0.032    27.278     8.563
    10   6 C        3.759    -0.134    23.136     6.857
    11   1 H        0.928     0.128     1.550     1.947
    12   1 H        0.924     0.109     1.707     2.043
    13   1 H        0.924     0.107     1.725     2.054
    14   1 H        0.926     0.105     1.738     2.062
    15   1 H        0.926     0.103     1.758     2.074
    16   1 H        0.926     0.103     1.760     2.074
    17   1 H        0.926     0.107     1.720     2.051
    18   1 H        0.924     0.109     1.709     2.044
    19   1 H        0.925     0.096     1.823     2.112
    20   1 H        0.925     0.088     1.898     2.154

Wiberg/Mayer (AO) data.
largest (>0.10) Wiberg bond orders for each atom

     #   Z sym  total        # sym  WBO       # sym  WBO       # sym  WBO
 ---------------------------------------------------------------------------
     1   6 C    3.963 --     2 C    2.905    11 H    0.960
     2   6 C    3.975 --     1 C    2.905     3 C    1.028
     3   6 C    3.940 --     2 C    1.028     4 N    0.948    13 H    0.947
                            12 H    0.941
     4   7 N    3.755 --     5 C    1.313     9 C    1.311     3 C    0.948
     5   6 C    3.960 --     6 C    1.492     4 N    1.313    14 H    0.954
     6   6 C    3.984 --     5 C    1.492     7 C    1.362    15 H    0.959
     7   6 C    3.968 --     6 C    1.362     8 C    1.361    10 C    1.066
     8   6 C    3.983 --     9 C    1.494     7 C    1.361    16 H    0.958
     9   6 C    3.959 --     8 C    1.494     4 N    1.311    17 H    0.955
    10   6 C    3.983 --     7 C    1.066    20 H    0.974    19 H    0.958
                            18 H    0.928
    11   1 H    0.983 --     1 C    0.960
    12   1 H    0.987 --     3 C    0.941
    13   1 H    0.988 --     3 C    0.947
    14   1 H    0.989 --     5 C    0.954
    15   1 H    0.989 --     6 C    0.959
    16   1 H    0.989 --     8 C    0.958
    17   1 H    0.988 --     9 C    0.955
    18   1 H    0.987 --    10 C    0.928
    19   1 H    0.990 --    10 C    0.958
    20   1 H    0.992 --    10 C    0.974
 ---------------------------------------------------------------------------

molecular dipole:
                 x           y           z       tot (Debye)
 q only:       -4.744       1.366       3.988
   full:       -4.781       1.328       3.914      16.064

           -------------------------------------------------
          | TOTAL ENERGY              -26.816364352411 Eh   |
          | GRADIENT NORM               0.000320801615 Eh/α |
          | HOMO-LUMO GAP               2.934661524906 eV   |
           -------------------------------------------------

 * finished run on 2024/12/20 at 07:09:06.211
