   * xtb version 6.7.1 (edcfbbe) compiled by 'conda@3ef47c1a292c' on 2024-11-25

   ID    Z sym.   atoms
    1   17 Cl     1
    2    6 C      2, 3, 5, 6
    3    7 N      4
    4    1 H      7-17

          program call               : xtb C1035.xyz --opt --namespace C1035 --charge +1
          :  Hamiltonian                  GFN2-xTB          :
 * total energy  :   -21.2229735 Eh     change       -0.9315215E-11 Eh
 * total energy  :   -21.2259903 Eh     change       -0.3016840E-02 Eh
 * total energy  :   -21.2267241 Eh     change       -0.7337734E-03 Eh
 * total energy  :   -21.2267941 Eh     change       -0.7003288E-04 Eh
 * total energy  :   -21.2268282 Eh     change       -0.3404825E-04 Eh
 * total energy  :   -21.2268486 Eh     change       -0.2040739E-04 Eh
 * total energy  :   -21.2268632 Eh     change       -0.1464855E-04 Eh
 * total energy  :   -21.2268735 Eh     change       -0.1034012E-04 Eh
 * total energy  :   -21.2268819 Eh     change       -0.8323825E-05 Eh
 * total energy  :   -21.2268892 Eh     change       -0.7316176E-05 Eh
 * total energy  :   -21.2268947 Eh     change       -0.5534496E-05 Eh
 * total energy  :   -21.2268982 Eh     change       -0.3509770E-05 Eh
   *** GEOMETRY OPTIMIZATION CONVERGED AFTER 12 ITERATIONS ***

 final structure:
================
17
 xtb: 6.7.1 (edcfbbe)
Cl           0.93330271358141        0.23179283183307       -0.18145328511557
C            2.71087971833155       -0.09333004871699       -0.19965988466359
C            3.45635706978284        1.21605692292990       -0.43337534689792
N            2.92865050426548        2.28256087721051        0.45157610786918
C            3.41165080107604        2.15694454964303        1.83610806660155
C            3.19304803973285        3.62884566649362       -0.07894163418994
H            2.96561857245682       -0.56276902189242        0.74934385003278
H            2.91261174684439       -0.79338088350680       -1.00906822080862
H            4.52502428605849        1.08043758161162       -0.25472837327673
H            3.30843721833295        1.52957233930024       -1.46854294269729
H            1.90249191559091        2.09781244254900        0.44764923271625
H            4.49030031275769        2.30285568933553        1.86681552238258
H            2.93952572877593        2.90847070783013        2.46558409678912
H            3.17168454064625        1.17539829275115        2.23568003781850
H            2.75515593363053        3.74126378202034       -1.06843601384201
H            2.76143204584964        4.38147596188866        0.57785896849431
H            4.26713885228617        3.79642230871946       -0.14472018121259

          :  Hamiltonian                  GFN2-xTB          :
         :: total energy             -21.226898234002 Eh    ::
         :: gradient norm              0.000387846090 Eh/a0 ::
         :: HOMO-LUMO gap              6.766116177130 eV    ::
         :: SCC energy               -21.456306402714 Eh    ::
         :: -> dispersion             -0.009624336905 Eh    ::
         :: repulsion energy           0.229408168713 Eh    ::

    * Orbital Energies and Occupations

         #    Occupation            Energy/Eh            Energy/eV
      -------------------------------------------------------------
         1        2.0000           -1.2059992             -32.8169
       ...           ...                  ...                  ...
         7        2.0000           -0.7493229             -20.3901
         8        2.0000           -0.7397546             -20.1297
         9        2.0000           -0.7297725             -19.8581
        10        2.0000           -0.6995911             -19.0368
        11        2.0000           -0.6849860             -18.6394
        12        2.0000           -0.6685523             -18.1922
        13        2.0000           -0.6619021             -18.0113
        14        2.0000           -0.6574242             -17.8894
        15        2.0000           -0.6544702             -17.8090
        16        2.0000           -0.6504223             -17.6989
        17        2.0000           -0.6393377             -17.3973
        18        2.0000           -0.5772868             -15.7088
        19        2.0000           -0.5702625             -15.5176 (HOMO)
        20                         -0.3216124              -8.7515 (LUMO)
        21                         -0.2376322              -6.4663
        22                         -0.1599723              -4.3531
        23                         -0.1529093              -4.1609
        24                         -0.1470313              -4.0009
        25                         -0.1367766              -3.7219
        26                         -0.1348080              -3.6683
        27                         -0.1326826              -3.6105
        28                         -0.0963563              -2.6220
        29                         -0.0763950              -2.0788
        30                         -0.0575384              -1.5657
       ...                                ...                  ...
        40                          0.1007196               2.7407
      -------------------------------------------------------------
                  HL-Gap            0.2486502 Eh            6.7661 eV

     #   Z          covCN         q      C6AA      α(0)
     1  17 Cl       0.919    -0.159   104.102    15.609
     2   6 C        3.712    -0.007    20.840     6.523
     3   6 C        3.775    -0.052    21.538     6.613
     4   7 N        3.578     0.048    20.399     6.708
     5   6 C        3.700    -0.103    22.631     6.803
     6   6 C        3.700    -0.100    22.586     6.796
     7   1 H        0.925     0.104     1.750     2.069
     8   1 H        0.925     0.117     1.634     1.999
     9   1 H        0.924     0.117     1.634     1.999
    10   1 H        0.924     0.119     1.625     1.994
    11   1 H        0.861     0.261     0.843     1.438
    12   1 H        0.925     0.108     1.712     2.046
    13   1 H        0.925     0.110     1.693     2.035
    14   1 H        0.925     0.109     1.707     2.043
    15   1 H        0.925     0.107     1.724     2.053
    16   1 H        0.925     0.111     1.686     2.030
    17   1 H        0.925     0.109     1.704     2.041

Wiberg/Mayer (AO) data.
largest (>0.10) Wiberg bond orders for each atom

     #   Z sym  total        # sym  WBO       # sym  WBO       # sym  WBO
 ---------------------------------------------------------------------------
     1  17 Cl   1.067 --     2 C    0.959
     2   6 C    3.933 --     3 C    1.018     7 H    0.970     8 H    0.966
                             1 Cl   0.959
     3   6 C    3.934 --     2 C    1.018    10 H    0.961     9 H    0.958
                             4 N    0.948
     4   7 N    3.769 --     6 C    0.961     5 C    0.960     3 C    0.948
                            11 H    0.859
     5   6 C    3.915 --    12 H    0.974    13 H    0.973    14 H    0.972
                             4 N    0.960
     6   6 C    3.914 --    17 H    0.975    15 H    0.974    16 H    0.973
                             4 N    0.961
     7   1 H    0.989 --     2 C    0.970
     8   1 H    0.986 --     2 C    0.966
     9   1 H    0.986 --     3 C    0.958
    10   1 H    0.986 --     3 C    0.961
    11   1 H    0.932 --     4 N    0.859
    12   1 H    0.988 --     5 C    0.974
    13   1 H    0.988 --     5 C    0.973
    14   1 H    0.988 --     5 C    0.972
    15   1 H    0.989 --     6 C    0.974
    16   1 H    0.987 --     6 C    0.973
    17   1 H    0.988 --     6 C    0.975
 ---------------------------------------------------------------------------

molecular dipole:
                 x           y           z       tot (Debye)
 q only:        6.454       4.022       0.790
   full:        5.870       3.634       0.663      17.629

           -------------------------------------------------
          | TOTAL ENERGY              -21.226898234002 Eh   |
          | GRADIENT NORM               0.000387846090 Eh/α |
          | HOMO-LUMO GAP               6.766116177130 eV   |
           -------------------------------------------------

 * finished run on 2024/12/20 at 07:09:06.465
