   * xtb version 6.7.1 (edcfbbe) compiled by 'conda@3ef47c1a292c' on 2024-11-25

   ID    Z sym.   atoms
    1    8 O      1, 3, 9, 10
    2    6 C      2, 4, 5, 7, 8, 11, 12
    3    7 N      6
    4    1 H      13-26

          program call               : xtb C1037.xyz --opt --namespace C1037 --charge +1
          :  Hamiltonian                  GFN2-xTB          :
 * total energy  :   -40.9095176 Eh     change       -0.5590550E-10 Eh
 * total energy  :   -40.9204903 Eh     change       -0.1097263E-01 Eh
 * total energy  :   -40.9238828 Eh     change       -0.3392525E-02 Eh
 * total energy  :   -40.9246025 Eh     change       -0.7196644E-03 Eh
 * total energy  :   -40.9249440 Eh     change       -0.3415739E-03 Eh
 * total energy  :   -40.9252292 Eh     change       -0.2851957E-03 Eh
 * total energy  :   -40.9254950 Eh     change       -0.2657406E-03 Eh
 * total energy  :   -40.9259177 Eh     change       -0.4227067E-03 Eh
 * total energy  :   -40.9263187 Eh     change       -0.4010322E-03 Eh
 * total energy  :   -40.9264227 Eh     change       -0.1040320E-03 Eh
 * total energy  :   -40.9301022 Eh     change       -0.1216869E-04 Eh
 * total energy  :   -40.9301587 Eh     change       -0.5645266E-04 Eh
 * total energy  :   -40.9301792 Eh     change       -0.2056461E-04 Eh
 * total energy  :   -40.9301931 Eh     change       -0.1392206E-04 Eh
 * total energy  :   -40.9302032 Eh     change       -0.1008184E-04 Eh
 * total energy  :   -40.9302109 Eh     change       -0.7701418E-05 Eh
 * total energy  :   -40.9302243 Eh     change       -0.1339474E-04 Eh
 * total energy  :   -40.9302310 Eh     change       -0.6715710E-05 Eh
 * total energy  :   -40.9302358 Eh     change       -0.4708611E-05 Eh
   *** GEOMETRY OPTIMIZATION CONVERGED AFTER 49 ITERATIONS ***

 final structure:
================
26
 xtb: 6.7.1 (edcfbbe)
O            1.13465481037007       -1.75281521199109       -1.55398646666936
C            0.58445204677260       -1.65365268899034       -0.35935015822462
O            1.13224855412578       -1.91293445117023        0.67754810643454
C           -0.85794841925659       -1.16313546565775       -0.45375171478690
C           -1.50478850212512       -1.01375258084417        0.91926987664827
N           -1.35230329923017        0.31863985795600        1.58463304652123
C           -2.09450776112060        1.38144283418152        0.86803120937805
C           -3.61049175145259        1.16833732764604        0.73531162546227
O           -4.20888694916966        0.20816921345114        1.12633042704778
O           -4.13758678293615        2.20381717156474        0.11876369933118
C           -1.86900522783602        0.19206197013447        2.96492147658265
C            0.06918762698623        0.71150516042654        1.65767216522999
H            2.03821234954463       -2.10878031790929       -1.51714357573931
H           -0.88695579307010       -0.26558570139689       -1.06998689765435
H           -1.40059840142853       -1.93040991019828       -1.01097429043911
H           -2.57293915037328       -1.22343447168885        0.85937663366715
H           -1.03844469427426       -1.75373043440614        1.57637719922338
H           -1.94960771595507        2.33540167170620        1.38301802364948
H           -1.70025108949311        1.50032032955645       -0.14413073274031
H           -5.10050320039836        2.12280405973079        0.00482825522910
H           -1.25697882029390       -0.51347878093350        3.52303340175179
H           -1.83536666668487        1.15672254242744        3.46815119279875
H           -2.89695194086425       -0.16527339628328        2.95143778998356
H            0.65821062300159       -0.10906587872569        2.06517875142568
H            0.45695142324395        0.94992566912229        0.66994883559259
H            0.18395873191877        1.58540148229257        2.29616212029699

          :  Hamiltonian                  GFN2-xTB          :
         :: total energy             -40.930235750557 Eh    ::
         :: gradient norm              0.000688033435 Eh/a0 ::
         :: HOMO-LUMO gap              4.526633296229 eV    ::
         :: SCC energy               -41.348427976483 Eh    ::
         :: -> dispersion             -0.019776509830 Eh    ::
         :: repulsion energy           0.418192225926 Eh    ::

    * Orbital Energies and Occupations

         #    Occupation            Energy/Eh            Energy/eV
      -------------------------------------------------------------
         1        2.0000           -0.9089558             -24.7339
       ...           ...                  ...                  ...
        23        2.0000           -0.6659484             -18.1214
        24        2.0000           -0.6617011             -18.0058
        25        2.0000           -0.6554981             -17.8370
        26        2.0000           -0.6515246             -17.7289
        27        2.0000           -0.6478169             -17.6280
        28        2.0000           -0.6440258             -17.5248
        29        2.0000           -0.6389380             -17.3864
        30        2.0000           -0.6337953             -17.2464
        31        2.0000           -0.6267537             -17.0548
        32        2.0000           -0.6194591             -16.8563
        33        2.0000           -0.6082305             -16.5508
        34        2.0000           -0.5881020             -16.0031
        35        2.0000           -0.5627674             -15.3137 (HOMO)
        36                         -0.3964167             -10.7870 (LUMO)
        37                         -0.3683559             -10.0235
        38                         -0.2421108              -6.5882
        39                         -0.1844691              -5.0197
        40                         -0.1595092              -4.3405
        41                         -0.1541915              -4.1958
        42                         -0.1065316              -2.8989
        43                         -0.0890618              -2.4235
        44                         -0.0627391              -1.7072
        45                         -0.0519826              -1.4145
        46                         -0.0144337              -0.3928
       ...                                ...                  ...
        62                          0.5177662              14.0891
      -------------------------------------------------------------
                  HL-Gap            0.1663507 Eh            4.5266 eV

     #   Z          covCN         q      C6AA      α(0)
     1   8 O        1.660    -0.350    19.902     6.022
     2   6 C        2.687     0.361    20.877     7.478
     3   8 O        0.856    -0.405    21.782     6.257
     4   6 C        3.801    -0.109    22.574     6.765
     5   6 C        3.761    -0.052    21.554     6.618
     6   7 N        3.621     0.144    18.791     6.438
     7   6 C        3.766    -0.071    21.896     6.669
     8   6 C        2.685     0.366    20.788     7.461
     9   8 O        0.856    -0.381    21.296     6.187
    10   8 O        1.661    -0.340    19.715     5.994
    11   6 C        3.726    -0.108    22.664     6.797
    12   6 C        3.723    -0.105    22.625     6.793
    13   1 H        0.804     0.355     0.576     1.193
    14   1 H        0.925     0.087     1.913     2.163
    15   1 H        0.924     0.114     1.661     2.016
    16   1 H        0.925     0.117     1.641     2.003
    17   1 H        0.924     0.118     1.630     1.997
    18   1 H        0.924     0.122     1.601     1.978
    19   1 H        0.924     0.118     1.631     1.997
    20   1 H        0.804     0.367     0.550     1.164
    21   1 H        0.925     0.109     1.703     2.041
    22   1 H        0.925     0.099     1.797     2.096
    23   1 H        0.925     0.121     1.606     1.982
    24   1 H        0.925     0.127     1.555     1.950
    25   1 H        0.925     0.095     1.831     2.116
    26   1 H        0.925     0.099     1.791     2.093

Wiberg/Mayer (AO) data.
largest (>0.10) Wiberg bond orders for each atom

     #   Z sym  total        # sym  WBO       # sym  WBO       # sym  WBO
 ---------------------------------------------------------------------------
     1   8 O    2.242 --     2 C    1.182    13 H    0.848     3 O    0.183
     2   6 C    3.923 --     3 O    1.752     1 O    1.182     4 C    0.959
     3   8 O    2.047 --     2 C    1.752     1 O    0.183
     4   6 C    3.989 --     5 C    1.016     2 C    0.959    14 H    0.951
                            15 H    0.941
     5   6 C    3.921 --     4 C    1.016    16 H    0.957    17 H    0.956
                             6 N    0.924
     6   7 N    3.815 --     7 C    0.958    12 C    0.952    11 C    0.950
                             5 C    0.924
     7   6 C    3.946 --     6 N    0.958     8 C    0.948    18 H    0.947
                            19 H    0.943
     8   6 C    3.934 --     9 O    1.763    10 O    1.194     7 C    0.948
     9   8 O    2.075 --     8 C    1.763    10 O    0.192
    10   8 O    2.254 --     8 C    1.194    20 H    0.839     9 O    0.192
    11   6 C    3.913 --    22 H    0.975    21 H    0.973    23 H    0.967
                             6 N    0.950
    12   6 C    3.916 --    25 H    0.975    26 H    0.975    24 H    0.964
                             6 N    0.952
    13   1 H    0.874 --     1 O    0.848
    14   1 H    0.993 --     4 C    0.951
    15   1 H    0.987 --     4 C    0.941
    16   1 H    0.986 --     5 C    0.957
    17   1 H    0.986 --     5 C    0.956
    18   1 H    0.985 --     7 C    0.947
    19   1 H    0.986 --     7 C    0.943
    20   1 H    0.864 --    10 O    0.839
    21   1 H    0.988 --    11 C    0.973
    22   1 H    0.990 --    11 C    0.975
    23   1 H    0.985 --    11 C    0.967
    24   1 H    0.983 --    12 C    0.964
    25   1 H    0.991 --    12 C    0.975
    26   1 H    0.990 --    12 C    0.975
 ---------------------------------------------------------------------------

molecular dipole:
                 x           y           z       tot (Debye)
 q only:       -2.667       1.122       1.790
   full:       -2.668       1.212       1.607       8.494

           -------------------------------------------------
          | TOTAL ENERGY              -40.930235750557 Eh   |
          | GRADIENT NORM               0.000688033435 Eh/α |
          | HOMO-LUMO GAP               4.526633296229 eV   |
           -------------------------------------------------

 * finished run on 2024/12/20 at 07:09:17.821
