   * xtb version 6.7.1 (edcfbbe) compiled by 'conda@3ef47c1a292c' on 2024-11-25

   ID    Z sym.   atoms
    1    6 C      1, 3-15, 17-23
    2    7 N      2
    3    8 O      16
    4    1 H      24-45

          program call               : xtb C1033.xyz --opt --namespace C1033 --charge +1
          :  Hamiltonian                  GFN2-xTB          :
 * total energy  :   -62.7328556 Eh     change       -0.1317225E-08 Eh
 * total energy  :   -62.7412824 Eh     change       -0.8426773E-02 Eh
 * total energy  :   -62.7435694 Eh     change       -0.2287058E-02 Eh
 * total energy  :   -62.7440002 Eh     change       -0.4307032E-03 Eh
 * total energy  :   -62.7443497 Eh     change       -0.3495470E-03 Eh
 * total energy  :   -62.7446008 Eh     change       -0.2510937E-03 Eh
 * total energy  :   -62.7448985 Eh     change       -0.2977476E-03 Eh
 * total energy  :   -62.7452455 Eh     change       -0.3469727E-03 Eh
 * total energy  :   -62.7455541 Eh     change       -0.3085827E-03 Eh
 * total energy  :   -62.7458252 Eh     change       -0.2710690E-03 Eh
 * total energy  :   -62.7536964 Eh     change       -0.6324589E-04 Eh
 * total energy  :   -62.7537819 Eh     change       -0.8553278E-04 Eh
 * total energy  :   -62.7538341 Eh     change       -0.5210605E-04 Eh
 * total energy  :   -62.7538710 Eh     change       -0.3694822E-04 Eh
 * total energy  :   -62.7539018 Eh     change       -0.3080250E-04 Eh
 * total energy  :   -62.7539252 Eh     change       -0.2338058E-04 Eh
 * total energy  :   -62.7539400 Eh     change       -0.1483432E-04 Eh
 * total energy  :   -62.7539483 Eh     change       -0.8296862E-05 Eh
 * total energy  :   -62.7539523 Eh     change       -0.4008934E-05 Eh
   *** GEOMETRY OPTIMIZATION CONVERGED AFTER 62 ITERATIONS ***

 final structure:
================
45
 xtb: 6.7.1 (edcfbbe)
C           -0.49905801846219        1.29701342092819       -1.70017313490045
N            0.47929968767022        0.22739101594204       -1.98199394059978
C            1.84942210405675        0.80657781049619       -1.91025754318947
C            2.18454737908080        1.81731117460355       -2.80561845912037
C            3.44557948266173        2.38528557733562       -2.78178654851798
C            4.38804938661650        1.95654564152715       -1.86312234817756
C            4.05423225472390        0.95754914840384       -0.96855479968683
C            2.79207023888360        0.38114266764131       -0.98674500215674
C            0.28258520799742       -0.88246694501034       -0.98636840061237
C           -1.07242343636711       -1.54110478862880       -1.04711006338157
C           -2.12688973743019       -1.07922794289646       -0.26494723531247
C           -3.35648793667666       -1.71495682849834       -0.32221025643235
C           -3.55240887392469       -2.81293805972948       -1.13655963883210
C           -2.49355770362394       -3.30567447129425       -1.89960505419993
C           -1.25825448337649       -2.65782554121112       -1.84900982824354
O           -2.57930244698699       -4.34659641425986       -2.75169286170477
C           -3.57315379491901       -5.30457073083022       -2.60830045169742
C           -4.19737003534097       -5.75496466247891       -3.76313791977876
C           -5.13706094018901       -6.76650532568405       -3.67967101156961
C           -5.45454058551464       -7.32440431211156       -2.45249733877323
C           -4.82172578819306       -6.87611113337737       -1.30537589195263
C           -3.87660126211084       -5.86803967435277       -1.37605514349451
C            0.25868991610229       -0.31013434724929       -3.33998833413430
H           -0.30455937364821        1.71775136119763       -0.71479653255532
H           -1.50701837266176        0.88629196288076       -1.72572594336326
H           -0.42264046503703        2.09221396716377       -2.43686094796965
H            1.47888780484503        2.18212314204694       -3.53493939079316
H            3.68634571672121        3.16521040076321       -3.48625475736944
H            5.37099412691164        2.39839723139051       -1.84500695060105
H            4.77453396762902        0.61344268303030       -0.24374571547561
H            2.58753179783608       -0.39180953930335       -0.26648124570225
H            1.04861836527760       -1.63496158825954       -1.18190560624091
H            0.42787659367309       -0.45895770455451        0.00910203565522
H           -1.99004044124037       -0.24196701247689        0.40247132867805
H           -4.17381397132878       -1.34837399338965        0.27849933799855
H           -4.51751461921887       -3.29283262943610       -1.18207184681573
H           -0.45278431444118       -3.06961680882615       -2.43778203637811
H           -3.93400126804060       -5.31244776517447       -4.71105023060344
H           -5.62223897454935       -7.11800143311038       -4.57697600735696
H           -6.18867637150554       -8.11228014284252       -2.39034946499760
H           -5.05655088619600       -7.31631658561790       -0.34852224497856
H           -3.36688799190272       -5.52891260161878       -0.48556609715676
H           -0.72865632034834       -0.76511789157148       -3.39701348861936
H            0.32498645623251        0.47858145254832       -4.08395247801659
H            1.01484792615951       -1.06170178403712       -3.56100051087830

          :  Hamiltonian                  GFN2-xTB          :
         :: total energy             -62.753952326871 Eh    ::
         :: gradient norm              0.000397265909 Eh/a0 ::
         :: HOMO-LUMO gap              2.651662238144 eV    ::
         :: SCC energy               -63.834634240595 Eh    ::
         :: -> dispersion             -0.047419668276 Eh    ::
         :: repulsion energy           1.080681913724 Eh    ::

    * Orbital Energies and Occupations

         #    Occupation            Energy/Eh            Energy/eV
      -------------------------------------------------------------
         1        2.0000           -0.8484195             -23.0867
       ...           ...                  ...                  ...
        46        2.0000           -0.5594560             -15.2236
        47        2.0000           -0.5570794             -15.1589
        48        2.0000           -0.5550823             -15.1046
        49        2.0000           -0.5529231             -15.0458
        50        2.0000           -0.5488521             -14.9350
        51        2.0000           -0.5466746             -14.8758
        52        2.0000           -0.5366407             -14.6027
        53        2.0000           -0.5237767             -14.2527
        54        2.0000           -0.5107609             -13.8985
        55        2.0000           -0.5099877             -13.8775
        56        2.0000           -0.4954628             -13.4822
        57        2.0000           -0.4849757             -13.1969
        58        2.0000           -0.4689978             -12.7621 (HOMO)
        59                         -0.3715510             -10.1104 (LUMO)
        60                         -0.3651043              -9.9350
        61                         -0.3504027              -9.5349
        62                         -0.3350431              -9.1170
        63                         -0.3036884              -8.2638
        64                         -0.2982323              -8.1153
        65                         -0.2377025              -6.4682
        66                         -0.2286340              -6.2214
        67                         -0.1987221              -5.4075
        68                         -0.1710796              -4.6553
        69                         -0.1436973              -3.9102
       ...                                ...                  ...
       114                          0.5913900              16.0925
      -------------------------------------------------------------
                  HL-Gap            0.0974468 Eh            2.6517 eV

     #   Z          covCN         q      C6AA      α(0)
     1   6 C        3.720    -0.086    22.256     6.738
     2   7 N        3.623     0.121    19.167     6.502
     3   6 C        2.930     0.031    27.306     8.570
     4   6 C        2.922    -0.038    28.933     8.821
     5   6 C        2.921    -0.017    28.433     8.744
     6   6 C        2.918    -0.015    28.397     8.739
     7   6 C        2.922    -0.017    28.438     8.745
     8   6 C        2.920    -0.040    28.995     8.830
     9   6 C        3.765    -0.037    21.271     6.574
    10   6 C        2.966    -0.008    28.215     8.713
    11   6 C        2.921    -0.055    29.361     8.886
    12   6 C        2.919    -0.025    28.636     8.775
    13   6 C        2.917    -0.054    29.351     8.884
    14   6 C        2.865     0.156    24.612     8.132
    15   6 C        2.924    -0.070    29.737     8.943
    16   8 O        1.709    -0.249    18.119     5.747
    17   6 C        2.870     0.134    25.076     8.209
    18   6 C        2.918    -0.047    29.159     8.855
    19   6 C        2.922    -0.024    28.612     8.772
    20   6 C        2.919    -0.030    28.746     8.792
    21   6 C        2.922    -0.026    28.656     8.779
    22   6 C        2.917    -0.052    29.291     8.875
    23   6 C        3.719    -0.086    22.271     6.741
    24   1 H        0.925     0.091     1.870     2.139
    25   1 H        0.925     0.100     1.784     2.089
    26   1 H        0.925     0.093     1.848     2.126
    27   1 H        0.926     0.053     2.282     2.362
    28   1 H        0.926     0.071     2.069     2.250
    29   1 H        0.926     0.074     2.037     2.232
    30   1 H        0.926     0.072     2.063     2.246
    31   1 H        0.926     0.061     2.188     2.313
    32   1 H        0.924     0.085     1.925     2.170
    33   1 H        0.924     0.084     1.936     2.176
    34   1 H        0.926     0.041     2.429     2.437
    35   1 H        0.926     0.059     2.208     2.324
    36   1 H        0.926     0.060     2.195     2.317
    37   1 H        0.926     0.054     2.272     2.357
    38   1 H        0.926     0.053     2.282     2.362
    39   1 H        0.926     0.053     2.285     2.364
    40   1 H        0.926     0.052     2.294     2.368
    41   1 H        0.926     0.050     2.323     2.383
    42   1 H        0.926     0.039     2.462     2.454
    43   1 H        0.925     0.101     1.778     2.085
    44   1 H        0.925     0.093     1.847     2.126
    45   1 H        0.925     0.092     1.859     2.132

Wiberg/Mayer (AO) data.
largest (>0.10) Wiberg bond orders for each atom

     #   Z sym  total        # sym  WBO       # sym  WBO       # sym  WBO
 ---------------------------------------------------------------------------
     1   6 C    3.930 --    24 H    0.977    26 H    0.973    25 H    0.968
                             2 N    0.955
     2   7 N    3.804 --     1 C    0.955    23 C    0.955     9 C    0.914
                             3 C    0.907
     3   6 C    3.925 --     8 C    1.428     4 C    1.406     2 N    0.907
                             6 C    0.108
     4   6 C    3.989 --     5 C    1.447     3 C    1.406    27 H    0.960
                             7 C    0.112
     5   6 C    3.988 --     4 C    1.447     6 C    1.431    28 H    0.967
                             8 C    0.109
     6   6 C    3.986 --     7 C    1.449     5 C    1.431    29 H    0.966
                             3 C    0.108
     7   6 C    3.987 --     6 C    1.449     8 C    1.426    30 H    0.967
                             4 C    0.112
     8   6 C    3.989 --     3 C    1.428     7 C    1.426    31 H    0.961
                             5 C    0.109
     9   6 C    3.931 --    10 C    1.003    33 H    0.964    32 H    0.964
                             2 N    0.914
    10   6 C    3.977 --    15 C    1.424    11 C    1.398     9 C    1.003
    11   6 C    3.985 --    12 C    1.428    10 C    1.398    34 H    0.968
    12   6 C    3.989 --    13 C    1.459    11 C    1.428    35 H    0.968
    13   6 C    3.989 --    12 C    1.459    14 C    1.351    36 H    0.964
    14   6 C    3.941 --    13 C    1.351    15 C    1.349    16 O    1.085
    15   6 C    3.984 --    10 C    1.424    14 C    1.349    37 H    0.965
    16   8 O    2.317 --    14 C    1.085    17 C    0.977
    17   6 C    3.919 --    22 C    1.389    18 C    1.389    16 O    0.977
                            20 C    0.102
    18   6 C    3.986 --    19 C    1.445    17 C    1.389    38 H    0.968
                            21 C    0.110
    19   6 C    3.990 --    18 C    1.445    20 C    1.438    39 H    0.969
                            22 C    0.110
    20   6 C    3.988 --    21 C    1.438    19 C    1.438    40 H    0.970
                            17 C    0.102
    21   6 C    3.990 --    22 C    1.444    20 C    1.438    41 H    0.970
                            18 C    0.110
    22   6 C    3.990 --    21 C    1.444    17 C    1.389    42 H    0.967
                            19 C    0.110
    23   6 C    3.929 --    45 H    0.977    44 H    0.972    43 H    0.967
                             2 N    0.955
    24   1 H    0.992 --     1 C    0.977
    25   1 H    0.989 --     1 C    0.968
    26   1 H    0.991 --     1 C    0.973
    27   1 H    0.997 --     4 C    0.960
    28   1 H    0.994 --     5 C    0.967
    29   1 H    0.994 --     6 C    0.966
    30   1 H    0.994 --     7 C    0.967
    31   1 H    0.996 --     8 C    0.961
    32   1 H    0.992 --     9 C    0.964
    33   1 H    0.993 --     9 C    0.964
    34   1 H    0.998 --    11 C    0.968
    35   1 H    0.996 --    12 C    0.968
    36   1 H    0.996 --    13 C    0.964
    37   1 H    0.997 --    15 C    0.965
    38   1 H    0.997 --    18 C    0.968
    39   1 H    0.997 --    19 C    0.969
    40   1 H    0.997 --    20 C    0.970
    41   1 H    0.997 --    21 C    0.970
    42   1 H    0.998 --    22 C    0.967
    43   1 H    0.989 --    23 C    0.967
    44   1 H    0.991 --    23 C    0.972
    45   1 H    0.991 --    23 C    0.977
 ---------------------------------------------------------------------------

molecular dipole:
                 x           y           z       tot (Debye)
 q only:        0.334      -0.313      -3.653
   full:        0.319      -0.307      -3.570       9.145

           -------------------------------------------------
          | TOTAL ENERGY              -62.753952326871 Eh   |
          | GRADIENT NORM               0.000397265909 Eh/α |
          | HOMO-LUMO GAP               2.651662238144 eV   |
           -------------------------------------------------

 * finished run on 2024/12/20 at 07:09:05.839
