   * xtb version 6.7.1 (edcfbbe) compiled by 'conda@3ef47c1a292c' on 2024-11-25

   ID    Z sym.   atoms
    1    6 C      1, 2, 4-10
    2    7 N      3
    3    1 H      11-32

          program call               : xtb C1042.xyz --opt --namespace C1042 --charge +1
          :  Hamiltonian                  GFN2-xTB          :
 * total energy  :   -33.0058905 Eh     change       -0.1169269E-09 Eh
 * total energy  :   -33.0141299 Eh     change       -0.8239399E-02 Eh
 * total energy  :   -33.0162018 Eh     change       -0.2071927E-02 Eh
 * total energy  :   -33.0163046 Eh     change       -0.1027340E-03 Eh
 * total energy  :   -33.0163680 Eh     change       -0.6339897E-04 Eh
 * total energy  :   -33.0164068 Eh     change       -0.3879066E-04 Eh
 * total energy  :   -33.0164522 Eh     change       -0.4541667E-04 Eh
 * total energy  :   -33.0164758 Eh     change       -0.2360447E-04 Eh
 * total energy  :   -33.0164885 Eh     change       -0.1273856E-04 Eh
 * total energy  :   -33.0164970 Eh     change       -0.8495360E-05 Eh
 * total energy  :   -33.0165144 Eh     change       -0.1742956E-04 Eh
 * total energy  :   -33.0165226 Eh     change       -0.8200733E-05 Eh
 * total energy  :   -33.0165288 Eh     change       -0.6145484E-05 Eh
 * total energy  :   -33.0165331 Eh     change       -0.4285384E-05 Eh
   *** GEOMETRY OPTIMIZATION CONVERGED AFTER 14 ITERATIONS ***

 final structure:
================
32
 xtb: 6.7.1 (edcfbbe)
C            0.96593224724121        0.00593445502451       -0.03970886416151
C            0.63036972442348       -1.32409851964606        0.62353778235349
N            1.08721803500752       -1.52883413581194        2.04506455827565
C            0.56504999171832       -0.36277675676607        2.88112665231865
C           -0.94590964718004       -0.40789322850560        3.08677333565184
C            1.27535900168364       -0.11566421756991        4.21164112977044
C            0.56752518814877       -2.89587460302308        2.48119218058551
C            1.20593670296810       -4.05131971097920        1.70711156325093
C            0.73915927888927       -3.20070921986406        3.96667399138825
C            2.56310145882774       -1.51532934003208        2.05860934854852
H            0.35943418546634        0.83075212640804        0.32347662287814
H            0.74751814728319       -0.10165753459963       -1.10001719543092
H            2.01703864635770        0.26464509744111        0.04684582053669
H           -0.44918369594735       -1.47163474989117        0.59032211424069
H            1.09143260174269       -2.10837014425276        0.02633764681873
H            0.79077713737620        0.51237331424862        2.26804863045200
H           -1.25351921890826       -1.19459849384366        3.76804356698566
H           -1.25211112437862        0.53777014766154        3.52697165812961
H           -1.49293515572043       -0.51548942320575        2.15483263059853
H            2.34627772031742        0.01513782824103        4.09784125097765
H            0.88576627196564        0.81994289681635        4.60673745626196
H            1.09157257150410       -0.87774240415542        4.95752307262424
H           -0.50219758948916       -2.88123453247998        2.25706406793269
H            2.23730256798205       -4.21374387789097        2.00855117518648
H            0.65213917963184       -4.95516491576548        1.94942921020411
H            1.16178690419696       -3.94542428212305        0.62800198023587
H            0.09049177273086       -2.60641273364598        4.59974120006822
H            0.46122895215910       -4.24006078333507        4.12420005500240
H            1.76764046662498       -3.09286498854478        4.29797482123759
H            2.94944592433402       -2.13948756318295        1.25682924281855
H            2.93044673572758       -0.50260195296454        1.91358566470885
H            2.93825501731608       -1.89085775376247        3.00595762955012

          :  Hamiltonian                  GFN2-xTB          :
         :: total energy             -33.016533066536 Eh    ::
         :: gradient norm              0.000686996952 Eh/a0 ::
         :: HOMO-LUMO gap              8.808695025347 eV    ::
         :: SCC energy               -33.495835373575 Eh    ::
         :: -> dispersion             -0.024865165768 Eh    ::
         :: repulsion energy           0.479302307039 Eh    ::

    * Orbital Energies and Occupations

         #    Occupation            Energy/Eh            Energy/eV
      -------------------------------------------------------------
         1        2.0000           -0.8471714             -23.0527
       ...           ...                  ...                  ...
        19        2.0000           -0.6363766             -17.3167
        20        2.0000           -0.6293222             -17.1247
        21        2.0000           -0.6281221             -17.0921
        22        2.0000           -0.6192596             -16.8509
        23        2.0000           -0.6119728             -16.6526
        24        2.0000           -0.6091278             -16.5752
        25        2.0000           -0.6063880             -16.5007
        26        2.0000           -0.6045438             -16.4505
        27        2.0000           -0.6028193             -16.4035
        28        2.0000           -0.5949484             -16.1894
        29        2.0000           -0.5903811             -16.0651
        30        2.0000           -0.5889579             -16.0264
        31        2.0000           -0.5735924             -15.6082 (HOMO)
        32                         -0.2498788              -6.7995 (LUMO)
        33                         -0.1828344              -4.9752
        34                         -0.1698229              -4.6211
        35                         -0.1427028              -3.8831
        36                         -0.0708580              -1.9281
        37                         -0.0665431              -1.8107
        38                         -0.0545521              -1.4844
        39                         -0.0518125              -1.4099
        40                         -0.0401020              -1.0912
        41                         -0.0284767              -0.7749
        42                         -0.0210378              -0.5725
       ...                                ...                  ...
        62                          0.1941576               5.2833
      -------------------------------------------------------------
                  HL-Gap            0.3237136 Eh            8.8087 eV

     #   Z          covCN         q      C6AA      α(0)
     1   6 C        3.750    -0.128    23.017     6.842
     2   6 C        3.759    -0.032    21.191     6.563
     3   7 N        3.611     0.092    19.648     6.583
     4   6 C        3.792     0.017    20.297     6.416
     5   6 C        3.754    -0.129    23.027     6.843
     6   6 C        3.754    -0.135    23.151     6.861
     7   6 C        3.793     0.021    20.234     6.406
     8   6 C        3.757    -0.133    23.114     6.855
     9   6 C        3.758    -0.128    23.006     6.838
    10   6 C        3.710    -0.086    22.280     6.746
    11   1 H        0.925     0.066     2.128     2.281
    12   1 H        0.925     0.083     1.947     2.182
    13   1 H        0.925     0.066     2.133     2.284
    14   1 H        0.925     0.080     1.979     2.200
    15   1 H        0.925     0.084     1.938     2.177
    16   1 H        0.924     0.081     1.966     2.193
    17   1 H        0.925     0.064     2.148     2.292
    18   1 H        0.925     0.079     1.987     2.204
    19   1 H        0.925     0.056     2.241     2.341
    20   1 H        0.925     0.061     2.183     2.311
    21   1 H        0.925     0.078     1.999     2.211
    22   1 H        0.925     0.070     2.083     2.257
    23   1 H        0.924     0.075     2.036     2.231
    24   1 H        0.925     0.068     2.103     2.268
    25   1 H        0.925     0.081     1.970     2.195
    26   1 H        0.925     0.057     2.234     2.338
    27   1 H        0.925     0.065     2.144     2.290
    28   1 H        0.925     0.081     1.974     2.197
    29   1 H        0.925     0.062     2.170     2.304
    30   1 H        0.925     0.094     1.837     2.120
    31   1 H        0.925     0.090     1.875     2.141
    32   1 H        0.925     0.097     1.814     2.106

Wiberg/Mayer (AO) data.
largest (>0.10) Wiberg bond orders for each atom

     #   Z sym  total        # sym  WBO       # sym  WBO       # sym  WBO
 ---------------------------------------------------------------------------
     1   6 C    3.983 --     2 C    1.022    13 H    0.979    11 H    0.978
                            12 H    0.971
     2   6 C    3.939 --     1 C    1.022    14 H    0.965    15 H    0.960
                             3 N    0.931
     3   7 N    3.790 --    10 C    0.967     2 C    0.931     7 C    0.901
                             4 C    0.897
     4   6 C    3.933 --     5 C    1.013     6 C    1.011    16 H    0.952
                             3 N    0.897
     5   6 C    3.986 --     4 C    1.013    19 H    0.978    17 H    0.977
                            18 H    0.974
     6   6 C    3.982 --     4 C    1.011    20 H    0.980    22 H    0.975
                            21 H    0.973
     7   6 C    3.937 --     9 C    1.012     8 C    1.011    23 H    0.960
                             3 N    0.901
     8   6 C    3.984 --     7 C    1.011    24 H    0.981    26 H    0.974
                            25 H    0.974
     9   6 C    3.984 --     7 C    1.012    29 H    0.977    27 H    0.972
                            28 H    0.972
    10   6 C    3.935 --    30 H    0.972    31 H    0.972    32 H    0.969
                             3 N    0.967
    11   1 H    0.996 --     1 C    0.978
    12   1 H    0.993 --     1 C    0.971
    13   1 H    0.996 --     1 C    0.979
    14   1 H    0.994 --     2 C    0.965
    15   1 H    0.993 --     2 C    0.960
    16   1 H    0.993 --     4 C    0.952
    17   1 H    0.996 --     5 C    0.977
    18   1 H    0.993 --     5 C    0.974
    19   1 H    0.997 --     5 C    0.978
    20   1 H    0.996 --     6 C    0.980
    21   1 H    0.993 --     6 C    0.973
    22   1 H    0.995 --     6 C    0.975
    23   1 H    0.994 --     7 C    0.960
    24   1 H    0.995 --     8 C    0.981
    25   1 H    0.993 --     8 C    0.974
    26   1 H    0.997 --     8 C    0.974
    27   1 H    0.996 --     9 C    0.972
    28   1 H    0.993 --     9 C    0.972
    29   1 H    0.996 --     9 C    0.977
    30   1 H    0.991 --    10 C    0.972
    31   1 H    0.992 --    10 C    0.972
    32   1 H    0.991 --    10 C    0.969
 ---------------------------------------------------------------------------

molecular dipole:
                 x           y           z       tot (Debye)
 q only:        1.951      -2.892       4.059
   full:        1.937      -2.898       3.995      13.477

           -------------------------------------------------
          | TOTAL ENERGY              -33.016533066536 Eh   |
          | GRADIENT NORM               0.000686996952 Eh/α |
          | HOMO-LUMO GAP               8.808695025347 eV   |
           -------------------------------------------------

 * finished run on 2024/12/20 at 07:09:23.112
