   * xtb version 6.7.1 (edcfbbe) compiled by 'conda@3ef47c1a292c' on 2024-11-25

   ID    Z sym.   atoms
    1    6 C      1-7, 9, 10
    2    7 N      8
    3    1 H      11-24

          program call               : xtb C1041.xyz --opt --namespace C1041 --charge +1
          :  Hamiltonian                  GFN2-xTB          :
 * total energy  :   -28.9309195 Eh     change       -0.2907292E-09 Eh
 * total energy  :   -28.9332469 Eh     change       -0.2327484E-02 Eh
 * total energy  :   -28.9336927 Eh     change       -0.4457564E-03 Eh
 * total energy  :   -28.9338258 Eh     change       -0.1330747E-03 Eh
 * total energy  :   -28.9339656 Eh     change       -0.1398122E-03 Eh
 * total energy  :   -28.9340926 Eh     change       -0.1270221E-03 Eh
 * total energy  :   -28.9342180 Eh     change       -0.1254248E-03 Eh
 * total energy  :   -28.9343425 Eh     change       -0.1244987E-03 Eh
 * total energy  :   -28.9344547 Eh     change       -0.1121961E-03 Eh
 * total energy  :   -28.9345900 Eh     change       -0.1352817E-03 Eh
 * total energy  :   -28.9350669 Eh     change       -0.7450002E-04 Eh
 * total energy  :   -28.9351319 Eh     change       -0.6499461E-04 Eh
 * total energy  :   -28.9351998 Eh     change       -0.6788334E-04 Eh
 * total energy  :   -28.9352309 Eh     change       -0.3115796E-04 Eh
 * total energy  :   -28.9352752 Eh     change       -0.4427922E-04 Eh
 * total energy  :   -28.9352788 Eh     change       -0.3612988E-05 Eh
 * total energy  :   -28.9352868 Eh     change       -0.8009581E-05 Eh
 * total energy  :   -28.9352930 Eh     change       -0.6184012E-05 Eh
 * total energy  :   -28.9352970 Eh     change       -0.3992090E-05 Eh
   *** GEOMETRY OPTIMIZATION CONVERGED AFTER 23 ITERATIONS ***

 final structure:
================
24
 xtb: 6.7.1 (edcfbbe)
C            0.24935299447155       -0.30287116136455       -0.36482939025423
C            0.68192378748145       -1.75207950574641       -0.53774672731539
C            1.68907999876711       -2.20593706819822        0.53795074395777
C            1.06601742298850       -2.17624717476338        1.89180836577030
C            1.17549334813745       -1.06555473667726        2.73375676892432
C            0.53100772587606       -1.06890569776803        3.95970617966715
C           -0.20950871224089       -2.17254669797555        4.33639018045382
N           -0.31198358986638       -3.23112887750453        3.52826673461866
C            0.30043940611909       -3.24223369430095        2.33857478395123
C           -1.07097726956699       -4.39429761792154        3.93316186525875
H           -0.29667777405488       -0.15623781774347        0.56565775405105
H           -0.40175221499275       -0.01293839034623       -1.18458489737014
H            1.11169641689678        0.35976762546801       -0.37076389349407
H           -0.19307936348574       -2.40518619997001       -0.51550177668361
H            1.16058200164865       -1.86970657998854       -1.50973816889446
H            2.01972890192778       -3.21820991764032        0.30252194555990
H            2.55297067234294       -1.54170185983498        0.51309634756499
H            1.76307024397509       -0.21377970070466        2.42796507881430
H            0.60020868486080       -0.22362998819909        4.62531129247275
H           -0.72025644294565       -2.21408294101335        5.28624718170761
H            0.17786301872472       -4.12890413411331        1.73290191853313
H           -1.76365621792846       -4.68663074288893        3.14399735919245
H           -0.39770795394464       -5.23128121924403        4.12681190695460
H           -1.63627508519086       -4.18538590156060        4.83843844655950

          :  Hamiltonian                  GFN2-xTB          :
         :: total energy             -28.935297017059 Eh    ::
         :: gradient norm              0.000581203529 Eh/a0 ::
         :: HOMO-LUMO gap              2.707523405084 eV    ::
         :: SCC energy               -29.422027945228 Eh    ::
         :: -> dispersion             -0.017359621301 Eh    ::
         :: repulsion energy           0.486730928169 Eh    ::

    * Orbital Energies and Occupations

         #    Occupation            Energy/Eh            Energy/eV
      -------------------------------------------------------------
         1        2.0000           -0.8788587             -23.9150
       ...           ...                  ...                  ...
        15        2.0000           -0.6661196             -18.1260
        16        2.0000           -0.6573019             -17.8861
        17        2.0000           -0.6502385             -17.6939
        18        2.0000           -0.6378626             -17.3571
        19        2.0000           -0.6356191             -17.2961
        20        2.0000           -0.6216075             -16.9148
        21        2.0000           -0.6149500             -16.7336
        22        2.0000           -0.6113261             -16.6350
        23        2.0000           -0.5992763             -16.3071
        24        2.0000           -0.5930521             -16.1378
        25        2.0000           -0.5685987             -15.4724
        26        2.0000           -0.5593685             -15.2212
        27        2.0000           -0.5535252             -15.0622 (HOMO)
        28                         -0.4540255             -12.3547 (LUMO)
        29                         -0.4213886             -11.4666
        30                         -0.3039935              -8.2721
        31                         -0.1701697              -4.6306
        32                         -0.0772042              -2.1008
        33                         -0.0485911              -1.3222
        34                         -0.0430569              -1.1716
        35                         -0.0308681              -0.8400
        36                         -0.0102577              -0.2791
        37                         -0.0053698              -0.1461
        38                          0.0023627               0.0643
       ...                                ...                  ...
        54                          0.4412667              12.0075
      -------------------------------------------------------------
                  HL-Gap            0.0994997 Eh            2.7075 eV

     #   Z          covCN         q      C6AA      α(0)
     1   6 C        3.751    -0.113    22.722     6.798
     2   6 C        3.802    -0.055    21.563     6.611
     3   6 C        3.808    -0.077    21.959     6.671
     4   6 C        2.965     0.049    26.899     8.507
     5   6 C        2.929     0.001    28.015     8.680
     6   6 C        2.913    -0.014    28.363     8.733
     7   6 C        2.891     0.024    27.463     8.592
     8   7 N        2.746     0.117    19.245     6.515
     9   6 C        2.901     0.016    27.656     8.623
    10   6 C        3.712    -0.094    22.444     6.770
    11   1 H        0.925     0.030     2.592     2.518
    12   1 H        0.925     0.061     2.183     2.311
    13   1 H        0.925     0.051     2.306     2.375
    14   1 H        0.924     0.042     2.422     2.434
    15   1 H        0.925     0.068     2.109     2.271
    16   1 H        0.924     0.071     2.078     2.254
    17   1 H        0.925     0.079     1.993     2.208
    18   1 H        0.926     0.104     1.749     2.068
    19   1 H        0.926     0.105     1.742     2.064
    20   1 H        0.926     0.106     1.734     2.059
    21   1 H        0.926     0.104     1.745     2.066
    22   1 H        0.925     0.110     1.699     2.039
    23   1 H        0.924     0.112     1.682     2.028
    24   1 H        0.925     0.105     1.736     2.061

Wiberg/Mayer (AO) data.
largest (>0.10) Wiberg bond orders for each atom

     #   Z sym  total        # sym  WBO       # sym  WBO       # sym  WBO
 ---------------------------------------------------------------------------
     1   6 C    3.993 --     2 C    1.023    13 H    0.985    11 H    0.985
                            12 H    0.982
     2   6 C    3.989 --     1 C    1.023    14 H    0.977    15 H    0.971
                             3 C    0.964
     3   6 C    3.985 --     4 C    1.030    17 H    0.966     2 C    0.964
                            16 H    0.963
     4   6 C    3.977 --     9 C    1.420     5 C    1.366     3 C    1.030
     5   6 C    3.975 --     6 C    1.443     4 C    1.366    18 H    0.960
     6   6 C    3.982 --     7 C    1.444     5 C    1.443    19 H    0.959
     7   6 C    3.957 --     6 C    1.444     8 N    1.330    20 H    0.955
     8   7 N    3.768 --     7 C    1.330     9 C    1.322    10 C    0.985
     9   6 C    3.957 --     4 C    1.420     8 N    1.322    21 H    0.955
    10   6 C    3.932 --     8 N    0.985    24 H    0.974    22 H    0.963
                            23 H    0.956
    11   1 H    0.999 --     1 C    0.985
    12   1 H    0.995 --     1 C    0.982
    13   1 H    0.997 --     1 C    0.985
    14   1 H    0.998 --     2 C    0.977
    15   1 H    0.994 --     2 C    0.971
    16   1 H    0.995 --     3 C    0.963
    17   1 H    0.993 --     3 C    0.966
    18   1 H    0.989 --     5 C    0.960
    19   1 H    0.989 --     6 C    0.959
    20   1 H    0.988 --     7 C    0.955
    21   1 H    0.989 --     9 C    0.955
    22   1 H    0.988 --    10 C    0.963
    23   1 H    0.987 --    10 C    0.956
    24   1 H    0.988 --    10 C    0.974
 ---------------------------------------------------------------------------

molecular dipole:
                 x           y           z       tot (Debye)
 q only:        0.247      -5.049       5.491
   full:        0.208      -5.110       5.608      19.291

           -------------------------------------------------
          | TOTAL ENERGY              -28.935297017059 Eh   |
          | GRADIENT NORM               0.000581203529 Eh/α |
          | HOMO-LUMO GAP               2.707523405084 eV   |
           -------------------------------------------------

 * finished run on 2024/12/20 at 07:09:22.377
