   * xtb version 6.7.1 (edcfbbe) compiled by 'conda@3ef47c1a292c' on 2024-11-25

   ID    Z sym.   atoms
    1    6 C      1-9, 11-13
    2    7 N      10
    3    1 H      14-33

          program call               : xtb C1049.xyz --opt --namespace C1049 --charge +1
          :  Hamiltonian                  GFN2-xTB          :
 * total energy  :   -38.3968774 Eh     change       -0.3266933E-09 Eh
 * total energy  :   -38.4035714 Eh     change       -0.6694044E-02 Eh
 * total energy  :   -38.4052713 Eh     change       -0.1699880E-02 Eh
 * total energy  :   -38.4054678 Eh     change       -0.1965634E-03 Eh
 * total energy  :   -38.4056242 Eh     change       -0.1563842E-03 Eh
 * total energy  :   -38.4056807 Eh     change       -0.5647411E-04 Eh
 * total energy  :   -38.4057563 Eh     change       -0.7563439E-04 Eh
 * total energy  :   -38.4058056 Eh     change       -0.4925861E-04 Eh
 * total energy  :   -38.4058276 Eh     change       -0.2199220E-04 Eh
 * total energy  :   -38.4058496 Eh     change       -0.2205356E-04 Eh
 * total energy  :   -38.4059290 Eh     change       -0.1885112E-04 Eh
 * total energy  :   -38.4059477 Eh     change       -0.1868305E-04 Eh
 * total energy  :   -38.4059717 Eh     change       -0.2395016E-04 Eh
 * total energy  :   -38.4059957 Eh     change       -0.2405019E-04 Eh
 * total energy  :   -38.4060104 Eh     change       -0.1465115E-04 Eh
 * total energy  :   -38.4060203 Eh     change       -0.9974641E-05 Eh
 * total energy  :   -38.4060298 Eh     change       -0.9450633E-05 Eh
 * total energy  :   -38.4060363 Eh     change       -0.6532559E-05 Eh
 * total energy  :   -38.4060409 Eh     change       -0.4613122E-05 Eh
   *** GEOMETRY OPTIMIZATION CONVERGED AFTER 22 ITERATIONS ***

 final structure:
================
33
 xtb: 6.7.1 (edcfbbe)
C            1.43735512745606       -0.15672529669504        0.14311957731514
C            0.73176766445453        0.15235993153474       -1.17885876134032
C            1.05297464653028       -0.91601395285081       -2.21297790530115
C            0.83590620056545       -2.26211097194357       -1.94682829860906
C            1.13132140402304       -3.22071321602190       -2.89989336495357
C            1.64327474666206       -2.84525119289827       -4.13034400798613
C            1.86098737059315       -1.50615947430672       -4.40348106514994
C            1.56472144893904       -0.54783415240989       -3.44986021649957
C           -0.80482502248424        0.20761319608662       -1.11173625893665
N           -1.46739438866152        1.34522717620242       -0.38897883333503
C           -0.85341241214157        2.63496261356897       -0.74910746532162
C           -2.88786360903982        1.36811889183474       -0.79330249765021
C           -1.40973999334767        1.16336466756032        1.07257112077233
H            0.92502129681068       -0.93532788754561        0.70181257894522
H            1.54271983224806        0.72552030664983        0.77122412549821
H            2.44182035917324       -0.51279174373840       -0.07208509073869
H            1.11879113321424        1.09621655729264       -1.57113950874104
H            0.44710496443784       -2.57453472207519       -0.98901404082499
H            0.96308643269053       -4.26337477917381       -2.67914333707089
H            1.87523083739329       -3.59380373093267       -4.87141168402161
H            2.26447368728434       -1.20470255010637       -5.35757239520399
H            1.74528964101515        0.49525902651079       -3.66880028013007
H           -1.16025690137741        0.24319157994787       -2.14476061078726
H           -1.16989434835368       -0.71929507466255       -0.66510771525052
H           -0.81409637297261        2.74111880489812       -1.83182508344844
H           -1.44251017150895        3.45394405272891       -0.33946308116763
H            0.15484448850177        2.70294549266498       -0.34763130745235
H           -3.35191601077082        0.40347372983676       -0.59529990696017
H           -3.42488712284901        2.13340716335616       -0.23512881704111
H           -2.97792442442288        1.58669890359581       -1.85585066468090
H           -1.91073983097613        0.23948247559476        1.35571897725025
H           -0.37920952535973        1.12027741929941        1.41198960630811
H           -1.90687114772845        1.99475675619597        1.57024621251272

          :  Hamiltonian                  GFN2-xTB          :
         :: total energy             -38.406040945836 Eh    ::
         :: gradient norm              0.000301318428 Eh/a0 ::
         :: HOMO-LUMO gap              4.782817100106 eV    ::
         :: SCC energy               -39.036367201881 Eh    ::
         :: -> dispersion             -0.027431159655 Eh    ::
         :: repulsion energy           0.630326256045 Eh    ::

    * Orbital Energies and Occupations

         #    Occupation            Energy/Eh            Energy/eV
      -------------------------------------------------------------
         1        2.0000           -0.8673763             -23.6025
       ...           ...                  ...                  ...
        24        2.0000           -0.6279482             -17.0873
        25        2.0000           -0.6142325             -16.7141
        26        2.0000           -0.5979224             -16.2703
        27        2.0000           -0.5930464             -16.1376
        28        2.0000           -0.5853250             -15.9275
        29        2.0000           -0.5767886             -15.6952
        30        2.0000           -0.5750102             -15.6468
        31        2.0000           -0.5729474             -15.5907
        32        2.0000           -0.5674622             -15.4414
        33        2.0000           -0.5241247             -14.2622
        34        2.0000           -0.5206060             -14.1664
        35        2.0000           -0.5046448             -13.7321
        36        2.0000           -0.5031347             -13.6910 (HOMO)
        37                         -0.3273695              -8.9082 (LUMO)
        38                         -0.3229665              -8.7884
        39                         -0.2307039              -6.2778
        40                         -0.1949682              -5.3054
        41                         -0.1594940              -4.3401
        42                         -0.1509058              -4.1064
        43                         -0.1425306              -3.8785
        44                         -0.0735232              -2.0007
        45                         -0.0561789              -1.5287
        46                         -0.0405382              -1.1031
        47                         -0.0222339              -0.6050
       ...                                ...                  ...
        72                          0.5638915              15.3443
      -------------------------------------------------------------
                  HL-Gap            0.1757653 Eh            4.7828 eV

     #   Z          covCN         q      C6AA      α(0)
     1   6 C        3.754    -0.116    22.786     6.807
     2   6 C        3.853    -0.027    21.010     6.519
     3   6 C        2.980    -0.005    28.135     8.701
     4   6 C        2.923    -0.039    28.981     8.828
     5   6 C        2.920    -0.025    28.630     8.774
     6   6 C        2.920    -0.023    28.585     8.768
     7   6 C        2.919    -0.024    28.605     8.771
     8   6 C        2.924    -0.040    28.987     8.829
     9   6 C        3.767    -0.044    21.407     6.594
    10   7 N        3.621     0.144    18.805     6.441
    11   6 C        3.720    -0.095    22.426     6.764
    12   6 C        3.732    -0.098    22.461     6.765
    13   6 C        3.722    -0.099    22.504     6.775
    14   1 H        0.925     0.050     2.322     2.383
    15   1 H        0.925     0.036     2.505     2.475
    16   1 H        0.925     0.069     2.095     2.263
    17   1 H        0.924     0.052     2.291     2.367
    18   1 H        0.926     0.032     2.558     2.501
    19   1 H        0.926     0.049     2.327     2.386
    20   1 H        0.926     0.053     2.282     2.362
    21   1 H        0.926     0.051     2.312     2.378
    22   1 H        0.926     0.033     2.548     2.496
    23   1 H        0.924     0.083     1.951     2.185
    24   1 H        0.924     0.086     1.915     2.164
    25   1 H        0.925     0.099     1.796     2.096
    26   1 H        0.925     0.097     1.809     2.103
    27   1 H        0.925     0.103     1.759     2.074
    28   1 H        0.925     0.099     1.796     2.096
    29   1 H        0.925     0.100     1.788     2.091
    30   1 H        0.925     0.098     1.800     2.098
    31   1 H        0.925     0.097     1.816     2.108
    32   1 H        0.925     0.109     1.706     2.043
    33   1 H        0.925     0.096     1.824     2.112

Wiberg/Mayer (AO) data.
largest (>0.10) Wiberg bond orders for each atom

     #   Z sym  total        # sym  WBO       # sym  WBO       # sym  WBO
 ---------------------------------------------------------------------------
     1   6 C    3.991 --     2 C    1.004    14 H    0.984    16 H    0.980
                            15 H    0.979
     2   6 C    3.983 --     1 C    1.004     9 C    0.985     3 C    0.976
                            17 H    0.962
     3   6 C    3.983 --     8 C    1.419     4 C    1.414     2 C    0.976
                             6 C    0.110
     4   6 C    3.992 --     5 C    1.445     3 C    1.414    18 H    0.968
                             7 C    0.112
     5   6 C    3.991 --     4 C    1.445     6 C    1.437    19 H    0.970
                             8 C    0.111
     6   6 C    3.990 --     7 C    1.442     5 C    1.437    20 H    0.970
                             3 C    0.110
     7   6 C    3.991 --     6 C    1.442     8 C    1.440    21 H    0.969
                             4 C    0.112
     8   6 C    3.991 --     7 C    1.440     3 C    1.419    22 H    0.968
                             5 C    0.111
     9   6 C    3.921 --     2 C    0.985    23 H    0.967    24 H    0.965
                            10 N    0.914
    10   7 N    3.814 --    11 C    0.960    13 C    0.958    12 C    0.958
                             9 C    0.914
    11   6 C    3.928 --    25 H    0.975    26 H    0.974    27 H    0.972
                            10 N    0.960
    12   6 C    3.928 --    28 H    0.976    30 H    0.975    29 H    0.974
                            10 N    0.958
    13   6 C    3.925 --    31 H    0.975    33 H    0.975    32 H    0.965
                            10 N    0.958
    14   1 H    0.998 --     1 C    0.984
    15   1 H    0.998 --     1 C    0.979
    16   1 H    0.995 --     1 C    0.980
    17   1 H    0.997 --     2 C    0.962
    18   1 H    0.999 --     4 C    0.968
    19   1 H    0.997 --     5 C    0.970
    20   1 H    0.997 --     6 C    0.970
    21   1 H    0.997 --     7 C    0.969
    22   1 H    0.999 --     8 C    0.968
    23   1 H    0.993 --     9 C    0.967
    24   1 H    0.993 --     9 C    0.965
    25   1 H    0.990 --    11 C    0.975
    26   1 H    0.990 --    11 C    0.974
    27   1 H    0.989 --    11 C    0.972
    28   1 H    0.990 --    12 C    0.976
    29   1 H    0.989 --    12 C    0.974
    30   1 H    0.990 --    12 C    0.975
    31   1 H    0.991 --    13 C    0.975
    32   1 H    0.988 --    13 C    0.965
    33   1 H    0.991 --    13 C    0.975
 ---------------------------------------------------------------------------

molecular dipole:
                 x           y           z       tot (Debye)
 q only:       -2.240       2.003      -1.139
   full:       -2.313       2.048      -1.113       8.346

           -------------------------------------------------
          | TOTAL ENERGY              -38.406040945836 Eh   |
          | GRADIENT NORM               0.000301318428 Eh/α |
          | HOMO-LUMO GAP               4.782817100106 eV   |
           -------------------------------------------------

 * finished run on 2024/12/20 at 07:09:30.511
