   * xtb version 6.7.1 (edcfbbe) compiled by 'conda@3ef47c1a292c' on 2024-11-25

   ID    Z sym.   atoms
    1    7 N      1
    2    1 H      2-5

          program call               : xtb C1045.xyz --opt --namespace C1045 --charge +1
          :  Hamiltonian                  GFN2-xTB          :
 * total energy  :    -4.4948530 Eh     change       -0.1750600E-11 Eh
 * total energy  :    -4.4948759 Eh     change       -0.2290943E-04 Eh
 * total energy  :    -4.4948766 Eh     change       -0.6999299E-06 Eh
   *** GEOMETRY OPTIMIZATION CONVERGED AFTER 3 ITERATIONS ***

 final structure:
================
5
 xtb: 6.7.1 (edcfbbe)
N            0.96427188351253       -0.08441809084602        0.03996620519554
H            0.62099095579529        0.87110008132985        0.21238765119256
H            0.62098696560504       -0.41285529090415       -0.87374646845569
H            0.62099024974739       -0.71149749161950        0.78125940440110
H            1.99411994533975       -0.08441920796017        0.03996320766649

          :  Hamiltonian                  GFN2-xTB          :
         :: total energy              -4.494876559899 Eh    ::
         :: gradient norm              0.000423875176 Eh/a0 ::
         :: HOMO-LUMO gap             14.567842507498 eV    ::
         :: SCC energy                -4.560046756533 Eh    ::
         :: -> dispersion             -0.000317304569 Eh    ::
         :: repulsion energy           0.065170196633 Eh    ::

    * Orbital Energies and Occupations

         #    Occupation            Energy/Eh            Energy/eV
      -------------------------------------------------------------
         1        2.0000           -0.9256770             -25.1890
         2        2.0000           -0.8298049             -22.5801
         3        2.0000           -0.8298049             -22.5801
         4        2.0000           -0.8298048             -22.5801 (HOMO)
         5                         -0.2944465              -8.0123 (LUMO)
         6                         -0.1057013              -2.8763
         7                         -0.1057008              -2.8763
         8                         -0.1057006              -2.8763
      -------------------------------------------------------------
                  HL-Gap            0.5353584 Eh           14.5678 eV

     #   Z          covCN         q      C6AA      α(0)
     1   7 N        3.436    -0.223    25.857     7.552
     2   1 H        0.859     0.306     0.696     1.307
     3   1 H        0.859     0.306     0.696     1.307
     4   1 H        0.859     0.306     0.696     1.307
     5   1 H        0.859     0.306     0.696     1.307

Wiberg/Mayer (AO) data.
largest (>0.10) Wiberg bond orders for each atom

     #   Z sym  total        # sym  WBO       # sym  WBO       # sym  WBO
 ---------------------------------------------------------------------------
     1   7 N    3.615 --     2 H    0.904     3 H    0.904     4 H    0.904
                             5 H    0.904
     2   1 H    0.907 --     1 N    0.904
     3   1 H    0.907 --     1 N    0.904
     4   1 H    0.907 --     1 N    0.904
     5   1 H    0.907 --     1 N    0.904
 ---------------------------------------------------------------------------

molecular dipole:
                 x           y           z       tot (Debye)
 q only:        1.822      -0.160       0.076
   full:        1.822      -0.160       0.076       4.653

           -------------------------------------------------
          | TOTAL ENERGY               -4.494876559899 Eh   |
          | GRADIENT NORM               0.000423875176 Eh/α |
          | HOMO-LUMO GAP              14.567842507498 eV   |
           -------------------------------------------------

 * finished run on 2024/12/20 at 07:09:27.112
