   * xtb version 6.7.1 (edcfbbe) compiled by 'conda@3ef47c1a292c' on 2024-11-25

   ID    Z sym.   atoms
    1    6 C      1, 3, 4, 6-8, 10-21
    2    7 N      2, 5
    3    8 O      9
    4    1 H      22-38

          program call               : xtb C1043.xyz --opt --namespace C1043 --charge +1
          :  Hamiltonian                  GFN2-xTB          :
 * total energy  :   -56.7046057 Eh     change       -0.9845422E-09 Eh
 * total energy  :   -56.7129490 Eh     change       -0.8343298E-02 Eh
 * total energy  :   -56.7150495 Eh     change       -0.2100519E-02 Eh
 * total energy  :   -56.7155909 Eh     change       -0.5414083E-03 Eh
 * total energy  :   -56.7160372 Eh     change       -0.4462754E-03 Eh
 * total energy  :   -56.7163292 Eh     change       -0.2920145E-03 Eh
 * total energy  :   -56.7167185 Eh     change       -0.3893107E-03 Eh
 * total energy  :   -56.7171626 Eh     change       -0.4440215E-03 Eh
 * total energy  :   -56.7175763 Eh     change       -0.4137819E-03 Eh
 * total energy  :   -56.7178470 Eh     change       -0.2706509E-03 Eh
 * total energy  :   -56.7350041 Eh     change       -0.1552358E-04 Eh
 * total energy  :   -56.7350190 Eh     change       -0.1485332E-04 Eh
 * total energy  :   -56.7350292 Eh     change       -0.1018557E-04 Eh
 * total energy  :   -56.7350365 Eh     change       -0.7283276E-05 Eh
 * total energy  :   -56.7350426 Eh     change       -0.6108072E-05 Eh
 * total energy  :   -56.7350487 Eh     change       -0.6115011E-05 Eh
 * total energy  :   -56.7350552 Eh     change       -0.6550335E-05 Eh
 * total energy  :   -56.7350610 Eh     change       -0.5751005E-05 Eh
 * total energy  :   -56.7350656 Eh     change       -0.4622192E-05 Eh
   *** GEOMETRY OPTIMIZATION CONVERGED AFTER 110 ITERATIONS ***

 final structure:
================
38
 xtb: 6.7.1 (edcfbbe)
C           -1.28325752455997        0.71086657100917        2.98246186369446
N           -0.44205927538027        1.18427340073857        1.91727405698355
C            0.74044177777201        0.62165581935499        1.53811785983126
C            1.22204034320468        1.35190924279232        0.49700504446606
N            0.33469421514894        2.36143544994442        0.26524218749479
C           -0.67408703880740        2.22843708876397        1.12708852380132
C            0.30765308394733        3.23459752228251       -0.86814397234628
C           -0.96104227584307        2.88014265008709       -1.70888475366460
O           -1.80230193195992        2.17952780188924       -1.18723931361727
C           -1.03842497089606        3.42291795053399       -3.05004933685643
C           -2.12370287437580        3.02751883858000       -3.84884910417028
C           -2.25580073633273        3.48809389468266       -5.13669814366181
C           -1.31087490771688        4.36296124480726       -5.68322255087474
C           -0.23903905761829        4.77012780668876       -4.87933258627507
C           -0.09988847269324        4.31424392712257       -3.58930846442510
C           -1.43424233299938        4.83813599924575       -7.06119552247130
C           -2.68520684729982        5.14148497927105       -7.60106894480470
C           -2.79623218856259        5.58928297986347       -8.90336802261285
C           -1.66521987881423        5.72741966664907       -9.69211580442505
C           -0.41876688574753        5.42298314512424       -9.16868402437328
C           -0.30105199029657        4.98904941031619       -7.86243545277229
H           -2.19359392929349        1.30406938036935        3.02484966865416
H           -0.76067538234799        0.78570399177511        3.93710661325137
H           -1.54766025767970       -0.33315739385587        2.81195549554526
H            1.14811352583820       -0.24263009836937        2.02114157620081
H            2.11705923439131        1.22681386844276       -0.07717717079137
H           -1.52653037515074        2.87530744150407        1.19081408183583
H            0.22241734159008        4.27848541658935       -0.55377543063831
H            1.21708215184435        3.09814390667387       -1.45160568151423
H           -2.84583780732214        2.34362030319901       -3.42929175880546
H           -3.08364233467410        3.15324018895519       -5.74213496535549
H            0.48004148004947        5.47093241507232       -5.27489985530550
H            0.73189011867136        4.66824277560252       -3.00009452792824
H           -3.56856769880323        5.05737680752433       -6.98570243725019
H           -3.76823142235123        5.83061319713169       -9.30578649394453
H           -1.75464619889171        6.07102880259130      -10.71107371474143
H            0.46411823337563        5.52388134053468       -9.78142669838283
H            0.67120309054883        4.73081226660901       -7.46939223971393

          :  Hamiltonian                  GFN2-xTB          :
         :: total energy             -56.735065597161 Eh    ::
         :: gradient norm              0.000280187129 Eh/a0 ::
         :: HOMO-LUMO gap              2.060162393550 eV    ::
         :: SCC energy               -57.698818809592 Eh    ::
         :: -> dispersion             -0.037639891629 Eh    ::
         :: repulsion energy           0.963753212431 Eh    ::

    * Orbital Energies and Occupations

         #    Occupation            Energy/Eh            Energy/eV
      -------------------------------------------------------------
         1        2.0000           -0.8794842             -23.9320
       ...           ...                  ...                  ...
        40        2.0000           -0.5695621             -15.4986
        41        2.0000           -0.5681482             -15.4601
        42        2.0000           -0.5584409             -15.1960
        43        2.0000           -0.5540697             -15.0770
        44        2.0000           -0.5468079             -14.8794
        45        2.0000           -0.5304810             -14.4351
        46        2.0000           -0.5239136             -14.2564
        47        2.0000           -0.5221754             -14.2091
        48        2.0000           -0.5169544             -14.0670
        49        2.0000           -0.5031388             -13.6911
        50        2.0000           -0.4979509             -13.5499
        51        2.0000           -0.4841005             -13.1730
        52        2.0000           -0.4778455             -13.0028 (HOMO)
        53                         -0.4021359             -10.9427 (LUMO)
        54                         -0.3886009             -10.5744
        55                         -0.3568758              -9.7111
        56                         -0.3315878              -9.0230
        57                         -0.3247871              -8.8379
        58                         -0.3014286              -8.2023
        59                         -0.2799305              -7.6173
        60                         -0.1980974              -5.3905
        61                         -0.1652674              -4.4972
        62                         -0.1618894              -4.4052
        63                         -0.1149874              -3.1290
       ...                                ...                  ...
       101                          0.6032165              16.4144
      -------------------------------------------------------------
                  HL-Gap            0.0757096 Eh            2.0602 eV

     #   Z          covCN         q      C6AA      α(0)
     1   6 C        3.692    -0.085    22.309     6.758
     2   7 N        2.867     0.076    19.917     6.628
     3   6 C        3.070    -0.009    28.170     8.703
     4   6 C        3.066    -0.008    28.154     8.701
     5   7 N        2.872     0.072    19.991     6.641
     6   6 C        3.093     0.059    26.571     8.449
     7   6 C        3.743    -0.050    21.545     6.622
     8   6 C        2.823     0.223    23.304     7.910
     9   8 O        0.857    -0.370    21.083     6.156
    10   6 C        2.970    -0.023    28.579     8.769
    11   6 C        2.924    -0.011    28.296     8.723
    12   6 C        2.920    -0.027    28.679     8.782
    13   6 C        2.977     0.037    27.173     8.551
    14   6 C        2.922    -0.028    28.699     8.785
    15   6 C        2.916    -0.029    28.721     8.788
    16   6 C        2.977     0.008    27.831     8.654
    17   6 C        2.924    -0.028    28.701     8.786
    18   6 C        2.918    -0.023    28.588     8.768
    19   6 C        2.920    -0.020    28.496     8.754
    20   6 C        2.918    -0.024    28.598     8.769
    21   6 C        2.924    -0.029    28.715     8.788
    22   1 H        0.925     0.100     1.787     2.091
    23   1 H        0.924     0.102     1.764     2.077
    24   1 H        0.924     0.106     1.728     2.056
    25   1 H        0.926     0.106     1.728     2.055
    26   1 H        0.926     0.102     1.768     2.080
    27   1 H        0.926     0.122     1.598     1.977
    28   1 H        0.924     0.098     1.802     2.099
    29   1 H        0.925     0.098     1.806     2.102
    30   1 H        0.926     0.070     2.082     2.257
    31   1 H        0.926     0.062     2.175     2.306
    32   1 H        0.926     0.058     2.223     2.331
    33   1 H        0.926     0.039     2.466     2.456
    34   1 H        0.926     0.041     2.437     2.441
    35   1 H        0.926     0.048     2.341     2.393
    36   1 H        0.926     0.050     2.317     2.380
    37   1 H        0.926     0.047     2.354     2.399
    38   1 H        0.926     0.038     2.474     2.460

Wiberg/Mayer (AO) data.
largest (>0.10) Wiberg bond orders for each atom

     #   Z sym  total        # sym  WBO       # sym  WBO       # sym  WBO
 ---------------------------------------------------------------------------
     1   6 C    3.935 --     2 N    0.991    22 H    0.976    24 H    0.964
                            23 H    0.963
     2   7 N    3.715 --     6 C    1.359     3 C    1.219     1 C    0.991
     3   6 C    3.949 --     4 C    1.602     2 N    1.219    25 H    0.962
     4   6 C    3.948 --     3 C    1.602     5 N    1.212    26 H    0.962
     5   7 N    3.708 --     6 C    1.341     4 C    1.212     7 C    0.997
     6   6 C    3.945 --     2 N    1.359     5 N    1.341    27 H    0.952
     7   6 C    3.944 --     5 N    0.997    29 H    0.959    28 H    0.944
                             8 C    0.912
     8   6 C    3.920 --     9 O    1.777    10 C    1.107     7 C    0.912
     9   8 O    2.086 --     8 C    1.777
    10   6 C    3.975 --    15 C    1.330    11 C    1.325     8 C    1.107
    11   6 C    3.982 --    12 C    1.496    10 C    1.325    30 H    0.964
    12   6 C    3.989 --    11 C    1.496    13 C    1.356    31 H    0.964
    13   6 C    3.982 --    12 C    1.356    14 C    1.347    16 C    1.073
    14   6 C    3.990 --    15 C    1.504    13 C    1.347    32 H    0.965
    15   6 C    3.989 --    14 C    1.504    10 C    1.330    33 H    0.966
    16   6 C    3.983 --    17 C    1.372    21 C    1.372    13 C    1.073
                            19 C    0.100
    17   6 C    3.984 --    18 C    1.458    16 C    1.372    34 H    0.968
                            20 C    0.106
    18   6 C    3.990 --    17 C    1.458    19 C    1.430    35 H    0.969
                            21 C    0.106
    19   6 C    3.975 --    18 C    1.430    20 C    1.430    36 H    0.970
                            16 C    0.100
    20   6 C    3.990 --    21 C    1.458    19 C    1.430    37 H    0.969
                            17 C    0.106
    21   6 C    3.984 --    20 C    1.458    16 C    1.372    38 H    0.968
                            18 C    0.106
    22   1 H    0.990 --     1 C    0.976
    23   1 H    0.989 --     1 C    0.963
    24   1 H    0.988 --     1 C    0.964
    25   1 H    0.988 --     3 C    0.962
    26   1 H    0.989 --     4 C    0.962
    27   1 H    0.985 --     6 C    0.952
    28   1 H    0.989 --     7 C    0.944
    29   1 H    0.990 --     7 C    0.959
    30   1 H    0.995 --    11 C    0.964
    31   1 H    0.995 --    12 C    0.964
    32   1 H    0.996 --    14 C    0.965
    33   1 H    0.998 --    15 C    0.966
    34   1 H    0.998 --    17 C    0.968
    35   1 H    0.997 --    18 C    0.969
    36   1 H    0.997 --    19 C    0.970
    37   1 H    0.997 --    20 C    0.969
    38   1 H    0.999 --    21 C    0.968
 ---------------------------------------------------------------------------

molecular dipole:
                 x           y           z       tot (Debye)
 q only:       -0.271       4.735      -1.017
   full:       -0.123       4.857      -0.963      12.589

           -------------------------------------------------
          | TOTAL ENERGY              -56.735065597161 Eh   |
          | GRADIENT NORM               0.000280187129 Eh/α |
          | HOMO-LUMO GAP               2.060162393550 eV   |
           -------------------------------------------------

 * finished run on 2024/12/20 at 07:09:25.489
