   * xtb version 6.7.1 (edcfbbe) compiled by 'conda@3ef47c1a292c' on 2024-11-25

   ID    Z sym.   atoms
    1    7 N      1, 4
    2    6 C      2, 3
    3    1 H      5-13

          program call               : xtb C1048.xyz --opt --namespace C1048 --charge +1
          :  Hamiltonian                  GFN2-xTB          :
 * total energy  :   -14.2658190 Eh     change       -0.2735590E-11 Eh
 * total energy  :   -14.2691023 Eh     change       -0.3283273E-02 Eh
 * total energy  :   -14.2714133 Eh     change       -0.2310969E-02 Eh
 * total energy  :   -14.2725001 Eh     change       -0.1086859E-02 Eh
 * total energy  :   -14.2728299 Eh     change       -0.3297358E-03 Eh
 * total energy  :   -14.2730301 Eh     change       -0.2001717E-03 Eh
 * total energy  :   -14.2731710 Eh     change       -0.1409653E-03 Eh
 * total energy  :   -14.2732427 Eh     change       -0.7165855E-04 Eh
 * total energy  :   -14.2732754 Eh     change       -0.3276830E-04 Eh
 * total energy  :   -14.2732872 Eh     change       -0.1171426E-04 Eh
 * total energy  :   -14.2732897 Eh     change       -0.2537857E-05 Eh
   *** GEOMETRY OPTIMIZATION CONVERGED AFTER 11 ITERATIONS ***

 final structure:
================
13
 xtb: 6.7.1 (edcfbbe)
N            0.91874936246989        0.05161422488668        0.46991957493128
C            0.53528055315450       -1.35804550471727        0.34352887622689
C            0.83351955386616       -1.98212119502682        1.72637769454913
N            0.55081974806889       -0.89686567033218        2.68482111503466
H            0.33517639623717        0.67658475176918       -0.07449823328090
H            1.88846412176300        0.21509296552430        0.21699138988387
H           -0.53328062134484       -1.41650591100681        0.13373089720614
H            1.06840330727207       -1.88992032711034       -0.44379312861508
H            0.23233207488375       -2.87141456678829        1.90263345703311
H            1.88712496704954       -2.25234415549711        1.79648129365798
H           -0.41165969626108       -0.90254309200661        3.02104520933128
H            1.18308434219876       -0.86569685465727        3.48164336742336
H            0.72342589064220       -0.04205466503743        1.88303848661830

          :  Hamiltonian                  GFN2-xTB          :
         :: total energy             -14.273289699254 Eh    ::
         :: gradient norm              0.000806626649 Eh/a0 ::
         :: HOMO-LUMO gap              9.850635116800 eV    ::
         :: SCC energy               -14.448791744088 Eh    ::
         :: -> dispersion             -0.004777005912 Eh    ::
         :: repulsion energy           0.175502044834 Eh    ::

    * Orbital Energies and Occupations

         #    Occupation            Energy/Eh            Energy/eV
      -------------------------------------------------------------
         1        2.0000           -0.8669284             -23.5903
         2        2.0000           -0.8305593             -22.6007
         3        2.0000           -0.8055955             -21.9214
         4        2.0000           -0.7712368             -20.9864
         5        2.0000           -0.7640529             -20.7909
         6        2.0000           -0.7574951             -20.6125
         7        2.0000           -0.7304004             -19.8752
         8        2.0000           -0.7165850             -19.4993
         9        2.0000           -0.6923299             -18.8393
        10        2.0000           -0.6721672             -18.2906
        11        2.0000           -0.6495488             -17.6751
        12        2.0000           -0.6257398             -17.0272
        13        2.0000           -0.5960005             -16.2180 (HOMO)
        14                         -0.2339964              -6.3674 (LUMO)
        15                         -0.1605041              -4.3675
        16                         -0.1452787              -3.9532
        17                         -0.1080048              -2.9390
        18                         -0.0814133              -2.2154
        19                         -0.0469187              -1.2767
        20                         -0.0321167              -0.8739
        21                         -0.0262674              -0.7148
        22                          0.0338501               0.9211
        23                          0.0559319               1.5220
        24                          0.0767950               2.0897
        25                          0.1226203               3.3367
      -------------------------------------------------------------
                  HL-Gap            0.3620042 Eh            9.8506 eV

     #   Z          covCN         q      C6AA      α(0)
     1   7 N        2.921    -0.276    27.106     7.733
     2   6 C        3.736    -0.027    21.141     6.562
     3   6 C        3.735    -0.037    21.315     6.589
     4   7 N        3.434    -0.202    25.374     7.481
     5   1 H        0.860     0.200     1.106     1.647
     6   1 H        0.860     0.197     1.120     1.658
     7   1 H        0.924     0.086     1.917     2.165
     8   1 H        0.925     0.088     1.897     2.154
     9   1 H        0.925     0.102     1.765     2.077
    10   1 H        0.925     0.100     1.782     2.088
    11   1 H        0.860     0.239     0.929     1.510
    12   1 H        0.860     0.239     0.925     1.507
    13   1 H        1.086     0.289     0.739     1.342

Wiberg/Mayer (AO) data.
largest (>0.10) Wiberg bond orders for each atom

     #   Z sym  total        # sym  WBO       # sym  WBO       # sym  WBO
 ---------------------------------------------------------------------------
     1   7 N    3.350 --     2 C    1.013     6 H    0.949     5 H    0.947
                            13 H    0.302     4 N    0.112
     2   6 C    3.964 --     1 N    1.013     3 C    0.993     7 H    0.973
                             8 H    0.970
     3   6 C    3.936 --     2 C    0.993     4 N    0.981     9 H    0.971
                            10 H    0.971
     4   7 N    3.574 --     3 C    0.981    12 H    0.930    11 H    0.930
                            13 H    0.602     1 N    0.112
     5   1 H    0.960 --     1 N    0.947
     6   1 H    0.961 --     1 N    0.949
     7   1 H    0.993 --     2 C    0.973
     8   1 H    0.992 --     2 C    0.970
     9   1 H    0.990 --     3 C    0.971
    10   1 H    0.990 --     3 C    0.971
    11   1 H    0.943 --     4 N    0.930
    12   1 H    0.943 --     4 N    0.930
    13   1 H    0.917 --     4 N    0.602     1 N    0.302
 ---------------------------------------------------------------------------

molecular dipole:
                 x           y           z       tot (Debye)
 q only:        1.296      -1.491       3.268
   full:        1.309      -1.465       3.202       9.548

           -------------------------------------------------
          | TOTAL ENERGY              -14.273289699254 Eh   |
          | GRADIENT NORM               0.000806626649 Eh/α |
          | HOMO-LUMO GAP               9.850635116800 eV   |
           -------------------------------------------------

 * finished run on 2024/12/20 at 07:09:29.506
