   * xtb version 6.7.1 (edcfbbe) compiled by 'conda@3ef47c1a292c' on 2024-11-25

   ID    Z sym.   atoms
    1    6 C      1-6, 9-19
    2    7 N      7, 8
    3    1 H      20-44

          program call               : xtb C1044.xyz --opt --namespace C1044 --charge +1
          :  Hamiltonian                  GFN2-xTB          :
 * total energy  :   -54.6088020 Eh     change       -0.1507601E-08 Eh
 * total energy  :   -54.6288464 Eh     change       -0.2004447E-01 Eh
 * total energy  :   -54.6327861 Eh     change       -0.3939628E-02 Eh
 * total energy  :   -54.6335390 Eh     change       -0.7529095E-03 Eh
 * total energy  :   -54.6341075 Eh     change       -0.5685174E-03 Eh
 * total energy  :   -54.6343003 Eh     change       -0.1928596E-03 Eh
 * total energy  :   -54.6344546 Eh     change       -0.1542942E-03 Eh
 * total energy  :   -54.6345802 Eh     change       -0.1255144E-03 Eh
 * total energy  :   -54.6347043 Eh     change       -0.1241933E-03 Eh
 * total energy  :   -54.6348207 Eh     change       -0.1163694E-03 Eh
 * total energy  :   -54.6353726 Eh     change       -0.9589837E-05 Eh
 * total energy  :   -54.6353862 Eh     change       -0.1365256E-04 Eh
 * total energy  :   -54.6353944 Eh     change       -0.8245135E-05 Eh
 * total energy  :   -54.6354035 Eh     change       -0.9101005E-05 Eh
 * total energy  :   -54.6354113 Eh     change       -0.7791291E-05 Eh
 * total energy  :   -54.6354180 Eh     change       -0.6627254E-05 Eh
 * total energy  :   -54.6354249 Eh     change       -0.6944330E-05 Eh
 * total energy  :   -54.6354313 Eh     change       -0.6405130E-05 Eh
 * total energy  :   -54.6354359 Eh     change       -0.4548785E-05 Eh
   *** GEOMETRY OPTIMIZATION CONVERGED AFTER 32 ITERATIONS ***

 final structure:
================
44
 xtb: 6.7.1 (edcfbbe)
C            1.30704431782558       -0.76404611023359       -0.24602814743112
C            0.63104013487755        0.06704372368482       -1.13033222526476
C           -0.73543872138355       -0.08183263137181       -1.29005639240223
C           -1.41912459093856       -1.05037401005917       -0.57293383726930
C           -0.73687056938996       -1.88590938175663        0.29706386197265
C            0.63080347729570       -1.75152533586540        0.46202415665324
N            2.71234203985668       -0.62390766643902       -0.08943492689946
N            3.32077488174041       -0.30700357803345        1.07983286147635
C            4.65187385197346       -0.33833677521420        0.89651736078820
C            4.88681866779465       -0.68963030947656       -0.42578552392483
C            3.64865299314548       -0.86561018891400       -1.02518691376037
C            3.32655098599241       -1.26480735429557       -2.41150781287516
C            5.63568322524684       -0.07076270284697        1.96693047853489
C            2.61712128910347        0.09557568494067        2.27462340610246
C            2.58410498816081        1.61880317289692        2.44974439932594
C            1.66506514292495        2.33640817696696        1.46103085215982
C            0.17059911639371        2.07913986711067        1.67075084327097
C           -0.38316286352799        2.56737974568212        3.01131125377311
C           -0.24836145343132        4.07229627710859        3.20903381205570
H            1.16877826855824        0.82252832174152       -1.68180212603303
H           -1.26489498105554        0.56236659272410       -1.97359011395574
H           -2.48480044913665       -1.15900769263604       -0.69597997349445
H           -1.26631809245003       -2.64867790033752        0.84551646829709
H            1.17102955655435       -2.41644062422894        1.12000522784872
H            5.84186793654492       -0.80969019514988       -0.89297877378394
H            2.37476195007277       -1.78891215811683       -2.45898933839939
H            3.26614343214617       -0.38791157510176       -3.05642739537840
H            4.11352259057635       -1.90552507109571       -2.80087290537181
H            5.65055099039162        0.98439502721386        2.23604393835360
H            5.40171614926763       -0.64049059156782        2.86495462889579
H            6.62837836543561       -0.34771275285890        1.62455992480893
H            1.59909705623304       -0.29139322282265        2.23062834677480
H            3.12504672748262       -0.36231948449397        3.12698504765525
H            2.25543462240350        1.82733349464167        3.46684027410187
H            3.59479988949606        2.01566879797914        2.34590324050653
H            1.84703319722299        3.40729969605165        1.54764564723997
H            1.93471598054871        2.05191378204797        0.44073072664018
H           -0.36866947134359        2.58912464032587        0.86988884354177
H           -0.04829423107685        1.01289769805235        1.57122046114442
H           -1.44154092912409        2.30196826644892        3.04704864354772
H            0.10485618732846        2.04430095542606        3.83618296054624
H           -0.67669841312306        4.60696341612316        2.36458722863031
H           -0.77673717938842        4.37791470897286        4.10791816468411
H            0.79178393278071        4.36929526677968        3.31634334691291

          :  Hamiltonian                  GFN2-xTB          :
         :: total energy             -54.635435866525 Eh    ::
         :: gradient norm              0.000296989564 Eh/a0 ::
         :: HOMO-LUMO gap              3.210090098877 eV    ::
         :: SCC energy               -55.533844667243 Eh    ::
         :: -> dispersion             -0.044163522317 Eh    ::
         :: repulsion energy           0.898408800718 Eh    ::

    * Orbital Energies and Occupations

         #    Occupation            Energy/Eh            Energy/eV
      -------------------------------------------------------------
         1        2.0000           -0.8764994             -23.8508
       ...           ...                  ...                  ...
        39        2.0000           -0.5825759             -15.8527
        40        2.0000           -0.5728674             -15.5885
        41        2.0000           -0.5644595             -15.3597
        42        2.0000           -0.5632018             -15.3255
        43        2.0000           -0.5579926             -15.1838
        44        2.0000           -0.5547529             -15.0956
        45        2.0000           -0.5505387             -14.9809
        46        2.0000           -0.5488188             -14.9341
        47        2.0000           -0.5432002             -14.7812
        48        2.0000           -0.5404528             -14.7065
        49        2.0000           -0.5273829             -14.3508
        50        2.0000           -0.5209854             -14.1767
        51        2.0000           -0.5155394             -14.0285 (HOMO)
        52                         -0.3975708             -10.8185 (LUMO)
        53                         -0.3645087              -9.9188
        54                         -0.3620545              -9.8520
        55                         -0.3208031              -8.7295
        56                         -0.2376262              -6.4661
        57                         -0.2046756              -5.5695
        58                         -0.1156200              -3.1462
        59                         -0.0595857              -1.6214
        60                         -0.0463729              -1.2619
        61                         -0.0320749              -0.8728
        62                         -0.0263662              -0.7175
       ...                                ...                  ...
       101                          0.5330808              14.5059
      -------------------------------------------------------------
                  HL-Gap            0.1179686 Eh            3.2101 eV

     #   Z          covCN         q      C6AA      α(0)
     1   6 C        2.914     0.043    27.040     8.527
     2   6 C        2.920    -0.031    28.780     8.797
     3   6 C        2.921    -0.017    28.435     8.745
     4   6 C        2.919    -0.016    28.404     8.740
     5   6 C        2.920    -0.019    28.480     8.751
     6   6 C        2.920    -0.038    28.939     8.822
     7   7 N        2.965     0.061    20.172     6.671
     8   7 N        2.949     0.063    20.133     6.664
     9   6 C        3.061     0.064    26.516     8.444
    10   6 C        3.036    -0.080    29.958     8.978
    11   6 C        3.057     0.064    26.511     8.444
    12   6 C        3.755    -0.126    22.983     6.836
    13   6 C        3.755    -0.127    22.997     6.838
    14   6 C        3.738    -0.025    21.101     6.555
    15   6 C        3.801    -0.070    21.846     6.655
    16   6 C        3.800    -0.064    21.720     6.636
    17   6 C        3.800    -0.061    21.674     6.628
    18   6 C        3.799    -0.056    21.589     6.616
    19   6 C        3.751    -0.108    22.635     6.785
    20   1 H        0.926     0.057     2.229     2.335
    21   1 H        0.926     0.070     2.089     2.260
    22   1 H        0.926     0.071     2.073     2.251
    23   1 H        0.926     0.068     2.105     2.269
    24   1 H        0.926     0.052     2.297     2.370
    25   1 H        0.927     0.087     1.912     2.162
    26   1 H        0.925     0.076     2.017     2.221
    27   1 H        0.925     0.092     1.862     2.134
    28   1 H        0.925     0.091     1.868     2.138
    29   1 H        0.925     0.088     1.895     2.153
    30   1 H        0.925     0.082     1.959     2.189
    31   1 H        0.925     0.090     1.882     2.145
    32   1 H        0.925     0.084     1.939     2.177
    33   1 H        0.924     0.081     1.970     2.195
    34   1 H        0.925     0.073     2.052     2.240
    35   1 H        0.924     0.049     2.332     2.388
    36   1 H        0.925     0.060     2.203     2.321
    37   1 H        0.924     0.022     2.699     2.569
    38   1 H        0.924     0.041     2.431     2.438
    39   1 H        0.924     0.016     2.795     2.615
    40   1 H        0.924     0.039     2.456     2.451
    41   1 H        0.924     0.030     2.585     2.514
    42   1 H        0.925     0.042     2.424     2.435
    43   1 H        0.925     0.046     2.372     2.408
    44   1 H        0.925     0.036     2.500     2.473

Wiberg/Mayer (AO) data.
largest (>0.10) Wiberg bond orders for each atom

     #   Z sym  total        # sym  WBO       # sym  WBO       # sym  WBO
 ---------------------------------------------------------------------------
     1   6 C    3.938 --     2 C    1.393     6 C    1.389     7 N    0.973
                             4 C    0.105
     2   6 C    3.988 --     3 C    1.441     1 C    1.393    20 H    0.966
                             5 C    0.109
     3   6 C    3.988 --     2 C    1.441     4 C    1.438    21 H    0.967
                             6 C    0.109
     4   6 C    3.984 --     3 C    1.438     5 C    1.437    22 H    0.967
                             1 C    0.105
     5   6 C    3.988 --     6 C    1.442     4 C    1.437    23 H    0.967
                             2 C    0.109
     6   6 C    3.989 --     5 C    1.442     1 C    1.389    24 H    0.967
                             3 C    0.109
     7   7 N    3.634 --    11 C    1.286     8 N    1.090     1 C    0.973
                             9 C    0.107
     8   7 N    3.635 --     9 C    1.301     7 N    1.090    14 C    0.971
                            11 C    0.110
     9   6 C    3.953 --    10 C    1.411     8 N    1.301    13 C    1.046
                             7 N    0.107
    10   6 C    3.973 --    11 C    1.416     9 C    1.411    25 H    0.967
    11   6 C    3.954 --    10 C    1.416     7 N    1.286    12 C    1.046
                             8 N    0.110
    12   6 C    3.983 --    11 C    1.046    26 H    0.971    28 H    0.968
                            27 H    0.948
    13   6 C    3.982 --     9 C    1.046    31 H    0.975    30 H    0.958
                            29 H    0.950
    14   6 C    3.940 --    15 C    0.985     8 N    0.971    33 H    0.957
                            32 H    0.956
    15   6 C    3.985 --    16 C    1.008    14 C    0.985    35 H    0.972
                            34 H    0.964
    16   6 C    3.994 --    15 C    1.008    17 C    1.007    37 H    0.975
                            36 H    0.970
    17   6 C    3.996 --    16 C    1.007    18 C    1.007    38 H    0.976
                            39 H    0.973
    18   6 C    3.997 --    19 C    1.021    17 C    1.007    40 H    0.977
                            41 H    0.975
    19   6 C    3.995 --    18 C    1.021    42 H    0.987    43 H    0.986
                            44 H    0.986
    20   1 H    0.997 --     2 C    0.966
    21   1 H    0.994 --     3 C    0.967
    22   1 H    0.995 --     4 C    0.967
    23   1 H    0.994 --     5 C    0.967
    24   1 H    0.997 --     6 C    0.967
    25   1 H    0.991 --    10 C    0.967
    26   1 H    0.994 --    12 C    0.971
    27   1 H    0.990 --    12 C    0.948
    28   1 H    0.991 --    12 C    0.968
    29   1 H    0.991 --    13 C    0.950
    30   1 H    0.992 --    13 C    0.958
    31   1 H    0.991 --    13 C    0.975
    32   1 H    0.993 --    14 C    0.956
    33   1 H    0.993 --    14 C    0.957
    34   1 H    0.993 --    15 C    0.964
    35   1 H    0.997 --    15 C    0.972
    36   1 H    0.996 --    16 C    0.970
    37   1 H    1.000 --    16 C    0.975
    38   1 H    0.998 --    17 C    0.976
    39   1 H    1.000 --    17 C    0.973
    40   1 H    0.998 --    18 C    0.977
    41   1 H    0.999 --    18 C    0.975
    42   1 H    0.998 --    19 C    0.987
    43   1 H    0.998 --    19 C    0.986
    44   1 H    0.999 --    19 C    0.986
 ---------------------------------------------------------------------------

molecular dipole:
                 x           y           z       tot (Debye)
 q only:        4.867      -0.497       0.867
   full:        4.915      -0.587       0.874      12.777

           -------------------------------------------------
          | TOTAL ENERGY              -54.635435866525 Eh   |
          | GRADIENT NORM               0.000296989564 Eh/α |
          | HOMO-LUMO GAP               3.210090098877 eV   |
           -------------------------------------------------

 * finished run on 2024/12/20 at 07:09:27.085
