   * xtb version 6.7.1 (edcfbbe) compiled by 'conda@3ef47c1a292c' on 2024-11-25

   ID    Z sym.   atoms
    1    8 O      1, 17, 19
    2    6 C      2-8, 10, 12, 13, 15, 16, 18, 20-23
    3   17 Cl     9
    4    7 N      11, 14
    5    1 H      24-43

          program call               : xtb C1040.xyz --opt --namespace C1040 --charge +1
          :  Hamiltonian                  GFN2-xTB          :
 * total energy  :   -68.7793778 Eh     change       -0.7667893E-09 Eh
 * total energy  :   -68.7895222 Eh     change       -0.1014440E-01 Eh
 * total energy  :   -68.7922820 Eh     change       -0.2759772E-02 Eh
 * total energy  :   -68.7933243 Eh     change       -0.1042351E-02 Eh
 * total energy  :   -68.7940811 Eh     change       -0.7567712E-03 Eh
 * total energy  :   -68.7944383 Eh     change       -0.3572351E-03 Eh
 * total energy  :   -68.7947582 Eh     change       -0.3199042E-03 Eh
 * total energy  :   -68.7950548 Eh     change       -0.2965282E-03 Eh
 * total energy  :   -68.7952794 Eh     change       -0.2246572E-03 Eh
 * total energy  :   -68.7954443 Eh     change       -0.1648581E-03 Eh
 * total energy  :   -68.8004052 Eh     change       -0.1354126E-04 Eh
 * total energy  :   -68.8004268 Eh     change       -0.2161933E-04 Eh
 * total energy  :   -68.8004382 Eh     change       -0.1137368E-04 Eh
 * total energy  :   -68.8004454 Eh     change       -0.7206630E-05 Eh
 * total energy  :   -68.8004517 Eh     change       -0.6322381E-05 Eh
 * total energy  :   -68.8004578 Eh     change       -0.6147549E-05 Eh
 * total energy  :   -68.8004631 Eh     change       -0.5301842E-05 Eh
 * total energy  :   -68.8004624 Eh     change        0.7327666E-06 Eh
 * total energy  :   -68.8004666 Eh     change       -0.4244133E-05 Eh
   *** GEOMETRY OPTIMIZATION CONVERGED AFTER 83 ITERATIONS ***

 final structure:
================
43
 xtb: 6.7.1 (edcfbbe)
O            1.85508222138930        1.18226993598076       -0.62728092239721
C            2.88274485960348        0.61236684464896       -0.91632000491013
C            3.19325266646326       -0.76895790205926       -0.56904031007113
C            2.18741102442640       -1.51707811671012        0.06017090571410
C            2.40067805211297       -2.82784209258058        0.42155339179639
C            3.63536692177934       -3.41771062103367        0.16346623814489
C            4.64816254681913       -2.68681749325733       -0.45580373903404
C            4.42991106006992       -1.37655432024166       -0.82036390164777
Cl           3.91625001665227       -5.04627032712096        0.60923753871187
C            3.96629335463032        1.40267798612904       -1.70301994365899
N            3.40953914928377        2.65603227071321       -2.13180848590481
C            2.94616568868355        2.92027425690681       -3.39056014434093
C            2.37828628862288        4.15079726706389       -3.37391225447482
N            2.48080313985037        4.59563364562677       -2.08833053484543
C            3.10625336527804        3.68318902498144       -1.33213437498138
C            3.41165438315908        3.83055753558278        0.10135527420548
O            2.10453480486088        5.83473887324990       -1.67342249817287
C            3.17655726747183        6.70326914091221       -1.39723214486270
O            4.29213677634777        6.29267782567962       -1.46236990823795
C            2.67813148257442        8.08410869274625       -1.08395263289098
C            1.47516824709357        8.02716996163927       -0.13856297213194
C            3.82356390888488        8.88459042753724       -0.46295621914795
C            2.26581034586992        8.70066344389357       -2.43205107098978
H            1.23719431245899       -1.04193914762701        0.25148758435166
H            1.62208099481860       -3.39834307263182        0.90177148570244
H            5.60088067188769       -3.15441941114528       -0.64616044063645
H            5.23326189706065       -0.83243520760277       -1.29124923643451
H            4.82588385582320        1.57640618771091       -1.05099058991951
H            4.28052074014541        0.83835953083707       -2.58091763870813
H            3.05733531774112        2.22870319837863       -4.20057938778188
H            1.91010441525849        4.72890777312006       -4.14347558201735
H            3.21670227341144        2.90268089542944        0.63374064839869
H            4.45823094279088        4.10831369790408        0.24094442782478
H            2.79145267980490        4.61296770705464        0.53307335444841
H            1.75013200079169        7.57332059794384        0.81075915752954
H            1.12978801159481        9.03811817390655        0.05785627140332
H            0.65675585677072        7.46255844615727       -0.57607898125297
H            4.68754537343928        8.89339427442616       -1.12190617753535
H            3.50436542855399        9.90824330238785       -0.29250885930817
H            4.12405963687677        8.45292516715974        0.48843600553010
H            3.10228345322029        8.70637173775114       -3.12741829190858
H            1.43738635037235        8.15176825963283       -2.87293154029204
H            1.95099821523828        9.72743162891608       -2.26873349524731

          :  Hamiltonian                  GFN2-xTB          :
         :: total energy             -68.800466653714 Eh    ::
         :: gradient norm              0.000796915070 Eh/a0 ::
         :: HOMO-LUMO gap              2.546805653616 eV    ::
         :: SCC energy               -69.708709552898 Eh    ::
         :: -> dispersion             -0.043174884518 Eh    ::
         :: repulsion energy           0.908242899184 Eh    ::

    * Orbital Energies and Occupations

         #    Occupation            Energy/Eh            Energy/eV
      -------------------------------------------------------------
         1        2.0000           -1.1466773             -31.2027
       ...           ...                  ...                  ...
        49        2.0000           -0.5678481             -15.4519
        50        2.0000           -0.5673138             -15.4374
        51        2.0000           -0.5651644             -15.3789
        52        2.0000           -0.5608393             -15.2612
        53        2.0000           -0.5587425             -15.2042
        54        2.0000           -0.5487342             -14.9318
        55        2.0000           -0.5481001             -14.9146
        56        2.0000           -0.5471459             -14.8886
        57        2.0000           -0.5415808             -14.7372
        58        2.0000           -0.5320700             -14.4784
        59        2.0000           -0.5304004             -14.4329
        60        2.0000           -0.5120552             -13.9337
        61        2.0000           -0.5031321             -13.6909 (HOMO)
        62                         -0.4095387             -11.1441 (LUMO)
        63                         -0.3932700             -10.7014
        64                         -0.3791248             -10.3165
        65                         -0.3619265              -9.8485
        66                         -0.3474898              -9.4557
        67                         -0.3185458              -8.6681
        68                         -0.2454308              -6.6785
        69                         -0.2243413              -6.1046
        70                         -0.2124438              -5.7809
        71                         -0.1446936              -3.9373
        72                         -0.0811636              -2.2086
       ...                                ...                  ...
       117                          0.5429007              14.7731
      -------------------------------------------------------------
                  HL-Gap            0.0935934 Eh            2.5468 eV

     #   Z          covCN         q      C6AA      α(0)
     1   8 O        0.857    -0.360    20.894     6.128
     2   6 C        2.822     0.226    23.259     7.902
     3   6 C        2.969    -0.023    28.570     8.767
     4   6 C        2.928    -0.009    28.239     8.715
     5   6 C        2.952    -0.031    28.774     8.798
     6   6 C        2.887     0.118    25.411     8.264
     7   6 C        2.955    -0.032    28.807     8.803
     8   6 C        2.919    -0.027    28.665     8.780
     9  17 Cl       0.971    -0.098   102.213    15.467
    10   6 C        3.742    -0.051    21.561     6.625
    11   7 N        2.881     0.058    20.223     6.679
    12   6 C        3.061    -0.007    28.131     8.698
    13   6 C        3.015    -0.017    28.418     8.745
    14   7 N        2.930     0.189    18.099     6.319
    15   6 C        3.068     0.114    25.414     8.266
    16   6 C        3.754    -0.126    22.977     6.835
    17   8 O        1.770    -0.199    17.306     5.617
    18   6 C        2.724     0.352    21.026     7.507
    19   8 O        0.856    -0.354    20.781     6.112
    20   6 C        3.901     0.015    20.276     6.401
    21   6 C        3.759    -0.122    22.885     6.820
    22   6 C        3.763    -0.121    22.871     6.817
    23   6 C        3.766    -0.116    22.764     6.800
    24   1 H        0.926     0.087     1.908     2.160
    25   1 H        0.926     0.086     1.921     2.167
    26   1 H        0.926     0.082     1.961     2.190
    27   1 H        0.926     0.055     2.258     2.350
    28   1 H        0.924     0.103     1.760     2.075
    29   1 H        0.925     0.103     1.759     2.074
    30   1 H        0.926     0.111     1.691     2.033
    31   1 H        0.926     0.119     1.618     1.989
    32   1 H        0.925     0.106     1.727     2.055
    33   1 H        0.924     0.111     1.684     2.029
    34   1 H        0.925     0.097     1.813     2.106
    35   1 H        0.925     0.050     2.320     2.382
    36   1 H        0.925     0.073     2.049     2.239
    37   1 H        0.925     0.060     2.199     2.319
    38   1 H        0.925     0.065     2.145     2.290
    39   1 H        0.925     0.069     2.098     2.265
    40   1 H        0.925     0.056     2.249     2.345
    41   1 H        0.925     0.056     2.250     2.346
    42   1 H        0.925     0.055     2.257     2.350
    43   1 H        0.925     0.078     2.001     2.212

Wiberg/Mayer (AO) data.
largest (>0.10) Wiberg bond orders for each atom

     #   Z sym  total        # sym  WBO       # sym  WBO       # sym  WBO
 ---------------------------------------------------------------------------
     1   8 O    2.072 --     2 C    1.800
     2   6 C    3.925 --     1 O    1.800     3 C    1.086    10 C    0.923
     3   6 C    3.984 --     8 C    1.344     4 C    1.339     2 C    1.086
     4   6 C    3.982 --     5 C    1.481     3 C    1.339    24 H    0.961
     5   6 C    3.985 --     4 C    1.481     6 C    1.373    25 H    0.962
     6   6 C    3.929 --     5 C    1.373     7 C    1.364     9 Cl   1.039
     7   6 C    3.986 --     8 C    1.489     6 C    1.364    26 H    0.964
     8   6 C    3.990 --     7 C    1.489     3 C    1.344    27 H    0.965
     9  17 Cl   1.198 --     6 C    1.039
    10   6 C    3.944 --    11 N    0.989    29 H    0.954    28 H    0.945
                             2 C    0.923
    11   7 N    3.694 --    15 C    1.322    12 C    1.199    10 C    0.989
    12   6 C    3.945 --    13 C    1.616    11 N    1.199    30 H    0.959
    13   6 C    3.939 --    12 C    1.616    14 N    1.186    31 H    0.959
    14   7 N    3.684 --    15 C    1.295    13 C    1.186    17 O    0.998
    15   6 C    3.944 --    11 N    1.322    14 N    1.295    16 C    1.050
    16   6 C    3.972 --    15 C    1.050    34 H    0.968    32 H    0.956
                            33 H    0.938
    17   8 O    2.225 --    14 N    0.998    18 C    0.959    19 O    0.143
    18   6 C    3.877 --    19 O    1.845    20 C    0.962    17 O    0.959
    19   8 O    2.113 --    18 C    1.845    17 O    0.143
    20   6 C    3.977 --    22 C    0.990    21 C    0.981    18 C    0.962
                            23 C    0.955
    21   6 C    3.987 --    35 H    0.985    37 H    0.982    20 C    0.981
                            36 H    0.980
    22   6 C    3.985 --    20 C    0.990    40 H    0.984    38 H    0.983
                            39 H    0.981
    23   6 C    3.986 --    42 H    0.985    41 H    0.984    43 H    0.975
                            20 C    0.955
    24   1 H    0.992 --     4 C    0.961
    25   1 H    0.992 --     5 C    0.962
    26   1 H    0.993 --     7 C    0.964
    27   1 H    0.997 --     8 C    0.965
    28   1 H    0.989 --    10 C    0.945
    29   1 H    0.989 --    10 C    0.954
    30   1 H    0.987 --    12 C    0.959
    31   1 H    0.985 --    13 C    0.959
    32   1 H    0.989 --    16 C    0.956
    33   1 H    0.987 --    16 C    0.938
    34   1 H    0.990 --    16 C    0.968
    35   1 H    0.997 --    21 C    0.985
    36   1 H    0.994 --    21 C    0.980
    37   1 H    0.996 --    21 C    0.982
    38   1 H    0.996 --    22 C    0.983
    39   1 H    0.994 --    22 C    0.981
    40   1 H    0.997 --    22 C    0.984
    41   1 H    0.997 --    23 C    0.984
    42   1 H    0.997 --    23 C    0.985
    43   1 H    0.994 --    23 C    0.975
 ---------------------------------------------------------------------------

molecular dipole:
                 x           y           z       tot (Debye)
 q only:        6.098       6.359      -2.985
   full:        6.244       5.895      -3.059      23.170

           -------------------------------------------------
          | TOTAL ENERGY              -68.800466653714 Eh   |
          | GRADIENT NORM               0.000796915070 Eh/α |
          | HOMO-LUMO GAP               2.546805653616 eV   |
           -------------------------------------------------

 * finished run on 2024/12/20 at 07:09:21.795
