   * xtb version 6.7.1 (edcfbbe) compiled by 'conda@3ef47c1a292c' on 2024-11-25

   ID    Z sym.   atoms
    1    6 C      1, 2, 4, 5, 7-9
    2    7 N      3, 6
    3    1 H      10-22

          program call               : xtb C1046.xyz --opt --namespace C1046 --charge +1
          :  Hamiltonian                  GFN2-xTB          :
 * total energy  :   -27.1023268 Eh     change       -0.5052669E-10 Eh
 * total energy  :   -27.1058760 Eh     change       -0.3549169E-02 Eh
 * total energy  :   -27.1064939 Eh     change       -0.6178605E-03 Eh
 * total energy  :   -27.1065800 Eh     change       -0.8610087E-04 Eh
 * total energy  :   -27.1066160 Eh     change       -0.3604376E-04 Eh
 * total energy  :   -27.1066177 Eh     change       -0.1709968E-05 Eh
   *** GEOMETRY OPTIMIZATION CONVERGED AFTER 6 ITERATIONS ***

 final structure:
================
22
 xtb: 6.7.1 (edcfbbe)
C            1.06716960651398        0.00795469782971        0.06480189816730
C            0.61106493903981        1.33594635604981        0.64436257054124
N            0.97173335716990        2.47392056114435       -0.18815312367423
C            1.67544391650756        2.43919784892092       -1.35807263741638
C            1.78525517772208        3.71713524457891       -1.80556191408165
N            1.14807270010556        4.51785664569646       -0.90470310115223
C            0.65829038411709        3.74902150629787        0.07608904706424
C           -0.09750572497945        4.26440490972608        1.23448880314989
C            1.01961110541028        5.94779636137035       -0.98677223706615
H            0.61708962526838       -0.17495559618744       -0.90743852261780
H            0.75130083898007       -0.78741553306378        0.73384199794034
H            2.14974549933725       -0.03765730966723       -0.01929319923940
H           -0.47718235549422        1.33038937195577        0.75866305290643
H            1.06236514679234        1.47861370768053        1.63128033392018
H            2.04550471402969        1.53480028132737       -1.79100913395249
H            2.26222927503559        4.10102953149213       -2.68333118597558
H            0.47696239371300        5.03476575710026        1.74895536165757
H           -1.03263662585516        4.71980476671655        0.90615202788624
H           -0.32862227935115        3.47437589484954        1.94121125447147
H           -0.03203460276239        6.23686051771291       -0.98644807237545
H            1.51256868591241        6.42528156189765       -0.13866433805488
H            1.48249422278740        6.29825291657131       -1.90605888209870

          :  Hamiltonian                  GFN2-xTB          :
         :: total energy             -27.106617714716 Eh    ::
         :: gradient norm              0.000400864228 Eh/a0 ::
         :: HOMO-LUMO gap              4.683579786075 eV    ::
         :: SCC energy               -27.524965872704 Eh    ::
         :: -> dispersion             -0.014917735065 Eh    ::
         :: repulsion energy           0.418348157988 Eh    ::

    * Orbital Energies and Occupations

         #    Occupation            Energy/Eh            Energy/eV
      -------------------------------------------------------------
         1        2.0000           -0.8891501             -24.1950
       ...           ...                  ...                  ...
        13        2.0000           -0.6926811             -18.8488
        14        2.0000           -0.6713982             -18.2697
        15        2.0000           -0.6675970             -18.1662
        16        2.0000           -0.6553420             -17.8328
        17        2.0000           -0.6498747             -17.6840
        18        2.0000           -0.6450625             -17.5530
        19        2.0000           -0.6376762             -17.3521
        20        2.0000           -0.6330386             -17.2259
        21        2.0000           -0.6217050             -16.9175
        22        2.0000           -0.6099656             -16.5980
        23        2.0000           -0.5996403             -16.3170
        24        2.0000           -0.5854216             -15.9301
        25        2.0000           -0.5680721             -15.4580 (HOMO)
        26                         -0.3959537             -10.7744 (LUMO)
        27                         -0.3616777              -9.8418
        28                         -0.1884642              -5.1284
        29                         -0.1326812              -3.6104
        30                         -0.0675872              -1.8391
        31                         -0.0635122              -1.7283
        32                         -0.0432363              -1.1765
        33                         -0.0257511              -0.7007
        34                         -0.0077565              -0.2111
        35                         -0.0053657              -0.1460
        36                          0.0115941               0.3155
       ...                                ...                  ...
        49                          0.4742086              12.9039
      -------------------------------------------------------------
                  HL-Gap            0.1721184 Eh            4.6836 eV

     #   Z          covCN         q      C6AA      α(0)
     1   6 C        3.752    -0.126    22.982     6.836
     2   6 C        3.739    -0.016    20.943     6.530
     3   7 N        2.866     0.038    20.571     6.736
     4   6 C        3.053    -0.009    28.187     8.707
     5   6 C        3.050    -0.012    28.275     8.721
     6   7 N        2.869     0.049    20.384     6.706
     7   6 C        3.110     0.101    25.620     8.292
     8   6 C        3.754    -0.139    23.226     6.872
     9   6 C        3.692    -0.081    22.239     6.748
    10   1 H        0.925     0.068     2.108     2.270
    11   1 H        0.925     0.083     1.952     2.185
    12   1 H        0.925     0.068     2.108     2.270
    13   1 H        0.924     0.084     1.939     2.178
    14   1 H        0.924     0.084     1.941     2.178
    15   1 H        0.927     0.109     1.702     2.040
    16   1 H        0.927     0.103     1.758     2.074
    17   1 H        0.925     0.101     1.772     2.082
    18   1 H        0.924     0.102     1.764     2.077
    19   1 H        0.925     0.094     1.842     2.123
    20   1 H        0.924     0.098     1.807     2.102
    21   1 H        0.924     0.097     1.810     2.104
    22   1 H        0.925     0.104     1.752     2.070

Wiberg/Mayer (AO) data.
largest (>0.10) Wiberg bond orders for each atom

     #   Z sym  total        # sym  WBO       # sym  WBO       # sym  WBO
 ---------------------------------------------------------------------------
     1   6 C    3.981 --     2 C    1.021    10 H    0.982    12 H    0.982
                            11 H    0.976
     2   6 C    3.944 --     1 C    1.021     3 N    0.961    13 H    0.959
                            14 H    0.958
     3   7 N    3.692 --     7 C    1.328     4 C    1.214     2 C    0.961
     4   6 C    3.948 --     5 C    1.602     3 N    1.214    15 H    0.958
     5   6 C    3.948 --     4 C    1.602     6 N    1.212    16 H    0.961
     6   7 N    3.697 --     7 C    1.323     5 C    1.212     9 C    0.993
     7   6 C    3.952 --     3 N    1.328     6 N    1.323     8 C    1.048
     8   6 C    3.978 --     7 C    1.048    19 H    0.972    17 H    0.951
                            18 H    0.947
     9   6 C    3.938 --     6 N    0.993    22 H    0.975    20 H    0.964
                            21 H    0.963
    10   1 H    0.995 --     1 C    0.982
    11   1 H    0.993 --     1 C    0.976
    12   1 H    0.995 --     1 C    0.982
    13   1 H    0.993 --     2 C    0.959
    14   1 H    0.993 --     2 C    0.958
    15   1 H    0.988 --     4 C    0.958
    16   1 H    0.989 --     5 C    0.961
    17   1 H    0.990 --     8 C    0.951
    18   1 H    0.990 --     8 C    0.947
    19   1 H    0.991 --     8 C    0.972
    20   1 H    0.990 --     9 C    0.964
    21   1 H    0.990 --     9 C    0.963
    22   1 H    0.989 --     9 C    0.975
 ---------------------------------------------------------------------------

molecular dipole:
                 x           y           z       tot (Debye)
 q only:        1.653       6.584      -0.469
   full:        1.649       6.646      -0.470      17.445

           -------------------------------------------------
          | TOTAL ENERGY              -27.106617714716 Eh   |
          | GRADIENT NORM               0.000400864228 Eh/α |
          | HOMO-LUMO GAP               4.683579786075 eV   |
           -------------------------------------------------

 * finished run on 2024/12/20 at 07:09:27.564
