   * xtb version 6.7.1 (edcfbbe) compiled by 'conda@3ef47c1a292c' on 2024-11-25

   ID    Z sym.   atoms
    1    6 C      1-6, 8-15, 17, 18
    2    7 N      7, 16
    3    1 H      19-39

          program call               : xtb C1047.xyz --opt --namespace C1047 --charge +1
          :  Hamiltonian                  GFN2-xTB          :
 * total energy  :   -50.4068651 Eh     change       -0.1752056E-09 Eh
 * total energy  :   -50.4108562 Eh     change       -0.3991117E-02 Eh
 * total energy  :   -50.4116795 Eh     change       -0.8232823E-03 Eh
 * total energy  :   -50.4118505 Eh     change       -0.1710315E-03 Eh
 * total energy  :   -50.4119828 Eh     change       -0.1322686E-03 Eh
 * total energy  :   -50.4120516 Eh     change       -0.6878154E-04 Eh
 * total energy  :   -50.4121385 Eh     change       -0.8690458E-04 Eh
 * total energy  :   -50.4122405 Eh     change       -0.1020193E-03 Eh
 * total energy  :   -50.4123265 Eh     change       -0.8603491E-04 Eh
 * total energy  :   -50.4124300 Eh     change       -0.1034687E-03 Eh
 * total energy  :   -50.4159894 Eh     change       -0.5439245E-04 Eh
 * total energy  :   -50.4160597 Eh     change       -0.7022186E-04 Eh
 * total energy  :   -50.4161092 Eh     change       -0.4956861E-04 Eh
 * total energy  :   -50.4161355 Eh     change       -0.2628845E-04 Eh
 * total energy  :   -50.4161469 Eh     change       -0.1139167E-04 Eh
 * total energy  :   -50.4161531 Eh     change       -0.6196214E-05 Eh
 * total energy  :   -50.4161592 Eh     change       -0.6053040E-05 Eh
 * total energy  :   -50.4161643 Eh     change       -0.5127314E-05 Eh
 * total energy  :   -50.4161690 Eh     change       -0.4761827E-05 Eh
   *** GEOMETRY OPTIMIZATION CONVERGED AFTER 62 ITERATIONS ***

 final structure:
================
39
 xtb: 6.7.1 (edcfbbe)
C            0.99031975212862        0.09517307486318       -0.50400076674773
C           -0.08408911511428       -0.83981465835997       -1.04587813385217
C            0.37022396893223       -2.29868394970039       -1.13546792005070
C            0.81141307660906       -2.91889087253808        0.19349923748492
C           -0.25492929489264       -2.92239510215552        1.28842778301928
C           -1.45336792021782       -3.83452841355471        0.98822614488508
N           -1.04804113446181       -5.22735674072051        0.98959794369564
C           -0.92075416621091       -5.87741870512187        2.15533295563301
C           -0.46605810887995       -7.17114708237095        2.21180775629725
C           -0.10973868163464       -7.84412785210452        1.03391784739888
C           -0.25320821388500       -7.13514174800227       -0.16624764043297
C           -0.72028910545143       -5.84275431235067       -0.15410844017366
C            0.38414669014986       -9.21783074384935        1.05583168490621
C            1.36151225154870       -9.64469211523089        0.15246712644436
C            1.79522127498632      -10.96036781443407        0.22077908126709
N            1.32174171501188      -11.83368464532843        1.08884992639277
C            0.39591861378231      -11.43963852422011        1.94262781551270
C           -0.10520059043765      -10.14667768922920        1.97825007088024
H            1.20060113248263       -0.10103212866737        0.54462666344838
H            0.66188814718775        1.12732730912462       -0.59090155831221
H            1.91253234089842       -0.01620808329916       -1.06933461373338
H           -0.98420046356163       -0.75880254331114       -0.43257717702790
H           -0.35484451889989       -0.51623493204143       -2.05260815129838
H           -0.43703041206004       -2.88602781796603       -1.58217545039484
H            1.21894248451576       -2.35308537771845       -1.82002430058710
H            1.15859610536012       -3.94072001212092        0.01033673574017
H            1.66881650477796       -2.35966074894439        0.56690562700119
H            0.19998422988193       -3.23349583162492        2.23168301620516
H           -0.63690292583993       -1.91183345652064        1.42558011977049
H           -2.22162514112185       -3.69228613812567        1.75079465867733
H           -1.87627391863926       -3.58524102184936        0.01483829136374
H           -1.19332334877193       -5.33750035340836        3.05015524487024
H           -0.36769814892777       -7.65630025205424        3.16957560203457
H           -0.01815344245071       -7.60250013785942       -1.10918206697251
H           -0.84851138353415       -5.28548814522588       -1.06992369783142
H            1.80054384539842       -8.96208332289105       -0.55791791005061
H            2.55462525767125      -11.33110993475549       -0.45363750529818
H            0.03999584194107      -12.19290794051889        2.63141030190408
H           -0.88277319826084       -9.88285123580635        2.67783369793001

          :  Hamiltonian                  GFN2-xTB          :
         :: total energy             -50.416169042238 Eh    ::
         :: gradient norm              0.000602758879 Eh/a0 ::
         :: HOMO-LUMO gap              0.722797443276 eV    ::
         :: SCC energy               -51.259248914853 Eh    ::
         :: -> dispersion             -0.035295976859 Eh    ::
         :: repulsion energy           0.843079872615 Eh    ::

    * Orbital Energies and Occupations

         #    Occupation            Energy/Eh            Energy/eV
      -------------------------------------------------------------
         1        2.0000           -0.8699822             -23.6734
       ...           ...                  ...                  ...
        35        2.0000           -0.5985536             -16.2875
        36        2.0000           -0.5936261             -16.1534
        37        2.0000           -0.5876076             -15.9896
        38        2.0000           -0.5698307             -15.5059
        39        2.0000           -0.5625413             -15.3075
        40        2.0000           -0.5564067             -15.1406
        41        2.0000           -0.5542283             -15.0813
        42        2.0000           -0.5538375             -15.0707
        43        2.0000           -0.5383063             -14.6481
        44        2.0000           -0.5323955             -14.4872
        45        2.0000           -0.5248049             -14.2807
        46        2.0000           -0.5192945             -14.1307
        47        2.0000           -0.4792468             -13.0410 (HOMO)
        48        0.0000           -0.4526844             -12.3182 (LUMO)
        49                         -0.4179104             -11.3719
        50                         -0.3686140             -10.0305
        51                         -0.3571577              -9.7188
        52                         -0.2935522              -7.9880
        53                         -0.2251098              -6.1255
        54                         -0.1614937              -4.3945
        55                         -0.0791430              -2.1536
        56                         -0.0614275              -1.6715
        57                         -0.0458936              -1.2488
        58                         -0.0352106              -0.9581
       ...                                ...                  ...
        93                          0.5086617              13.8414
      -------------------------------------------------------------
                  HL-Gap            0.0265623 Eh            0.7228 eV

     #   Z          covCN         q      C6AA      α(0)
     1   6 C        3.751    -0.109    22.650     6.787
     2   6 C        3.799    -0.057    21.607     6.618
     3   6 C        3.800    -0.062    21.695     6.632
     4   6 C        3.800    -0.066    21.757     6.641
     5   6 C        3.801    -0.069    21.815     6.650
     6   6 C        3.758    -0.033    21.217     6.567
     7   7 N        2.750     0.099    19.533     6.564
     8   6 C        2.891     0.030    27.335     8.572
     9   6 C        2.920    -0.023    28.583     8.767
    10   6 C        2.979     0.056    26.743     8.483
    11   6 C        2.920    -0.024    28.606     8.771
    12   6 C        2.888     0.031    27.296     8.566
    13   6 C        2.984     0.023    27.492     8.601
    14   6 C        2.917    -0.035    28.863     8.810
    15   6 C        2.909     0.067    26.505     8.442
    16   7 N        1.837    -0.175    25.588     7.496
    17   6 C        2.909     0.067    26.505     8.442
    18   6 C        2.917    -0.034    28.858     8.809
    19   1 H        0.925     0.035     2.521     2.483
    20   1 H        0.925     0.047     2.360     2.402
    21   1 H        0.925     0.043     2.406     2.426
    22   1 H        0.924     0.029     2.598     2.520
    23   1 H        0.924     0.044     2.400     2.422
    24   1 H        0.924     0.019     2.748     2.592
    25   1 H        0.924     0.048     2.345     2.395
    26   1 H        0.924     0.022     2.700     2.569
    27   1 H        0.925     0.065     2.136     2.286
    28   1 H        0.924     0.049     2.329     2.387
    29   1 H        0.925     0.083     1.948     2.183
    30   1 H        0.924     0.085     1.927     2.171
    31   1 H        0.925     0.093     1.853     2.128
    32   1 H        0.926     0.102     1.768     2.079
    33   1 H        0.926     0.098     1.805     2.101
    34   1 H        0.926     0.097     1.808     2.103
    35   1 H        0.926     0.104     1.747     2.067
    36   1 H        0.926     0.052     2.290     2.367
    37   1 H        0.926     0.073     2.056     2.242
    38   1 H        0.926     0.073     2.054     2.241
    39   1 H        0.926     0.053     2.284     2.364

Wiberg/Mayer (AO) data.
largest (>0.10) Wiberg bond orders for each atom

     #   Z sym  total        # sym  WBO       # sym  WBO       # sym  WBO
 ---------------------------------------------------------------------------
     1   6 C    3.995 --     2 C    1.021    21 H    0.987    19 H    0.986
                            20 H    0.986
     2   6 C    3.996 --     1 C    1.021     3 C    1.007    23 H    0.977
                            22 H    0.975
     3   6 C    3.995 --     2 C    1.007     4 C    1.007    25 H    0.975
                            24 H    0.974
     4   6 C    3.993 --     5 C    1.009     3 C    1.007    26 H    0.973
                            27 H    0.968
     5   6 C    3.979 --     4 C    1.009     6 C    0.974    28 H    0.974
                            29 H    0.961
     6   6 C    3.934 --     5 C    0.974     7 N    0.966    30 H    0.963
                            31 H    0.961
     7   7 N    3.748 --    12 C    1.308     8 C    1.304     6 C    0.966
     8   6 C    3.957 --     9 C    1.500     7 N    1.304    32 H    0.955
     9   6 C    3.983 --     8 C    1.500    10 C    1.342    33 H    0.958
    10   6 C    3.972 --    11 C    1.351     9 C    1.342    13 C    1.080
    11   6 C    3.984 --    12 C    1.489    10 C    1.351    34 H    0.958
    12   6 C    3.956 --    11 C    1.489     7 N    1.308    35 H    0.953
    13   6 C    3.987 --    18 C    1.372    14 C    1.372    10 C    1.080
    14   6 C    3.987 --    15 C    1.428    13 C    1.372    36 H    0.966
                            17 C    0.115
    15   6 C    3.975 --    16 N    1.442    14 C    1.428    37 H    0.959
                            18 C    0.114
    16   7 N    3.069 --    15 C    1.442    17 C    1.442
    17   6 C    3.975 --    16 N    1.442    18 C    1.428    38 H    0.959
                            14 C    0.115
    18   6 C    3.987 --    17 C    1.428    13 C    1.372    39 H    0.966
                            15 C    0.114
    19   1 H    0.999 --     1 C    0.986
    20   1 H    0.998 --     1 C    0.986
    21   1 H    0.998 --     1 C    0.987
    22   1 H    0.999 --     2 C    0.975
    23   1 H    0.998 --     2 C    0.977
    24   1 H    1.000 --     3 C    0.974
    25   1 H    0.998 --     3 C    0.975
    26   1 H    0.999 --     4 C    0.973
    27   1 H    0.995 --     4 C    0.968
    28   1 H    0.998 --     5 C    0.974
    29   1 H    0.991 --     5 C    0.961
    30   1 H    0.992 --     6 C    0.963
    31   1 H    0.991 --     6 C    0.961
    32   1 H    0.989 --     8 C    0.955
    33   1 H    0.990 --     9 C    0.958
    34   1 H    0.990 --    11 C    0.958
    35   1 H    0.989 --    12 C    0.953
    36   1 H    0.997 --    14 C    0.966
    37   1 H    0.994 --    15 C    0.959
    38   1 H    0.994 --    17 C    0.959
    39   1 H    0.997 --    18 C    0.966
 ---------------------------------------------------------------------------

molecular dipole:
                 x           y           z       tot (Debye)
 q only:       -0.941     -11.130       1.771
   full:       -1.172     -10.740       1.791      27.835

           -------------------------------------------------
          | TOTAL ENERGY              -50.416169042238 Eh   |
          | GRADIENT NORM               0.000602758879 Eh/α |
          | HOMO-LUMO GAP               0.722797443276 eV   |
           -------------------------------------------------

 * finished run on 2024/12/20 at 07:09:29.346
