   * xtb version 6.7.1 (edcfbbe) compiled by 'conda@3ef47c1a292c' on 2024-11-25

   ID    Z sym.   atoms
    1    6 C      1, 3, 5-8, 10, 12-17, 19, 21-26
    2    8 O      2, 4, 20
    3    7 N      9, 11, 18
    4    1 H      27-54

          program call               : xtb C1059.xyz --opt --namespace C1059 --charge +1
          :  Hamiltonian                  GFN2-xTB          :
 * total energy  :   -77.7340374 Eh     change       -0.3883684E-09 Eh
 * total energy  :   -77.7434255 Eh     change       -0.9388156E-02 Eh
 * total energy  :   -77.7455490 Eh     change       -0.2123465E-02 Eh
 * total energy  :   -77.7461959 Eh     change       -0.6469255E-03 Eh
 * total energy  :   -77.7466499 Eh     change       -0.4539959E-03 Eh
 * total energy  :   -77.7469137 Eh     change       -0.2638057E-03 Eh
 * total energy  :   -77.7471532 Eh     change       -0.2394529E-03 Eh
 * total energy  :   -77.7473737 Eh     change       -0.2204993E-03 Eh
 * total energy  :   -77.7475726 Eh     change       -0.1989597E-03 Eh
 * total energy  :   -77.7477645 Eh     change       -0.1918421E-03 Eh
 * total energy  :   -77.7571900 Eh     change       -0.1048004E-04 Eh
 * total energy  :   -77.7572026 Eh     change       -0.1261516E-04 Eh
 * total energy  :   -77.7572165 Eh     change       -0.1396262E-04 Eh
 * total energy  :   -77.7572283 Eh     change       -0.1174007E-04 Eh
 * total energy  :   -77.7572376 Eh     change       -0.9359613E-05 Eh
 * total energy  :   -77.7572462 Eh     change       -0.8525982E-05 Eh
 * total energy  :   -77.7572530 Eh     change       -0.6860365E-05 Eh
 * total energy  :   -77.7572581 Eh     change       -0.5052541E-05 Eh
 * total energy  :   -77.7572594 Eh     change       -0.1339343E-05 Eh
   *** GEOMETRY OPTIMIZATION CONVERGED AFTER 152 ITERATIONS ***

 final structure:
================
54
 xtb: 6.7.1 (edcfbbe)
C            3.35549101939613       -1.32806915519026        2.49586652511580
O            2.21730954477387       -1.17600581907429        3.34636247388884
C            1.45310399685471       -0.11691090834613        3.20174456315081
O            1.63845369359706        0.79525501492529        2.43082370219436
C            0.21859933113007       -0.20582143197339        4.10936011376320
C           -0.05549309621084        1.14150215255414        4.82736147374745
C           -0.24130792264979        2.25295723742569        3.85732758905134
C           -1.33151516219218        2.48406208382334        3.06148258364271
N           -1.06407275450527        3.56690585945859        2.28429990632716
C            0.15342602827667        3.99377546661813        2.59454549090135
N            0.67643040552288        3.22047142062615        3.54344885202442
C            1.99354011196309        3.42400002211136        4.13676420209692
C            3.03525373495838        3.65786630614814        3.04838400038008
C            1.92472425151775        4.57980001717028        5.13209915824889
C           -1.94410921603978        4.11797034685278        1.25994004710674
C           -2.15797562695572        5.61002922286477        1.49032047071673
C           -1.35944051744841        3.82808609959306       -0.11973261689252
N           -0.88289836820879       -0.57702697972179        3.25982646806317
C           -1.57819340178787       -1.76631658696822        3.22981485629374
O           -2.25995854511175       -2.02095519887745        2.26413265653737
C           -1.46454343848352       -2.64660683864023        4.41958956278966
C           -1.21211525418289       -4.00031341720889        4.21836188378914
C           -1.13010668197264       -4.85881656842408        5.29926852652566
C           -1.32006509722678       -4.37742238050654        6.58441275071281
C           -1.60082377268233       -3.03611637324750        6.78777192051856
C           -1.67062609638953       -2.17003657361153        5.71134512480497
H            3.11799265639480       -2.05587257589550        1.71987405397881
H            4.16956510151473       -1.69919585333641        3.11448374458951
H            3.61780047707773       -0.37269780650170        2.04021164942273
H            0.37545415540563       -0.99141818728642        4.85273289559377
H           -0.97498117377068        1.02436832440565        5.40296045900958
H            0.75734771885256        1.34787736882408        5.52197220159522
H           -2.26055305593201        1.95337580973455        3.01005263237779
H            0.64474739931509        4.83360204298188        2.14846741226595
H            2.24851713024242        2.50165685119974        4.66352435492962
H            2.92407974646376        4.63508540394416        2.58726004798780
H            4.02793578335884        3.60694653440572        3.48587322643469
H            2.95320054908035        2.88665040263219        2.28686487087278
H            1.17107884250351        4.39460780396977        5.89407760827447
H            2.88634161844308        4.69384459157584        5.62317583755828
H            1.68752440175691        5.51246964581614        4.62632377393742
H           -2.89917963071766        3.59460444319640        1.36636008595031
H           -1.24686783575940        6.17364513553538        1.30877165540476
H           -2.91842346885048        5.97276567313589        0.80540941524567
H           -2.49690038204516        5.80152631901907        2.50565089920197
H           -1.18458252575954        2.76293346737981       -0.24994527907166
H           -2.05696390687649        4.15475479109409       -0.88490331288037
H           -0.42063003887828        4.35661403054935       -0.26396173410120
H           -0.94982341770276       -0.06240580931877        2.38953536627102
H           -1.08358965083238       -4.36580751485888        3.21105733428697
H           -0.92782276545315       -5.90639895683392        5.13833050701148
H           -1.26304947860508       -5.04901262297767        7.42715411663961
H           -1.77205925198558       -2.66456661446869        7.78684429310826
H           -1.92358616322989       -1.13139571635370        5.87065959861192

          :  Hamiltonian                  GFN2-xTB          :
         :: total energy             -77.757259420240 Eh    ::
         :: gradient norm              0.000198125475 Eh/a0 ::
         :: HOMO-LUMO gap              2.678014016256 eV    ::
         :: SCC energy               -78.853752012884 Eh    ::
         :: -> dispersion             -0.054830509254 Eh    ::
         :: repulsion energy           1.096492592644 Eh    ::

    * Orbital Energies and Occupations

         #    Occupation            Energy/Eh            Energy/eV
      -------------------------------------------------------------
         1        2.0000           -0.8708230             -23.6963
       ...           ...                  ...                  ...
        58        2.0000           -0.5692978             -15.4914
        59        2.0000           -0.5690848             -15.4856
        60        2.0000           -0.5629088             -15.3175
        61        2.0000           -0.5622914             -15.3007
        62        2.0000           -0.5596819             -15.2297
        63        2.0000           -0.5582229             -15.1900
        64        2.0000           -0.5472035             -14.8902
        65        2.0000           -0.5214086             -14.1882
        66        2.0000           -0.5076406             -13.8136
        67        2.0000           -0.5055917             -13.7579
        68        2.0000           -0.4923824             -13.3984
        69        2.0000           -0.4914843             -13.3740
        70        2.0000           -0.4828749             -13.1397 (HOMO)
        71                         -0.3844597             -10.4617 (LUMO)
        72                         -0.3605500              -9.8111
        73                         -0.3469879              -9.4420
        74                         -0.3338650              -9.0849
        75                         -0.3097258              -8.4281
        76                         -0.2805260              -7.6335
        77                         -0.1779733              -4.8429
        78                         -0.1765792              -4.8050
        79                         -0.1361593              -3.7051
        80                         -0.1229424              -3.3454
        81                         -0.1009057              -2.7458
       ...                                ...                  ...
       132                          0.5868167              15.9681
      -------------------------------------------------------------
                  HL-Gap            0.0984152 Eh            2.6780 eV

     #   Z          covCN         q      C6AA      α(0)
     1   6 C        3.648     0.017    20.609     6.522
     2   8 O        1.704    -0.232    17.839     5.703
     3   6 C        2.721     0.351    21.035     7.508
     4   8 O        0.856    -0.431    22.313     6.333
     5   6 C        3.786     0.016    20.325     6.422
     6   6 C        3.805    -0.075    21.930     6.667
     7   6 C        3.101     0.051    26.726     8.472
     8   6 C        3.086    -0.025    28.518     8.754
     9   7 N        2.859     0.052    20.327     6.696
    10   6 C        3.098     0.056    26.628     8.457
    11   7 N        2.871     0.050    20.374     6.704
    12   6 C        3.790     0.034    20.009     6.371
    13   6 C        3.755    -0.130    23.044     6.845
    14   6 C        3.755    -0.126    22.977     6.835
    15   6 C        3.789     0.031    20.072     6.381
    16   6 C        3.755    -0.128    23.009     6.840
    17   6 C        3.756    -0.126    22.978     6.835
    18   7 N        2.695    -0.201    25.376     7.482
    19   6 C        2.754     0.276    22.326     7.737
    20   8 O        0.860    -0.402    21.718     6.248
    21   6 C        2.974    -0.019    28.466     8.752
    22   6 C        2.925    -0.018    28.462     8.749
    23   6 C        2.919    -0.022    28.547     8.762
    24   6 C        2.920    -0.021    28.522     8.758
    25   6 C        2.919    -0.027    28.665     8.780
    26   6 C        2.921    -0.033    28.813     8.802
    27   1 H        0.925     0.084     1.936     2.176
    28   1 H        0.925     0.088     1.903     2.157
    29   1 H        0.924     0.080     1.976     2.198
    30   1 H        0.924     0.089     1.890     2.150
    31   1 H        0.924     0.090     1.878     2.143
    32   1 H        0.925     0.074     2.040     2.233
    33   1 H        0.926     0.098     1.803     2.100
    34   1 H        0.926     0.109     1.708     2.044
    35   1 H        0.924     0.071     2.077     2.254
    36   1 H        0.925     0.057     2.232     2.336
    37   1 H        0.925     0.074     2.037     2.232
    38   1 H        0.925     0.077     2.014     2.219
    39   1 H        0.925     0.056     2.249     2.345
    40   1 H        0.925     0.078     1.995     2.209
    41   1 H        0.925     0.059     2.208     2.324
    42   1 H        0.924     0.078     1.998     2.210
    43   1 H        0.925     0.059     2.205     2.322
    44   1 H        0.925     0.081     1.968     2.194
    45   1 H        0.925     0.059     2.212     2.326
    46   1 H        0.925     0.062     2.174     2.306
    47   1 H        0.925     0.081     1.972     2.196
    48   1 H        0.925     0.060     2.195     2.317
    49   1 H        0.860     0.182     1.202     1.718
    50   1 H        0.926     0.055     2.259     2.350
    51   1 H        0.926     0.053     2.277     2.359
    52   1 H        0.926     0.052     2.298     2.370
    53   1 H        0.926     0.045     2.380     2.413
    54   1 H        0.926     0.026     2.639     2.540

Wiberg/Mayer (AO) data.
largest (>0.10) Wiberg bond orders for each atom

     #   Z sym  total        # sym  WBO       # sym  WBO       # sym  WBO
 ---------------------------------------------------------------------------
     1   6 C    3.901 --    29 H    0.976    28 H    0.976    27 H    0.972
                             2 O    0.935
     2   8 O    2.366 --     3 C    1.200     1 C    0.935     4 O    0.188
     3   6 C    3.921 --     4 O    1.709     2 O    1.200     5 C    0.924
     4   8 O    2.018 --     3 C    1.709     2 O    0.188
     5   6 C    3.976 --    18 N    1.000     6 C    0.952    30 H    0.950
                             3 C    0.924
     6   6 C    3.989 --     7 C    1.030    32 H    0.963    31 H    0.954
                             5 C    0.952
     7   6 C    3.958 --     8 C    1.540    11 N    1.205     6 C    1.030
     8   6 C    3.945 --     7 C    1.540     9 N    1.225    33 H    0.961
     9   7 N    3.708 --    10 C    1.367     8 C    1.225    15 C    0.942
    10   6 C    3.948 --     9 N    1.367    11 N    1.357    34 H    0.952
    11   7 N    3.703 --    10 C    1.357     7 C    1.205    12 C    0.945
    12   6 C    3.943 --    13 C    1.001    14 C    0.994    35 H    0.956
                            11 N    0.945
    13   6 C    3.983 --    12 C    1.001    36 H    0.982    37 H    0.979
                            38 H    0.978
    14   6 C    3.986 --    12 C    0.994    39 H    0.984    41 H    0.983
                            40 H    0.978
    15   6 C    3.940 --    16 C    1.000    17 C    0.995    42 H    0.961
                             9 N    0.942
    16   6 C    3.985 --    15 C    1.000    45 H    0.984    43 H    0.983
                            44 H    0.978
    17   6 C    3.984 --    15 C    0.995    46 H    0.983    48 H    0.983
                            47 H    0.977
    18   7 N    3.383 --    19 C    1.157     5 C    1.000    49 H    0.930
                            20 O    0.177
    19   6 C    3.938 --    20 O    1.723    18 N    1.157    21 C    0.989
    20   8 O    2.043 --    19 C    1.723    18 N    0.177
    21   6 C    3.987 --    22 C    1.395    26 C    1.391    19 C    0.989
                            24 C    0.107
    22   6 C    3.989 --    23 C    1.447    21 C    1.395    50 H    0.968
                            25 C    0.109
    23   6 C    3.990 --    22 C    1.447    24 C    1.437    51 H    0.969
                            26 C    0.109
    24   6 C    3.990 --    23 C    1.437    25 C    1.435    52 H    0.970
                            21 C    0.107
    25   6 C    3.992 --    26 C    1.447    24 C    1.435    53 H    0.970
                            22 C    0.109
    26   6 C    3.991 --    25 C    1.447    21 C    1.391    54 H    0.968
                            23 C    0.109
    27   1 H    0.993 --     1 C    0.972
    28   1 H    0.992 --     1 C    0.976
    29   1 H    0.994 --     1 C    0.976
    30   1 H    0.991 --     5 C    0.950
    31   1 H    0.991 --     6 C    0.954
    32   1 H    0.994 --     6 C    0.963
    33   1 H    0.990 --     8 C    0.961
    34   1 H    0.988 --    10 C    0.952
    35   1 H    0.995 --    12 C    0.956
    36   1 H    0.997 --    13 C    0.982
    37   1 H    0.994 --    13 C    0.979
    38   1 H    0.994 --    13 C    0.978
    39   1 H    0.997 --    14 C    0.984
    40   1 H    0.993 --    14 C    0.978
    41   1 H    0.996 --    14 C    0.983
    42   1 H    0.993 --    15 C    0.961
    43   1 H    0.996 --    16 C    0.983
    44   1 H    0.993 --    16 C    0.978
    45   1 H    0.997 --    16 C    0.984
    46   1 H    0.996 --    17 C    0.983
    47   1 H    0.993 --    17 C    0.977
    48   1 H    0.996 --    17 C    0.983
    49   1 H    0.966 --    18 N    0.930
    50   1 H    0.997 --    22 C    0.968
    51   1 H    0.997 --    23 C    0.969
    52   1 H    0.997 --    24 C    0.970
    53   1 H    0.997 --    25 C    0.970
    54   1 H    0.999 --    26 C    0.968
 ---------------------------------------------------------------------------

molecular dipole:
                 x           y           z       tot (Debye)
 q only:        1.163       5.492       6.784
   full:        1.249       5.448       6.855      22.482

           -------------------------------------------------
          | TOTAL ENERGY              -77.757259420240 Eh   |
          | GRADIENT NORM               0.000198125475 Eh/α |
          | HOMO-LUMO GAP               2.678014016256 eV   |
           -------------------------------------------------

 * finished run on 2024/12/20 at 07:09:51.860
