   * xtb version 6.7.1 (edcfbbe) compiled by 'conda@3ef47c1a292c' on 2024-11-25

   ID    Z sym.   atoms
    1    8 O      1, 3
    2    6 C      2, 4-8, 10, 11, 13, 14
    3    7 N      9, 12
    4    1 H      15-31

          program call               : xtb C1053.xyz --opt --namespace C1053 --charge +1
          :  Hamiltonian                  GFN2-xTB          :
 * total energy  :   -43.7029618 Eh     change       -0.2220446E-09 Eh
 * total energy  :   -43.7075473 Eh     change       -0.4585569E-02 Eh
 * total energy  :   -43.7087843 Eh     change       -0.1237004E-02 Eh
 * total energy  :   -43.7090714 Eh     change       -0.2870166E-03 Eh
 * total energy  :   -43.7092352 Eh     change       -0.1638049E-03 Eh
 * total energy  :   -43.7093210 Eh     change       -0.8585391E-04 Eh
 * total energy  :   -43.7094565 Eh     change       -0.1354442E-03 Eh
 * total energy  :   -43.7096156 Eh     change       -0.1591653E-03 Eh
 * total energy  :   -43.7098062 Eh     change       -0.1905670E-03 Eh
 * total energy  :   -43.7099048 Eh     change       -0.9862445E-04 Eh
 * total energy  :   -43.7118256 Eh     change       -0.4028531E-04 Eh
 * total energy  :   -43.7118467 Eh     change       -0.2111357E-04 Eh
 * total energy  :   -43.7118854 Eh     change       -0.3876019E-04 Eh
 * total energy  :   -43.7119097 Eh     change       -0.2427627E-04 Eh
 * total energy  :   -43.7119245 Eh     change       -0.1474919E-04 Eh
 * total energy  :   -43.7119367 Eh     change       -0.1227305E-04 Eh
 * total energy  :   -43.7119308 Eh     change        0.5932575E-05 Eh
 * total energy  :   -43.7119518 Eh     change       -0.2101875E-04 Eh
 * total energy  :   -43.7119548 Eh     change       -0.2985126E-05 Eh
   *** GEOMETRY OPTIMIZATION CONVERGED AFTER 45 ITERATIONS ***

 final structure:
================
31
 xtb: 6.7.1 (edcfbbe)
O            1.27041357041720        0.17584680888945        2.06087420645075
C            0.71134465168200        0.71158749697123        0.97708991415037
O            1.34325323468826        1.16703633951887        0.06280810412656
C           -0.79925250385721        0.66648263068075        1.06480080303462
C           -1.47177837642862        1.27840432370313       -0.16226817754707
C           -1.23712610602653        0.48048175844621       -1.44776562878469
C           -1.95748990151850       -0.86566193511743       -1.50997773825489
C           -3.48239642246795       -0.74359482163380       -1.64105168044593
N           -3.84309931516940       -0.12400614016697       -2.89431038373570
C           -3.92539593983953       -0.75702935443385       -4.09637693974612
C           -4.20245855386021        0.18871661094558       -5.03633560906835
N           -4.27928065741629        1.38713211195169       -4.39363105320102
C           -4.05342914550592        1.17332188591343       -3.09977636937703
C           -4.54978607118838        2.65265320419532       -5.02115683655780
H            2.23921369402110        0.22236245903428        2.01754942267460
H           -1.09483658770231       -0.37168389243045        1.22383621077708
H           -1.08442515829855        1.21812505400566        1.96296687041348
H           -2.53904507706319        1.38954204248154        0.04050601292876
H           -1.05360053335134        2.27514465437399       -0.30892715028788
H           -1.53042806853507        1.09239878305598       -2.30525395760772
H           -0.16588106145538        0.30637982546724       -1.54030484641251
H           -1.57627953416395       -1.43583963086283       -2.35905055742828
H           -1.74914934213138       -1.44199475130815       -0.60992035856057
H           -3.93642024112285       -1.73564781730228       -1.60669163831634
H           -3.88744376718903       -0.14264572020547       -0.82603969027977
H           -3.79150854312461       -1.81420601892716       -4.20253751504017
H           -4.34775158172329        0.09045678758516       -6.09297721878436
H           -4.05565983198397        1.92882620527516       -2.33780894532337
H           -4.65136290744810        3.42842054448189       -4.26490377042461
H           -3.73527682886159        2.91855545848240       -5.69698252859893
H           -5.47272309337678        2.59311509693301       -5.59912295077050

          :  Hamiltonian                  GFN2-xTB          :
         :: total energy             -43.711954797832 Eh    ::
         :: gradient norm              0.000940584360 Eh/a0 ::
         :: HOMO-LUMO gap              2.671631356160 eV    ::
         :: SCC energy               -44.286767680567 Eh    ::
         :: -> dispersion             -0.023934644424 Eh    ::
         :: repulsion energy           0.574812882735 Eh    ::

    * Orbital Energies and Occupations

         #    Occupation            Energy/Eh            Energy/eV
      -------------------------------------------------------------
         1        2.0000           -0.8974698             -24.4214
       ...           ...                  ...                  ...
        27        2.0000           -0.6368663             -17.3300
        28        2.0000           -0.6226409             -16.9429
        29        2.0000           -0.6100200             -16.5995
        30        2.0000           -0.6012851             -16.3618
        31        2.0000           -0.5934361             -16.1482
        32        2.0000           -0.5890870             -16.0299
        33        2.0000           -0.5834573             -15.8767
        34        2.0000           -0.5775255             -15.7153
        35        2.0000           -0.5616675             -15.2837
        36        2.0000           -0.5534004             -15.0588
        37        2.0000           -0.5509690             -14.9926
        38        2.0000           -0.5459184             -14.8552
        39        2.0000           -0.5054691             -13.7545 (HOMO)
        40                         -0.4072885             -11.0829 (LUMO)
        41                         -0.3718988             -10.1199
        42                         -0.3160962              -8.6014
        43                         -0.1840816              -5.0091
        44                         -0.1291896              -3.5154
        45                         -0.0641219              -1.7448
        46                         -0.0616410              -1.6773
        47                         -0.0441238              -1.2007
        48                         -0.0388604              -1.0574
        49                         -0.0346012              -0.9415
        50                         -0.0226528              -0.6164
       ...                                ...                  ...
        73                          0.5674506              15.4411
      -------------------------------------------------------------
                  HL-Gap            0.0981806 Eh            2.6716 eV

     #   Z          covCN         q      C6AA      α(0)
     1   8 O        1.660    -0.370    20.283     6.080
     2   6 C        2.688     0.362    20.859     7.475
     3   8 O        0.856    -0.407    21.826     6.264
     4   6 C        3.803    -0.097    22.339     6.729
     5   6 C        3.802    -0.062    21.688     6.630
     6   6 C        3.801    -0.073    21.887     6.661
     7   6 C        3.802    -0.072    21.882     6.660
     8   6 C        3.742    -0.029    21.167     6.564
     9   7 N        2.868     0.072    19.984     6.639
    10   6 C        3.074    -0.006    28.089     8.690
    11   6 C        3.072    -0.009    28.162     8.701
    12   7 N        2.867     0.076    19.910     6.627
    13   6 C        3.100     0.045    26.859     8.493
    14   6 C        3.692    -0.087    22.345     6.764
    15   1 H        0.804     0.340     0.613     1.230
    16   1 H        0.924     0.072     2.062     2.246
    17   1 H        0.924     0.081     1.964     2.192
    18   1 H        0.924     0.031     2.571     2.508
    19   1 H        0.924     0.063     2.163     2.300
    20   1 H        0.924     0.028     2.621     2.532
    21   1 H        0.925     0.082     1.954     2.186
    22   1 H        0.924     0.057     2.232     2.336
    23   1 H        0.925     0.076     2.023     2.224
    24   1 H        0.924     0.089     1.889     2.149
    25   1 H        0.924     0.087     1.910     2.161
    26   1 H        0.926     0.109     1.703     2.041
    27   1 H        0.926     0.110     1.695     2.036
    28   1 H        0.926     0.114     1.660     2.015
    29   1 H        0.925     0.100     1.789     2.091
    30   1 H        0.924     0.108     1.715     2.048
    31   1 H        0.924     0.107     1.718     2.050

Wiberg/Mayer (AO) data.
largest (>0.10) Wiberg bond orders for each atom

     #   Z sym  total        # sym  WBO       # sym  WBO       # sym  WBO
 ---------------------------------------------------------------------------
     1   8 O    2.212 --     2 C    1.148    15 H    0.859     3 O    0.176
     2   6 C    3.915 --     3 O    1.763     1 O    1.148     4 C    0.972
     3   8 O    2.043 --     2 C    1.763     1 O    0.176
     4   6 C    3.994 --     5 C    1.010     2 C    0.972    16 H    0.952
                            17 H    0.952
     5   6 C    3.995 --     4 C    1.010     6 C    1.008    18 H    0.974
                            19 H    0.974
     6   6 C    3.991 --     7 C    1.010     5 C    1.008    20 H    0.973
                            21 H    0.965
     7   6 C    3.983 --     6 C    1.010     8 C    0.979    22 H    0.974
                            23 H    0.963
     8   6 C    3.935 --     7 C    0.979     9 N    0.969    24 H    0.963
                            25 H    0.962
     9   7 N    3.720 --    13 C    1.360    10 C    1.230     8 C    0.969
    10   6 C    3.951 --    11 C    1.592     9 N    1.230    26 H    0.961
    11   6 C    3.948 --    10 C    1.592    12 N    1.227    27 H    0.961
    12   7 N    3.720 --    13 C    1.358    11 C    1.227    14 C    0.991
    13   6 C    3.946 --     9 N    1.360    12 N    1.358    28 H    0.953
    14   6 C    3.933 --    12 N    0.991    29 H    0.976    31 H    0.964
                            30 H    0.961
    15   1 H    0.884 --     1 O    0.859
    16   1 H    0.995 --     4 C    0.952
    17   1 H    0.993 --     4 C    0.952
    18   1 H    0.999 --     5 C    0.974
    19   1 H    0.996 --     5 C    0.974
    20   1 H    0.999 --     6 C    0.973
    21   1 H    0.993 --     6 C    0.965
    22   1 H    0.997 --     7 C    0.974
    23   1 H    0.993 --     7 C    0.963
    24   1 H    0.992 --     8 C    0.963
    25   1 H    0.992 --     8 C    0.962
    26   1 H    0.988 --    10 C    0.961
    27   1 H    0.988 --    11 C    0.961
    28   1 H    0.987 --    13 C    0.953
    29   1 H    0.990 --    14 C    0.976
    30   1 H    0.988 --    14 C    0.961
    31   1 H    0.988 --    14 C    0.964
 ---------------------------------------------------------------------------

molecular dipole:
                 x           y           z       tot (Debye)
 q only:       -7.415       1.031      -5.968
   full:       -7.395       1.028      -5.851      24.110

           -------------------------------------------------
          | TOTAL ENERGY              -43.711954797832 Eh   |
          | GRADIENT NORM               0.000940584360 Eh/α |
          | HOMO-LUMO GAP               2.671631356160 eV   |
           -------------------------------------------------

 * finished run on 2024/12/20 at 07:09:38.157
