   * xtb version 6.7.1 (edcfbbe) compiled by 'conda@3ef47c1a292c' on 2024-11-25

   ID    Z sym.   atoms
    1    6 C      1-14, 16-31
    2    7 N      15
    3    1 H      32-95

          program call               : xtb C1052.xyz --opt --namespace C1052 --charge +1
          :  Hamiltonian                  GFN2-xTB          :
 * total energy  :   -99.4445773 Eh     change       -0.6215828E-10 Eh
 * total energy  :   -99.4522497 Eh     change       -0.7672478E-02 Eh
 * total energy  :   -99.4539368 Eh     change       -0.1687109E-02 Eh
 * total energy  :   -99.4540438 Eh     change       -0.1069488E-03 Eh
 * total energy  :   -99.4541805 Eh     change       -0.1366741E-03 Eh
 * total energy  :   -99.4542522 Eh     change       -0.7169923E-04 Eh
 * total energy  :   -99.4544604 Eh     change       -0.2082354E-03 Eh
 * total energy  :   -99.4546625 Eh     change       -0.2021344E-03 Eh
 * total energy  :   -99.4547684 Eh     change       -0.1058603E-03 Eh
 * total energy  :   -99.4549779 Eh     change       -0.2095237E-03 Eh
 * total energy  :   -99.4559702 Eh     change       -0.2051775E-04 Eh
 * total energy  :   -99.4559896 Eh     change       -0.1936415E-04 Eh
 * total energy  :   -99.4560040 Eh     change       -0.1444518E-04 Eh
 * total energy  :   -99.4560134 Eh     change       -0.9416830E-05 Eh
 * total energy  :   -99.4560201 Eh     change       -0.6635755E-05 Eh
 * total energy  :   -99.4560265 Eh     change       -0.6491500E-05 Eh
 * total energy  :   -99.4560337 Eh     change       -0.7174695E-05 Eh
 * total energy  :   -99.4560403 Eh     change       -0.6564309E-05 Eh
 * total energy  :   -99.4560445 Eh     change       -0.4245979E-05 Eh
   *** GEOMETRY OPTIMIZATION CONVERGED AFTER 43 ITERATIONS ***

 final structure:
================
95
 xtb: 6.7.1 (edcfbbe)
C            0.99635338164077        0.23638340103023       -1.21436512396519
C            1.19993309531251       -1.20214292331523       -0.75435314920005
C            1.42626224627196       -1.32739485523567        0.75306585521312
C            0.26093299855331       -0.85248064120415        1.62381118468201
C           -1.06720002689896       -1.57222912853197        1.38031729931256
C           -1.02096720522878       -3.09158077735799        1.55312427778334
C           -0.56354854870845       -3.57088942787155        2.93188706875124
C           -1.44350864068374       -3.11890864500817        4.09911809683504
C           -2.90285506297991       -3.57452217059704        4.02649090441150
C           -3.10238752285853       -5.08611052667259        3.89429951210479
C           -2.45263754741725       -5.91626311097489        5.00314929780150
C           -2.98197454551893       -5.64383319824005        6.41272462888066
C           -4.48695674616444       -5.87546500123447        6.61422452166669
C           -5.07076522959480       -7.19423324531871        6.09854170514814
N           -4.99406055396203       -8.39836766588575        6.98560344190384
C           -5.88495289925221       -8.26963319034024        8.18244934560773
C           -7.40068910712828       -8.30466444107826        7.96513066065620
C           -8.07206544974335       -9.68459379245341        7.89974225787888
C           -7.69748093976356      -10.65732648250299        9.01991900917136
C           -8.00658200925105      -10.16666168417260       10.43575119664401
C           -9.48944600191638       -9.91045433435532       10.71442545339979
C          -10.40980644521234      -11.10852355040001       10.46923737376016
C          -10.03893463065302      -12.37957218582046       11.23600607344215
C          -10.03234648474622      -12.23786101982131       12.75910487602132
C          -11.37531947865608      -11.84357617089312       13.37667448131314
C          -12.53097259953254      -12.80091683705119       13.07796196541310
C          -12.29744299534417      -14.25293474962809       13.50085803029530
C          -12.01528600969430      -14.45508876159351       14.99040367454559
C          -13.17028494348028      -14.02216192159244       15.88537047793255
C           -5.36598096818500       -9.57193619337246        6.17439344295770
C           -3.61921934677426       -8.60632668939726        7.47572002063498
H            0.07003575553100        0.64746596576328       -0.82152446395761
H            0.95142035572648        0.28144911960674       -2.30008991195841
H            1.82069708288441        0.86261349852320       -0.88034601524090
H            0.34066665900616       -1.80503052739960       -1.05372988086575
H            2.07626970158675       -1.61289484432408       -1.26191187333953
H            1.65250191222555       -2.37008850398339        0.98684101830883
H            2.30747376241937       -0.73890908453720        1.02112595674669
H            0.54875016737765       -0.96859274630687        2.67126496771665
H            0.10302645508978        0.21436105838286        1.45599300265944
H           -1.81289007222811       -1.15220703165848        2.05954077474507
H           -1.40814548688549       -1.35891666362225        0.36552126715366
H           -2.01560177814358       -3.49094336628433        1.34018204803078
H           -0.34370034909602       -3.51346101881401        0.80828971100452
H           -0.51102864254702       -4.66239579264723        2.91518010512664
H            0.44949147440684       -3.20948878791164        3.11547358276092
H           -0.99423094878211       -3.48000535761376        5.02771840671012
H           -1.43557699878930       -2.02920919566296        4.14942409141448
H           -3.42031919149809       -3.21199869917554        4.91829394115614
H           -3.38124943555196       -3.09951182110530        3.16881303384276
H           -4.17581932495265       -5.29025049695904        3.85472821495185
H           -2.68205599494203       -5.41352586834957        2.94245406030065
H           -2.55850291305542       -6.97680424071755        4.75343663087609
H           -1.38220124309049       -5.71127318562706        5.01115605594890
H           -2.39415300792944       -6.23085641751120        7.11924687819749
H           -2.79329768994797       -4.59723629852263        6.65286530651958
H           -4.72836237943868       -5.72519598624652        7.66747512170651
H           -5.01104605274379       -5.09054698586652        6.06647310929587
H           -6.12866240677326       -7.04093905998696        5.88011595908381
H           -4.57343364794048       -7.44997043446692        5.16229466565523
H           -5.61605212735039       -9.06938738744751        8.87337940275965
H           -5.62646900247242       -7.32173118201544        8.65681547040614
H           -7.82989312107273       -7.77641620455149        8.81808740962287
H           -7.68301815938327       -7.73348384548869        7.07955892958517
H           -9.14733495182953       -9.50990323973351        7.94344908308717
H           -7.87972423856287      -10.17224643052296        6.94344530234742
H           -8.24425592565490      -11.58366250205121        8.84425581463447
H           -6.63496718912004      -10.91457434805551        8.96335549063894
H           -7.64286178135365      -10.91928466120846       11.13657600496511
H           -7.45285244520019       -9.24662963300864       10.64171097670478
H           -9.58313686408186       -9.59741590981525       11.75525989018335
H           -9.84021435920611       -9.07698196209949       10.10059287971498
H          -11.42389186219239      -10.81224102325998       10.74105699875831
H          -10.42615758817146      -11.34378386700069        9.40203306691367
H          -10.74768871116748      -13.16012821274389       10.95499984413643
H           -9.05051204463528      -12.72196973075296       10.91944908742444
H           -9.71170461572871      -13.19060435702380       13.18445268390135
H           -9.28860129983984      -11.49289745349145       13.05237124222020
H          -11.24096660807307      -11.77230460117094       14.45761234670067
H          -11.65744408371059      -10.84778115609502       13.02651060552560
H          -13.42223195004599      -12.42252802371023       13.58167548098781
H          -12.74384738014090      -12.78804009855079       12.00651496754706
H          -13.18882116303968      -14.82741609652416       13.23605322120812
H          -11.46521455839271      -14.66828487480279       12.92821033793162
H          -11.82186676551003      -15.51793352939627       15.15547591582143
H          -11.11131153294214      -13.91378662253056       15.27546652328532
H          -14.09144917116988      -14.51501914472302       15.58234637216303
H          -12.96496297891073      -14.28817026655560       16.91974500142851
H          -13.32285962473064      -12.94705784276536       15.83794551950976
H           -4.59865791597975       -9.76410997248995        5.42576248013968
H           -5.46061298982971      -10.44992666792806        6.80990627457403
H           -6.30963302026231       -9.39740527530989        5.66414504332239
H           -2.91703205123945       -8.56524670379404        6.64569320711302
H           -3.35603533122244       -7.84350946128965        8.20382558943605
H           -3.53873213212465       -9.58201501815181        7.95291790969596

          :  Hamiltonian                  GFN2-xTB          :
         :: total energy             -99.456044530211 Eh    ::
         :: gradient norm              0.000220441284 Eh/a0 ::
         :: HOMO-LUMO gap              6.438210253428 eV    ::
         :: SCC energy              -100.910291320730 Eh    ::
         :: -> dispersion             -0.082231925393 Eh    ::
         :: repulsion energy           1.454246790520 Eh    ::

    * Orbital Energies and Occupations

         #    Occupation            Energy/Eh            Energy/eV
      -------------------------------------------------------------
         1        2.0000           -0.8553967             -23.2765
       ...           ...                  ...                  ...
        82        2.0000           -0.4947100             -13.4617
        83        2.0000           -0.4855399             -13.2122
        84        2.0000           -0.4855389             -13.2122
        85        2.0000           -0.4824564             -13.1283
        86        2.0000           -0.4824559             -13.1283
        87        2.0000           -0.4790837             -13.0365
        88        2.0000           -0.4790828             -13.0365
        89        2.0000           -0.4665339             -12.6950
        90        2.0000           -0.4665338             -12.6950
        91        2.0000           -0.4621895             -12.5768
        92        2.0000           -0.4621895             -12.5768
        93        2.0000           -0.4603820             -12.5276
        94        2.0000           -0.4603819             -12.5276 (HOMO)
        95                         -0.2237821              -6.0894 (LUMO)
        96                         -0.1626191              -4.4251
        97                         -0.1419582              -3.8629
        98                         -0.1372266              -3.7341
        99                         -0.0765022              -2.0817
       100                         -0.0752050              -2.0464
       101                         -0.0556157              -1.5134
       102                         -0.0321955              -0.8761
       103                         -0.0317404              -0.8637
       104                         -0.0287502              -0.7823
       105                         -0.0120120              -0.3269
       ...                                ...                  ...
       188                          0.2614956               7.1157
      -------------------------------------------------------------
                  HL-Gap            0.2365999 Eh            6.4382 eV

     #   Z          covCN         q      C6AA      α(0)
     1   6 C        3.751    -0.102    22.513     6.766
     2   6 C        3.799    -0.052    21.509     6.603
     3   6 C        3.800    -0.057    21.604     6.618
     4   6 C        3.800    -0.057    21.606     6.618
     5   6 C        3.800    -0.057    21.596     6.617
     6   6 C        3.800    -0.057    21.600     6.617
     7   6 C        3.800    -0.058    21.613     6.619
     8   6 C        3.800    -0.059    21.633     6.622
     9   6 C        3.800    -0.059    21.641     6.623
    10   6 C        3.800    -0.061    21.671     6.628
    11   6 C        3.800    -0.062    21.684     6.630
    12   6 C        3.799    -0.071    21.862     6.657
    13   6 C        3.798    -0.071    21.859     6.657
    14   6 C        3.759    -0.040    21.344     6.587
    15   7 N        3.620     0.129    19.042     6.481
    16   6 C        3.759    -0.040    21.344     6.587
    17   6 C        3.798    -0.071    21.859     6.657
    18   6 C        3.799    -0.071    21.862     6.657
    19   6 C        3.800    -0.062    21.684     6.630
    20   6 C        3.800    -0.061    21.671     6.628
    21   6 C        3.800    -0.059    21.641     6.623
    22   6 C        3.800    -0.059    21.633     6.622
    23   6 C        3.800    -0.058    21.613     6.619
    24   6 C        3.800    -0.057    21.600     6.617
    25   6 C        3.800    -0.057    21.596     6.617
    26   6 C        3.800    -0.057    21.606     6.618
    27   6 C        3.800    -0.057    21.604     6.618
    28   6 C        3.799    -0.052    21.509     6.603
    29   6 C        3.751    -0.102    22.513     6.766
    30   6 C        3.727    -0.091    22.348     6.749
    31   6 C        3.727    -0.091    22.348     6.749
    32   1 H        0.925     0.034     2.530     2.487
    33   1 H        0.925     0.033     2.546     2.495
    34   1 H        0.925     0.035     2.517     2.481
    35   1 H        0.924     0.029     2.596     2.520
    36   1 H        0.924     0.028     2.618     2.531
    37   1 H        0.924     0.027     2.635     2.538
    38   1 H        0.924     0.030     2.583     2.513
    39   1 H        0.924     0.026     2.638     2.540
    40   1 H        0.924     0.034     2.527     2.486
    41   1 H        0.924     0.026     2.650     2.546
    42   1 H        0.924     0.034     2.530     2.488
    43   1 H        0.924     0.024     2.672     2.556
    44   1 H        0.924     0.034     2.524     2.484
    45   1 H        0.924     0.023     2.694     2.567
    46   1 H        0.924     0.037     2.486     2.465
    47   1 H        0.924     0.024     2.674     2.557
    48   1 H        0.924     0.040     2.448     2.447
    49   1 H        0.924     0.024     2.673     2.557
    50   1 H        0.924     0.041     2.433     2.439
    51   1 H        0.924     0.020     2.734     2.586
    52   1 H        0.924     0.044     2.396     2.420
    53   1 H        0.924     0.013     2.850     2.640
    54   1 H        0.925     0.054     2.269     2.355
    55   1 H        0.924     0.033     2.548     2.496
    56   1 H        0.924     0.062     2.175     2.306
    57   1 H        0.924     0.047     2.356     2.401
    58   1 H        0.924     0.075     2.032     2.229
    59   1 H        0.924     0.078     1.999     2.211
    60   1 H        0.924     0.091     1.871     2.139
    61   1 H        0.924     0.091     1.871     2.139
    62   1 H        0.924     0.078     1.999     2.211
    63   1 H        0.924     0.075     2.032     2.229
    64   1 H        0.924     0.047     2.356     2.401
    65   1 H        0.924     0.062     2.175     2.306
    66   1 H        0.924     0.033     2.548     2.496
    67   1 H        0.925     0.054     2.269     2.355
    68   1 H        0.924     0.013     2.850     2.640
    69   1 H        0.924     0.044     2.396     2.420
    70   1 H        0.924     0.020     2.734     2.586
    71   1 H        0.924     0.041     2.433     2.439
    72   1 H        0.924     0.024     2.673     2.557
    73   1 H        0.924     0.040     2.448     2.447
    74   1 H        0.924     0.024     2.674     2.557
    75   1 H        0.924     0.037     2.486     2.465
    76   1 H        0.924     0.023     2.694     2.567
    77   1 H        0.924     0.034     2.524     2.484
    78   1 H        0.924     0.024     2.672     2.556
    79   1 H        0.924     0.034     2.530     2.488
    80   1 H        0.924     0.026     2.650     2.546
    81   1 H        0.924     0.034     2.527     2.486
    82   1 H        0.924     0.026     2.638     2.540
    83   1 H        0.924     0.030     2.583     2.513
    84   1 H        0.924     0.027     2.635     2.538
    85   1 H        0.924     0.028     2.618     2.531
    86   1 H        0.924     0.029     2.596     2.520
    87   1 H        0.925     0.035     2.517     2.481
    88   1 H        0.925     0.033     2.546     2.495
    89   1 H        0.925     0.034     2.530     2.487
    90   1 H        0.925     0.091     1.869     2.138
    91   1 H        0.925     0.100     1.789     2.092
    92   1 H        0.925     0.099     1.796     2.096
    93   1 H        0.925     0.100     1.789     2.092
    94   1 H        0.925     0.099     1.796     2.096
    95   1 H        0.925     0.091     1.869     2.138

Wiberg/Mayer (AO) data.
largest (>0.10) Wiberg bond orders for each atom

     #   Z sym  total        # sym  WBO       # sym  WBO       # sym  WBO
 ---------------------------------------------------------------------------
     1   6 C    3.997 --     2 C    1.020    34 H    0.988    33 H    0.987
                            32 H    0.986
     2   6 C    3.998 --     1 C    1.020     3 C    1.008    36 H    0.978
                            35 H    0.976
     3   6 C    3.998 --     2 C    1.008     4 C    1.008    38 H    0.977
                            37 H    0.976
     4   6 C    3.997 --     5 C    1.008     3 C    1.008    39 H    0.975
                            40 H    0.975
     5   6 C    3.997 --     4 C    1.008     6 C    1.008    41 H    0.975
                            42 H    0.975
     6   6 C    3.997 --     7 C    1.008     5 C    1.008    43 H    0.975
                            44 H    0.975
     7   6 C    3.997 --     6 C    1.008     8 C    1.008    45 H    0.975
                            46 H    0.974
     8   6 C    3.997 --     7 C    1.008     9 C    1.007    47 H    0.975
                            48 H    0.974
     9   6 C    3.996 --     8 C    1.007    10 C    1.007    49 H    0.976
                            50 H    0.974
    10   6 C    3.996 --     9 C    1.007    11 C    1.007    51 H    0.976
                            52 H    0.973
    11   6 C    3.995 --    12 C    1.008    10 C    1.007    53 H    0.971
                            54 H    0.970
    12   6 C    3.991 --    11 C    1.008    13 C    1.004    55 H    0.974
                            56 H    0.970
    13   6 C    3.984 --    14 C    1.006    12 C    1.004    57 H    0.967
                            58 H    0.965
    14   6 C    3.928 --    13 C    1.006    59 H    0.964    60 H    0.959
                            15 N    0.923
    15   7 N    3.808 --    30 C    0.960    31 C    0.960    16 C    0.923
                            14 C    0.923
    16   6 C    3.928 --    17 C    1.006    62 H    0.964    61 H    0.959
                            15 N    0.923
    17   6 C    3.984 --    16 C    1.006    18 C    1.004    64 H    0.967
                            63 H    0.965
    18   6 C    3.991 --    19 C    1.008    17 C    1.004    66 H    0.974
                            65 H    0.970
    19   6 C    3.995 --    18 C    1.008    20 C    1.007    68 H    0.971
                            67 H    0.970
    20   6 C    3.996 --    21 C    1.007    19 C    1.007    70 H    0.976
                            69 H    0.973
    21   6 C    3.996 --    22 C    1.007    20 C    1.007    72 H    0.976
                            71 H    0.974
    22   6 C    3.997 --    23 C    1.008    21 C    1.007    74 H    0.975
                            73 H    0.974
    23   6 C    3.997 --    24 C    1.008    22 C    1.008    76 H    0.975
                            75 H    0.974
    24   6 C    3.997 --    23 C    1.008    25 C    1.008    78 H    0.975
                            77 H    0.975
    25   6 C    3.997 --    26 C    1.008    24 C    1.008    80 H    0.975
                            79 H    0.975
    26   6 C    3.997 --    25 C    1.008    27 C    1.008    82 H    0.975
                            81 H    0.975
    27   6 C    3.998 --    28 C    1.008    26 C    1.008    83 H    0.977
                            84 H    0.976
    28   6 C    3.998 --    29 C    1.020    27 C    1.008    85 H    0.978
                            86 H    0.976
    29   6 C    3.997 --    28 C    1.020    87 H    0.988    88 H    0.987
                            89 H    0.986
    30   6 C    3.931 --    90 H    0.975    91 H    0.972    92 H    0.972
                            15 N    0.960
    31   6 C    3.931 --    95 H    0.975    93 H    0.972    94 H    0.972
                            15 N    0.960
    32   1 H    0.999 --     1 C    0.986
    33   1 H    0.999 --     1 C    0.987
    34   1 H    0.999 --     1 C    0.988
    35   1 H    0.999 --     2 C    0.976
    36   1 H    0.999 --     2 C    0.978
    37   1 H    0.999 --     3 C    0.976
    38   1 H    0.999 --     3 C    0.977
    39   1 H    0.999 --     4 C    0.975
    40   1 H    0.999 --     4 C    0.975
    41   1 H    0.999 --     5 C    0.975
    42   1 H    0.999 --     5 C    0.975
    43   1 H    0.999 --     6 C    0.975
    44   1 H    0.999 --     6 C    0.975
    45   1 H    0.999 --     7 C    0.975
    46   1 H    0.999 --     7 C    0.974
    47   1 H    0.999 --     8 C    0.975
    48   1 H    0.998 --     8 C    0.974
    49   1 H    0.999 --     9 C    0.976
    50   1 H    0.998 --     9 C    0.974
    51   1 H    1.000 --    10 C    0.976
    52   1 H    0.998 --    10 C    0.973
    53   1 H    1.000 --    11 C    0.971
    54   1 H    0.997 --    11 C    0.970
    55   1 H    0.999 --    12 C    0.974
    56   1 H    0.996 --    12 C    0.970
    57   1 H    0.998 --    13 C    0.967
    58   1 H    0.994 --    13 C    0.965
    59   1 H    0.994 --    14 C    0.964
    60   1 H    0.992 --    14 C    0.959
    61   1 H    0.992 --    16 C    0.959
    62   1 H    0.994 --    16 C    0.964
    63   1 H    0.994 --    17 C    0.965
    64   1 H    0.998 --    17 C    0.967
    65   1 H    0.996 --    18 C    0.970
    66   1 H    0.999 --    18 C    0.974
    67   1 H    0.997 --    19 C    0.970
    68   1 H    1.000 --    19 C    0.971
    69   1 H    0.998 --    20 C    0.973
    70   1 H    1.000 --    20 C    0.976
    71   1 H    0.998 --    21 C    0.974
    72   1 H    0.999 --    21 C    0.976
    73   1 H    0.998 --    22 C    0.974
    74   1 H    0.999 --    22 C    0.975
    75   1 H    0.999 --    23 C    0.974
    76   1 H    0.999 --    23 C    0.975
    77   1 H    0.999 --    24 C    0.975
    78   1 H    0.999 --    24 C    0.975
    79   1 H    0.999 --    25 C    0.975
    80   1 H    0.999 --    25 C    0.975
    81   1 H    0.999 --    26 C    0.975
    82   1 H    0.999 --    26 C    0.975
    83   1 H    0.999 --    27 C    0.977
    84   1 H    0.999 --    27 C    0.976
    85   1 H    0.999 --    28 C    0.978
    86   1 H    0.999 --    28 C    0.976
    87   1 H    0.999 --    29 C    0.988
    88   1 H    0.999 --    29 C    0.987
    89   1 H    0.999 --    29 C    0.986
    90   1 H    0.992 --    30 C    0.975
    91   1 H    0.990 --    30 C    0.972
    92   1 H    0.990 --    30 C    0.972
    93   1 H    0.990 --    31 C    0.972
    94   1 H    0.990 --    31 C    0.972
    95   1 H    0.992 --    31 C    0.975
 ---------------------------------------------------------------------------

molecular dipole:
                 x           y           z       tot (Debye)
 q only:       -9.693     -15.518      13.283
   full:       -9.669     -15.552      13.275      57.489

           -------------------------------------------------
          | TOTAL ENERGY              -99.456044530211 Eh   |
          | GRADIENT NORM               0.000220441284 Eh/α |
          | HOMO-LUMO GAP               6.438210253428 eV   |
           -------------------------------------------------

 * finished run on 2024/12/20 at 07:09:37.091
