   * xtb version 6.7.1 (edcfbbe) compiled by 'conda@3ef47c1a292c' on 2024-11-25

   ID    Z sym.   atoms
    1    6 C      1-3, 5, 7-9, 11
    2    7 N      4, 6, 10
    3    1 H      12-29

          program call               : xtb C1057.xyz --opt --namespace C1057 --charge +1
          :  Hamiltonian                  GFN2-xTB          :
 * total energy  :   -34.7243306 Eh     change       -0.3729639E-10 Eh
 * total energy  :   -34.7302748 Eh     change       -0.5944173E-02 Eh
 * total energy  :   -34.7312089 Eh     change       -0.9340758E-03 Eh
 * total energy  :   -34.7314334 Eh     change       -0.2245668E-03 Eh
 * total energy  :   -34.7318266 Eh     change       -0.3931730E-03 Eh
 * total energy  :   -34.7319726 Eh     change       -0.1459612E-03 Eh
 * total energy  :   -34.7321041 Eh     change       -0.1315523E-03 Eh
 * total energy  :   -34.7321640 Eh     change       -0.5983812E-04 Eh
 * total energy  :   -34.7321956 Eh     change       -0.3160271E-04 Eh
 * total energy  :   -34.7322212 Eh     change       -0.2557555E-04 Eh
 * total energy  :   -34.7322472 Eh     change       -0.2607727E-04 Eh
 * total energy  :   -34.7322741 Eh     change       -0.2689038E-04 Eh
 * total energy  :   -34.7322873 Eh     change       -0.1318673E-04 Eh
 * total energy  :   -34.7322988 Eh     change       -0.1149112E-04 Eh
 * total energy  :   -34.7323051 Eh     change       -0.6269780E-05 Eh
 * total energy  :   -34.7323116 Eh     change       -0.6516078E-05 Eh
 * total energy  :   -34.7323165 Eh     change       -0.4958108E-05 Eh
   *** GEOMETRY OPTIMIZATION CONVERGED AFTER 17 ITERATIONS ***

 final structure:
================
29
 xtb: 6.7.1 (edcfbbe)
C            0.57344170445713       -0.32146324782747       -0.12714265841643
C            0.55827344357077       -0.09200556516575       -1.63404513852553
C            1.32377033454905       -1.17665029488725       -2.39796976078821
N            0.74316659648183       -2.49815530718964       -2.21419342456073
C           -0.34208514351987       -3.03378364643163       -2.76795576240962
N           -1.00872805095124       -2.63622434665316       -3.85478033311246
C           -0.70919183524878       -1.57773942575865       -4.78912451220594
C           -2.08431759174821       -3.56986443291504       -4.17093491369473
C           -2.00053408097157       -4.61924955029022       -3.05671288101096
N           -0.88785238313723       -4.14509861023295       -2.25282467538069
C           -0.43413917014275       -4.85391514245792       -1.08321510562237
H            0.03063772861470       -1.22530969973335        0.14302858654283
H            0.09868509875929        0.51321704325186        0.37977712696822
H            1.59394150758184       -0.40154920537943        0.23931675511367
H           -0.47549236753845       -0.05010151091949       -1.98429263732709
H            1.02687626889510        0.86644594895644       -1.85785004335027
H            1.37672485511274       -0.93803349276613       -3.45823173444569
H            2.34523548050159       -1.23401438911250       -2.01726731699436
H            1.03730666699985       -2.94941367492450       -1.35956009244829
H           -1.52087650053238       -1.53038845009441       -5.51158819838859
H           -0.64855725290321       -0.61184064099669       -4.28961597766075
H            0.21827899116082       -1.77314939047669       -5.33122749072863
H           -1.92333324254308       -4.00378102510762       -5.16169032884586
H           -3.04205766876102       -3.04222469700461       -4.17477870825415
H           -1.79291173711135       -5.62209325664883       -3.44107231237690
H           -2.91169220748990       -4.66032302319228       -2.45342412704023
H           -0.41959565831575       -4.20216098732608       -0.20658604986948
H           -1.12957708545308       -5.66517339421816       -0.88436323587945
H            0.55856329968318       -5.28488658449833       -1.23562504928695

          :  Hamiltonian                  GFN2-xTB          :
         :: total energy             -34.732316539717 Eh    ::
         :: gradient norm              0.000339846475 Eh/a0 ::
         :: HOMO-LUMO gap              4.504797896000 eV    ::
         :: SCC energy               -35.213012549485 Eh    ::
         :: -> dispersion             -0.021150533002 Eh    ::
         :: repulsion energy           0.480696009767 Eh    ::

    * Orbital Energies and Occupations

         #    Occupation            Energy/Eh            Energy/eV
      -------------------------------------------------------------
         1        2.0000           -0.8674464             -23.6044
       ...           ...                  ...                  ...
        20        2.0000           -0.6508132             -17.7095
        21        2.0000           -0.6433878             -17.5075
        22        2.0000           -0.6342332             -17.2584
        23        2.0000           -0.6244088             -16.9910
        24        2.0000           -0.6231602             -16.9571
        25        2.0000           -0.6185668             -16.8321
        26        2.0000           -0.6124393             -16.6653
        27        2.0000           -0.6044644             -16.4483
        28        2.0000           -0.5774139             -15.7122
        29        2.0000           -0.5710023             -15.5378
        30        2.0000           -0.5598277             -15.2337
        31        2.0000           -0.5442905             -14.8109
        32        2.0000           -0.5279553             -14.3664 (HOMO)
        33                         -0.3624070              -9.8616 (LUMO)
        34                         -0.2086456              -5.6775
        35                         -0.1417594              -3.8575
        36                         -0.1339656              -3.6454
        37                         -0.1079714              -2.9380
        38                         -0.0993353              -2.7031
        39                         -0.0526289              -1.4321
        40                         -0.0379940              -1.0339
        41                         -0.0191359              -0.5207
        42                         -0.0182378              -0.4963
        43                         -0.0151578              -0.4125
       ...                                ...                  ...
        62                          0.3961190              10.7789
      -------------------------------------------------------------
                  HL-Gap            0.1655483 Eh            4.5048 eV

     #   Z          covCN         q      C6AA      α(0)
     1   6 C        3.752    -0.114    22.735     6.800
     2   6 C        3.800    -0.067    21.788     6.646
     3   6 C        3.736    -0.015    20.928     6.529
     4   7 N        2.690    -0.145    24.141     7.297
     5   6 C        2.844     0.199    23.780     7.992
     6   7 N        2.779    -0.051    22.230     7.003
     7   6 C        3.688    -0.068    22.013     6.715
     8   6 C        3.804    -0.020    20.936     6.514
     9   6 C        3.792    -0.018    20.903     6.511
    10   7 N        2.790    -0.066    22.519     7.048
    11   6 C        3.689    -0.070    22.032     6.718
    12   1 H        0.925     0.031     2.567     2.506
    13   1 H        0.925     0.061     2.186     2.312
    14   1 H        0.925     0.051     2.313     2.379
    15   1 H        0.924     0.042     2.423     2.434
    16   1 H        0.925     0.065     2.143     2.290
    17   1 H        0.925     0.072     2.069     2.249
    18   1 H        0.924     0.079     1.994     2.208
    19   1 H        0.860     0.209     1.064     1.616
    20   1 H        0.925     0.090     1.878     2.143
    21   1 H        0.925     0.083     1.945     2.181
    22   1 H        0.924     0.076     2.025     2.225
    23   1 H        0.924     0.084     1.943     2.180
    24   1 H        0.924     0.085     1.931     2.173
    25   1 H        0.924     0.082     1.954     2.186
    26   1 H        0.924     0.084     1.941     2.178
    27   1 H        0.924     0.073     2.052     2.240
    28   1 H        0.925     0.095     1.828     2.114
    29   1 H        0.924     0.076     2.026     2.226

Wiberg/Mayer (AO) data.
largest (>0.10) Wiberg bond orders for each atom

     #   Z sym  total        # sym  WBO       # sym  WBO       # sym  WBO
 ---------------------------------------------------------------------------
     1   6 C    3.993 --     2 C    1.020    12 H    0.987    14 H    0.986
                            13 H    0.984
     2   6 C    3.991 --     1 C    1.020     3 C    0.993    15 H    0.974
                            16 H    0.971
     3   6 C    3.946 --     2 C    0.993     4 N    0.973    18 H    0.969
                            17 H    0.965
     4   7 N    3.455 --     5 C    1.300     3 C    0.973    19 H    0.919
     5   6 C    3.976 --     4 N    1.300     6 N    1.285    10 N    1.265
     6   7 N    3.508 --     5 C    1.285     7 C    0.992     8 C    0.975
     7   6 C    3.949 --     6 N    0.992    20 H    0.976    22 H    0.971
                            21 H    0.968
     8   6 C    3.961 --     9 C    1.002     6 N    0.975    23 H    0.967
                            24 H    0.967
     9   6 C    3.961 --     8 C    1.002    10 N    0.979    25 H    0.967
                            26 H    0.966
    10   7 N    3.496 --     5 C    1.265    11 C    0.996     9 C    0.979
    11   6 C    3.953 --    10 N    0.996    28 H    0.975    29 H    0.971
                            27 H    0.970
    12   1 H    0.999 --     1 C    0.987
    13   1 H    0.996 --     1 C    0.984
    14   1 H    0.997 --     1 C    0.986
    15   1 H    0.998 --     2 C    0.974
    16   1 H    0.995 --     2 C    0.971
    17   1 H    0.995 --     3 C    0.965
    18   1 H    0.993 --     3 C    0.969
    19   1 H    0.957 --     4 N    0.919
    20   1 H    0.992 --     7 C    0.976
    21   1 H    0.993 --     7 C    0.968
    22   1 H    0.994 --     7 C    0.971
    23   1 H    0.993 --     8 C    0.967
    24   1 H    0.993 --     8 C    0.967
    25   1 H    0.993 --     9 C    0.967
    26   1 H    0.992 --     9 C    0.966
    27   1 H    0.994 --    11 C    0.970
    28   1 H    0.990 --    11 C    0.975
    29   1 H    0.994 --    11 C    0.971
 ---------------------------------------------------------------------------

molecular dipole:
                 x           y           z       tot (Debye)
 q only:       -0.904      -5.551      -5.208
   full:       -0.877      -5.632      -5.132      19.494

           -------------------------------------------------
          | TOTAL ENERGY              -34.732316539717 Eh   |
          | GRADIENT NORM               0.000339846475 Eh/α |
          | HOMO-LUMO GAP               4.504797896000 eV   |
           -------------------------------------------------

 * finished run on 2024/12/20 at 07:09:44.111
