   * xtb version 6.7.1 (edcfbbe) compiled by 'conda@3ef47c1a292c' on 2024-11-25

   ID    Z sym.   atoms
    1    8 O      1
    2    6 C      2, 3, 5, 6, 8-13
    3    7 N      4, 7
    4    1 H      14-32

          program call               : xtb C1054.xyz --opt --namespace C1054 --charge +1
          :  Hamiltonian                  GFN2-xTB          :
 * total energy  :   -40.6517408 Eh     change       -0.4609220E-09 Eh
 * total energy  :   -40.6570625 Eh     change       -0.5321765E-02 Eh
 * total energy  :   -40.6582875 Eh     change       -0.1224973E-02 Eh
 * total energy  :   -40.6584991 Eh     change       -0.2115490E-03 Eh
 * total energy  :   -40.6586495 Eh     change       -0.1504853E-03 Eh
 * total energy  :   -40.6587142 Eh     change       -0.6469375E-04 Eh
 * total energy  :   -40.6587833 Eh     change       -0.6909100E-04 Eh
 * total energy  :   -40.6588246 Eh     change       -0.4131317E-04 Eh
 * total energy  :   -40.6588577 Eh     change       -0.3305116E-04 Eh
 * total energy  :   -40.6588789 Eh     change       -0.2124474E-04 Eh
 * total energy  :   -40.6588955 Eh     change       -0.1656951E-04 Eh
 * total energy  :   -40.6589006 Eh     change       -0.5075346E-05 Eh
 * total energy  :   -40.6589135 Eh     change       -0.1288468E-04 Eh
 * total energy  :   -40.6589184 Eh     change       -0.4881957E-05 Eh
   *** GEOMETRY OPTIMIZATION CONVERGED AFTER 14 ITERATIONS ***

 final structure:
================
32
 xtb: 6.7.1 (edcfbbe)
O            1.25489822914731        0.15712014334593        0.33032638028178
C            0.50166266528116        0.81775839964531       -0.65478484973844
C            1.03689192086671        2.25017028075253       -0.91109881838307
N            2.48459526870661        2.21452319057813       -0.80841836495179
C            3.26219904982363        3.12745032322211       -0.16380440402816
C            4.55365627317822        2.71105191913822       -0.27268170658438
N            4.54390540165110        1.55000949324464       -0.98309545853317
C            3.28285215547480        1.26828893354408       -1.29328805935971
C            5.69302975676846        0.71450708770093       -1.25552475481846
C            5.93635473656273       -0.25108092845706       -0.09951630626689
C            0.59979379978892        2.81276806579989       -2.28120677299645
C           -0.92330024483172        2.84256179287614       -2.38476726274006
C            1.16000138414932        4.21919469379975       -2.48882527645353
H            0.87297802822348        0.30224131026328        1.20214499411028
H            0.59316919602700        0.22396559751750       -1.56915465502307
H           -0.55603273616491        0.87256649406839       -0.39060823972454
H            0.68569201117399        2.92295239971119       -0.12143420357344
H            2.85724135079099        3.99386140448085        0.31771106641243
H            5.45563037601103        3.15396900164051        0.09705335022010
H            2.96478761979400        0.40020511009185       -1.83455161589727
H            5.50805917856121        0.16044659099259       -2.17761740053292
H            6.56130299436406        1.36050964871180       -1.39920357654093
H            5.07026874237989       -0.88916022675014        0.05724414380313
H            6.79176670257354       -0.87921242768898       -0.32744181953643
H            6.14299363450579        0.29021706866289        0.82004787292725
H            0.99582787743651        2.15454428799637       -3.06218466092559
H           -1.35258800792329        3.41985204579893       -1.56982805371943
H           -1.21376457709523        3.31331150884879       -3.31950395021593
H           -1.34724043506144        1.84339959740313       -2.36952172658390
H            2.24737704921591        4.23390328886623       -2.46490187778424
H            0.84592752219681        4.59659882933678       -3.45738119266378
H            0.78243307642371        4.89814507485731       -1.72807280017931

          :  Hamiltonian                  GFN2-xTB          :
         :: total energy             -40.658918354389 Eh    ::
         :: gradient norm              0.000466419105 Eh/a0 ::
         :: HOMO-LUMO gap              4.159353834095 eV    ::
         :: SCC energy               -41.222879407216 Eh    ::
         :: -> dispersion             -0.025526249397 Eh    ::
         :: repulsion energy           0.563961052827 Eh    ::

    * Orbital Energies and Occupations

         #    Occupation            Energy/Eh            Energy/eV
      -------------------------------------------------------------
         1        2.0000           -0.8843099             -24.0633
       ...           ...                  ...                  ...
        25        2.0000           -0.6237449             -16.9730
        26        2.0000           -0.6210855             -16.9006
        27        2.0000           -0.6014855             -16.3673
        28        2.0000           -0.5986603             -16.2904
        29        2.0000           -0.5961366             -16.2217
        30        2.0000           -0.5880815             -16.0025
        31        2.0000           -0.5852499             -15.9255
        32        2.0000           -0.5816578             -15.8277
        33        2.0000           -0.5784511             -15.7405
        34        2.0000           -0.5690728             -15.4853
        35        2.0000           -0.5668356             -15.4244
        36        2.0000           -0.5593614             -15.2210
        37        2.0000           -0.5491206             -14.9423 (HOMO)
        38                         -0.3962672             -10.7830 (LUMO)
        39                         -0.3619881              -9.8502
        40                         -0.1841443              -5.0108
        41                         -0.1326410              -3.6093
        42                         -0.1134296              -3.0866
        43                         -0.0701379              -1.9086
        44                         -0.0497658              -1.3542
        45                         -0.0453844              -1.2350
        46                         -0.0320311              -0.8716
        47                         -0.0293591              -0.7989
        48                         -0.0247754              -0.6742
       ...                                ...                  ...
        71                          0.4729236              12.8689
      -------------------------------------------------------------
                  HL-Gap            0.1528534 Eh            4.1594 eV

     #   Z          covCN         q      C6AA      α(0)
     1   8 O        1.656    -0.439    21.614     6.276
     2   6 C        3.676     0.066    19.696     6.358
     3   6 C        3.791     0.003    20.544     6.455
     4   7 N        2.873     0.071    20.006     6.643
     5   6 C        3.076    -0.007    28.112     8.693
     6   6 C        3.073    -0.008    28.134     8.697
     7   7 N        2.873     0.066    20.094     6.658
     8   6 C        3.102     0.057    26.604     8.452
     9   6 C        3.741    -0.022    21.038     6.544
    10   6 C        3.753    -0.125    22.952     6.832
    11   6 C        3.850    -0.019    20.881     6.499
    12   6 C        3.757    -0.124    22.939     6.829
    13   6 C        3.756    -0.120    22.862     6.817
    14   1 H        0.805     0.309     0.695     1.310
    15   1 H        0.924     0.064     2.149     2.293
    16   1 H        0.924     0.060     2.197     2.318
    17   1 H        0.924     0.078     2.003     2.213
    18   1 H        0.926     0.103     1.755     2.072
    19   1 H        0.926     0.105     1.743     2.064
    20   1 H        0.926     0.119     1.621     1.991
    21   1 H        0.924     0.084     1.937     2.176
    22   1 H        0.924     0.090     1.882     2.145
    23   1 H        0.925     0.067     2.119     2.277
    24   1 H        0.925     0.083     1.944     2.181
    25   1 H        0.925     0.066     2.129     2.282
    26   1 H        0.924     0.045     2.386     2.416
    27   1 H        0.925     0.054     2.268     2.355
    28   1 H        0.925     0.071     2.075     2.253
    29   1 H        0.925     0.050     2.323     2.383
    30   1 H        0.925     0.033     2.540     2.492
    31   1 H        0.925     0.068     2.109     2.271
    32   1 H        0.925     0.053     2.282     2.362

Wiberg/Mayer (AO) data.
largest (>0.10) Wiberg bond orders for each atom

     #   Z sym  total        # sym  WBO       # sym  WBO       # sym  WBO
 ---------------------------------------------------------------------------
     1   8 O    1.970 --     2 C    1.013    14 H    0.893
     2   6 C    3.955 --     1 O    1.013    16 H    0.969    15 H    0.967
                             3 C    0.964
     3   6 C    3.938 --     2 C    0.964    11 C    0.959     4 N    0.958
                            17 H    0.958
     4   7 N    3.718 --     8 C    1.363     5 C    1.227     3 C    0.958
     5   6 C    3.950 --     6 C    1.591     4 N    1.227    18 H    0.962
     6   6 C    3.949 --     5 C    1.591     7 N    1.227    19 H    0.962
     7   7 N    3.715 --     8 C    1.365     6 C    1.227     9 C    0.966
     8   6 C    3.947 --     7 N    1.365     4 N    1.363    20 H    0.952
     9   6 C    3.939 --    10 C    1.000    21 H    0.967     7 N    0.966
                            22 H    0.965
    10   6 C    3.981 --     9 C    1.000    25 H    0.984    23 H    0.984
                            24 H    0.976
    11   6 C    3.986 --    13 C    1.009    12 C    1.006    26 H    0.966
                             3 C    0.959
    12   6 C    3.988 --    11 C    1.006    27 H    0.985    29 H    0.984
                            28 H    0.980
    13   6 C    3.991 --    11 C    1.009    30 H    0.985    32 H    0.985
                            31 H    0.981
    14   1 H    0.905 --     1 O    0.893
    15   1 H    0.996 --     2 C    0.967
    16   1 H    0.996 --     2 C    0.969
    17   1 H    0.994 --     3 C    0.958
    18   1 H    0.989 --     5 C    0.962
    19   1 H    0.989 --     6 C    0.962
    20   1 H    0.986 --     8 C    0.952
    21   1 H    0.993 --     9 C    0.967
    22   1 H    0.991 --     9 C    0.965
    23   1 H    0.996 --    10 C    0.984
    24   1 H    0.992 --    10 C    0.976
    25   1 H    0.996 --    10 C    0.984
    26   1 H    0.998 --    11 C    0.966
    27   1 H    0.997 --    12 C    0.985
    28   1 H    0.993 --    12 C    0.980
    29   1 H    0.998 --    12 C    0.984
    30   1 H    0.999 --    13 C    0.985
    31   1 H    0.995 --    13 C    0.981
    32   1 H    0.997 --    13 C    0.985
 ---------------------------------------------------------------------------

molecular dipole:
                 x           y           z       tot (Debye)
 q only:        5.840       3.591      -1.707
   full:        5.697       3.668      -1.604      17.698

           -------------------------------------------------
          | TOTAL ENERGY              -40.658918354389 Eh   |
          | GRADIENT NORM               0.000466419105 Eh/α |
          | HOMO-LUMO GAP               4.159353834095 eV   |
           -------------------------------------------------

 * finished run on 2024/12/20 at 07:09:38.898
