   * xtb version 6.7.1 (edcfbbe) compiled by 'conda@3ef47c1a292c' on 2024-11-25

   ID    Z sym.   atoms
    1    7 N      1, 5, 8
    2    6 C      2-4, 6, 7, 9-25
    3    1 H      26-61

          program call               : xtb C1055.xyz --opt --namespace C1055 --charge +1
          :  Hamiltonian                  GFN2-xTB          :
 * total energy  :   -73.8974749 Eh     change       -0.1973547E-08 Eh
 * total energy  :   -73.9088047 Eh     change       -0.1132981E-01 Eh
 * total energy  :   -73.9116648 Eh     change       -0.2860134E-02 Eh
 * total energy  :   -73.9123047 Eh     change       -0.6399387E-03 Eh
 * total energy  :   -73.9126467 Eh     change       -0.3420121E-03 Eh
 * total energy  :   -73.9128203 Eh     change       -0.1735837E-03 Eh
 * total energy  :   -73.9130295 Eh     change       -0.2091648E-03 Eh
 * total energy  :   -73.9132427 Eh     change       -0.2132346E-03 Eh
 * total energy  :   -73.9134935 Eh     change       -0.2508014E-03 Eh
 * total energy  :   -73.9136736 Eh     change       -0.1800821E-03 Eh
 * total energy  :   -73.9171098 Eh     change       -0.1598546E-04 Eh
 * total energy  :   -73.9171297 Eh     change       -0.1998956E-04 Eh
 * total energy  :   -73.9171482 Eh     change       -0.1842580E-04 Eh
 * total energy  :   -73.9171561 Eh     change       -0.7914212E-05 Eh
 * total energy  :   -73.9171684 Eh     change       -0.1227903E-04 Eh
 * total energy  :   -73.9171806 Eh     change       -0.1221841E-04 Eh
 * total energy  :   -73.9171915 Eh     change       -0.1088218E-04 Eh
 * total energy  :   -73.9171979 Eh     change       -0.6480963E-05 Eh
 * total energy  :   -73.9172027 Eh     change       -0.4764136E-05 Eh
   *** GEOMETRY OPTIMIZATION CONVERGED AFTER 69 ITERATIONS ***

 final structure:
================
61
 xtb: 6.7.1 (edcfbbe)
N            2.01306690569300       -1.03140034689254        0.15991979349053
C            0.67618580718235       -0.61212184814563        0.05014138725583
C           -0.28464857476915       -1.61479395026522       -0.18532703946103
C            0.10717827625651       -3.06905187653838       -0.32451340060366
N            0.31355781162280       -3.67664837296810        0.97980861087809
C           -0.26523786223498       -4.81576854594704        1.44429862740928
C            0.17553068302585       -4.99938492392552        2.71853224894025
N            1.01383962288822       -3.96571919901041        3.01610517703074
C            1.08057633654742       -3.17992180409315        1.94586281236971
C            1.71109518989517       -3.78782119499675        4.29972442459843
C            2.68987135427472       -4.95148370396652        4.46679667346872
C            2.46411059443661       -2.46080695338530        4.29206607060250
C            0.66254541767738       -3.78621095323038        5.41377806941398
C           -1.63182763987457       -1.31613787977472       -0.26383595557080
C           -2.08671140867165       -0.01500169022255       -0.11193173445350
C           -1.13027021627259        0.95041137445770        0.14989024011129
C            0.24059322846564        0.70781105077408        0.24715612696142
C            1.07988692610422        1.95426635287579        0.57020786179157
C            0.86596350775164        2.98856378426533       -0.54829847314335
C            0.59041116363979        2.51961200691475        1.91578804912185
C            2.59960618374915        1.78840016649499        0.71153671676958
C           -3.57198276943023        0.28767243948762       -0.21665479664868
C           -4.08385579299200       -0.17833056249157       -1.58670036488459
C           -4.30874033927010       -0.46674096505267        0.89959314330566
C           -3.88341480007268        1.77938178609586       -0.07491603318260
H            2.26852900433158       -1.72500925357296       -0.53105939779860
H            2.66987720173620       -0.26966916507031        0.13032225365564
H           -0.69563277923771       -3.61874048513744       -0.81830092976478
H            1.01801076676262       -3.20107395736032       -0.91747955779697
H           -0.93467244851206       -5.40959006685317        0.85657580617749
H           -0.05616861153664       -5.78333962265371        3.40801103545458
H            1.65528317240951       -2.27908963295096        1.82061349657690
H            3.41835249543521       -4.96036800709624        3.65927951949094
H            3.22410230878261       -4.84482499764270        5.40596558862615
H            2.17277237578201       -5.90701199668998        4.47943141508641
H            1.78542510329279       -1.62537627591796        4.13925292046688
H            2.94950654809727       -2.32509412034641        5.25416583011951
H            3.23606745210521       -2.44587771735016        3.52694754946879
H           -0.08168328217883       -3.01187290234597        5.23935977655611
H            0.15743359610413       -4.74506297374489        5.49338096595287
H            1.14587394986706       -3.58484670237836        6.36504444646525
H           -2.32894201793650       -2.11815112203747       -0.45237174655374
H           -1.46675181608281        1.96188573577806        0.28180212261144
H           -0.17220517388975        3.28983127432838       -0.63906718818058
H            1.45458726743564        3.87995803190058       -0.34521239689880
H            1.18330066958416        2.57917229502488       -1.50557614639429
H            0.73090101823284        1.78386009744728        2.70597441385949
H            1.15939138589947        3.40977959096910        2.17232829465635
H           -0.45913191042851        2.79277146320643        1.89167751082690
H            2.86581917177891        1.09465593206311        1.50720774919358
H            3.07227957565878        1.51352086737867       -0.23078639254456
H            3.01790764225840        2.75532229462865        0.98743903661131
H           -3.97238954093589       -1.25160102978343       -1.71396493566642
H           -5.13814886496988        0.06488252220751       -1.69090859023118
H           -3.53588659824988        0.31990565882863       -2.38328818987881
H           -3.93667356812247       -0.15694348694944        1.87420652649543
H           -5.37299183275761       -0.25072879404809        0.85402894667945
H           -4.17762073737925       -1.54189477609216        0.80774849039909
H           -3.58723241543081        2.15478240594835        0.90198588991937
H           -3.38780926999860        2.35853479411333       -0.85051990146636
H           -4.95467944352067        1.93412993179322       -0.17764244774767

          :  Hamiltonian                  GFN2-xTB          :
         :: total energy             -73.917202707037 Eh    ::
         :: gradient norm              0.000674236942 Eh/a0 ::
         :: HOMO-LUMO gap              2.251184081890 eV    ::
         :: SCC energy               -75.084800675741 Eh    ::
         :: -> dispersion             -0.061696656310 Eh    ::
         :: repulsion energy           1.167597968704 Eh    ::

    * Orbital Energies and Occupations

         #    Occupation            Energy/Eh            Energy/eV
      -------------------------------------------------------------
         1        2.0000           -0.8674445             -23.6044
       ...           ...                  ...                  ...
        57        2.0000           -0.5363597             -14.5951
        58        2.0000           -0.5352763             -14.5656
        59        2.0000           -0.5293123             -14.4033
        60        2.0000           -0.5270893             -14.3428
        61        2.0000           -0.5250210             -14.2865
        62        2.0000           -0.5211733             -14.1818
        63        2.0000           -0.5194099             -14.1339
        64        2.0000           -0.5093198             -13.8593
        65        2.0000           -0.5075894             -13.8122
        66        2.0000           -0.4984023             -13.5622
        67        2.0000           -0.4947863             -13.4638
        68        2.0000           -0.4885420             -13.2939
        69        2.0000           -0.4618852             -12.5685 (HOMO)
        70                         -0.3791557             -10.3174 (LUMO)
        71                         -0.3468696              -9.4388
        72                         -0.3212090              -8.7405
        73                         -0.3073900              -8.3645
        74                         -0.1986084              -5.4044
        75                         -0.1690132              -4.5991
        76                         -0.1114307              -3.0322
        77                         -0.0750843              -2.0431
        78                         -0.0610514              -1.6613
        79                         -0.0557596              -1.5173
        80                         -0.0498549              -1.3566
       ...                                ...                  ...
       136                          0.5535635              15.0632
      -------------------------------------------------------------
                  HL-Gap            0.0827295 Eh            2.2512 eV

     #   Z          covCN         q      C6AA      α(0)
     1   7 N        2.638    -0.331    28.517     7.931
     2   6 C        2.901     0.058    26.700     8.472
     3   6 C        2.973    -0.039    28.966     8.828
     4   6 C        3.749    -0.022    21.022     6.539
     5   7 N        2.873     0.060    20.195     6.674
     6   6 C        3.069    -0.010    28.184     8.705
     7   6 C        3.080    -0.007    28.097     8.690
     8   7 N        2.873     0.048    20.394     6.707
     9   6 C        3.101     0.041    26.960     8.509
    10   6 C        3.837     0.075    19.308     6.251
    11   6 C        3.760    -0.128    22.999     6.837
    12   6 C        3.760    -0.134    23.125     6.856
    13   6 C        3.760    -0.128    23.005     6.838
    14   6 C        2.934    -0.048    29.183     8.860
    15   6 C        2.969     0.004    27.924     8.668
    16   6 C        2.942    -0.046    29.153     8.855
    17   6 C        2.965    -0.017    28.423     8.745
    18   6 C        3.903     0.027    20.057     6.366
    19   6 C        3.763    -0.112    22.688     6.790
    20   6 C        3.764    -0.112    22.683     6.789
    21   6 C        3.764    -0.111    22.667     6.786
    22   6 C        3.903     0.026    20.076     6.369
    23   6 C        3.762    -0.110    22.643     6.783
    24   6 C        3.762    -0.108    22.613     6.779
    25   6 C        3.761    -0.112    22.688     6.790
    26   1 H        0.860     0.152     1.386     1.844
    27   1 H        0.860     0.184     1.190     1.709
    28   1 H        0.924     0.082     1.961     2.190
    29   1 H        0.924     0.072     2.062     2.245
    30   1 H        0.926     0.095     1.829     2.115
    31   1 H        0.927     0.096     1.821     2.110
    32   1 H        0.926     0.136     1.492     1.910
    33   1 H        0.925     0.057     2.237     2.339
    34   1 H        0.925     0.078     2.002     2.213
    35   1 H        0.925     0.059     2.206     2.323
    36   1 H        0.925     0.059     2.214     2.327
    37   1 H        0.925     0.080     1.984     2.203
    38   1 H        0.925     0.058     2.217     2.329
    39   1 H        0.925     0.058     2.227     2.333
    40   1 H        0.925     0.060     2.198     2.318
    41   1 H        0.925     0.077     2.009     2.217
    42   1 H        0.926     0.034     2.526     2.485
    43   1 H        0.926     0.061     2.186     2.312
    44   1 H        0.925     0.045     2.389     2.417
    45   1 H        0.925     0.048     2.351     2.398
    46   1 H        0.925     0.037     2.495     2.470
    47   1 H        0.925     0.030     2.586     2.515
    48   1 H        0.925     0.048     2.349     2.397
    49   1 H        0.925     0.044     2.394     2.419
    50   1 H        0.925     0.036     2.497     2.471
    51   1 H        0.925     0.034     2.525     2.485
    52   1 H        0.925     0.052     2.297     2.370
    53   1 H        0.925     0.035     2.518     2.481
    54   1 H        0.925     0.048     2.345     2.395
    55   1 H        0.925     0.039     2.461     2.453
    56   1 H        0.925     0.034     2.535     2.490
    57   1 H        0.925     0.049     2.336     2.390
    58   1 H        0.925     0.032     2.560     2.502
    59   1 H        0.925     0.037     2.483     2.464
    60   1 H        0.925     0.040     2.444     2.445
    61   1 H        0.925     0.047     2.357     2.401

Wiberg/Mayer (AO) data.
largest (>0.10) Wiberg bond orders for each atom

     #   Z sym  total        # sym  WBO       # sym  WBO       # sym  WBO
 ---------------------------------------------------------------------------
     1   7 N    3.176 --     2 C    1.104    26 H    0.943    27 H    0.921
     2   6 C    3.970 --    17 C    1.359     3 C    1.328     1 N    1.104
     3   6 C    3.964 --    14 C    1.435     2 C    1.328     4 C    0.988
     4   6 C    3.936 --     3 C    0.988    28 H    0.966     5 N    0.953
                            29 H    0.945
     5   7 N    3.712 --     9 C    1.363     6 C    1.229     4 C    0.953
     6   6 C    3.951 --     7 C    1.592     5 N    1.229    30 H    0.963
     7   6 C    3.953 --     6 C    1.592     8 N    1.227    31 H    0.961
     8   7 N    3.705 --     9 C    1.369     7 C    1.227    10 C    0.923
     9   6 C    3.937 --     8 N    1.369     5 N    1.363    32 H    0.929
    10   6 C    3.940 --    12 C    1.000    13 C    0.988    11 C    0.986
                             8 N    0.923
    11   6 C    3.986 --    10 C    0.986    33 H    0.983    35 H    0.982
                            34 H    0.978
    12   6 C    3.987 --    10 C    1.000    36 H    0.982    38 H    0.981
                            37 H    0.978
    13   6 C    3.986 --    10 C    0.988    39 H    0.983    40 H    0.981
                            41 H    0.978
    14   6 C    3.989 --     3 C    1.435    15 C    1.393    42 H    0.962
                            17 C    0.103
    15   6 C    3.986 --    16 C    1.421    14 C    1.393    22 C    0.984
    16   6 C    3.989 --    15 C    1.421    17 C    1.411    43 H    0.952
    17   6 C    3.982 --    16 C    1.411     2 C    1.359    18 C    0.980
                            14 C    0.103
    18   6 C    3.989 --    21 C    0.999    19 C    0.987    20 C    0.987
                            17 C    0.980
    19   6 C    3.993 --    18 C    0.987    46 H    0.986    45 H    0.983
                            44 H    0.980
    20   6 C    3.994 --    47 H    0.987    18 C    0.987    48 H    0.983
                            49 H    0.980
    21   6 C    3.995 --    18 C    0.999    50 H    0.979    52 H    0.978
                            51 H    0.974
    22   6 C    3.990 --    25 C    1.000    23 C    0.987    24 C    0.985
                            15 C    0.984
    23   6 C    3.994 --    22 C    0.987    55 H    0.986    53 H    0.983
                            54 H    0.983
    24   6 C    3.994 --    56 H    0.987    22 C    0.985    58 H    0.984
                            57 H    0.983
    25   6 C    3.995 --    22 C    1.000    60 H    0.984    59 H    0.984
                            61 H    0.983
    26   1 H    0.976 --     1 N    0.943
    27   1 H    0.966 --     1 N    0.921
    28   1 H    0.992 --     4 C    0.966
    29   1 H    0.994 --     4 C    0.945
    30   1 H    0.990 --     6 C    0.963
    31   1 H    0.990 --     7 C    0.961
    32   1 H    0.982 --     9 C    0.929
    33   1 H    0.997 --    11 C    0.983
    34   1 H    0.993 --    11 C    0.978
    35   1 H    0.996 --    11 C    0.982
    36   1 H    0.997 --    12 C    0.982
    37   1 H    0.993 --    12 C    0.978
    38   1 H    0.997 --    12 C    0.981
    39   1 H    0.997 --    13 C    0.983
    40   1 H    0.996 --    13 C    0.981
    41   1 H    0.993 --    13 C    0.978
    42   1 H    0.998 --    14 C    0.962
    43   1 H    0.996 --    16 C    0.952
    44   1 H    0.998 --    19 C    0.980
    45   1 H    0.997 --    19 C    0.983
    46   1 H    0.999 --    19 C    0.986
    47   1 H    0.999 --    20 C    0.987
    48   1 H    0.997 --    20 C    0.983
    49   1 H    0.998 --    20 C    0.980
    50   1 H    0.999 --    21 C    0.979
    51   1 H    0.999 --    21 C    0.974
    52   1 H    0.997 --    21 C    0.978
    53   1 H    0.999 --    23 C    0.983
    54   1 H    0.997 --    23 C    0.983
    55   1 H    0.998 --    23 C    0.986
    56   1 H    0.999 --    24 C    0.987
    57   1 H    0.997 --    24 C    0.983
    58   1 H    0.999 --    24 C    0.984
    59   1 H    0.999 --    25 C    0.984
    60   1 H    0.998 --    25 C    0.984
    61   1 H    0.997 --    25 C    0.983
 ---------------------------------------------------------------------------

molecular dipole:
                 x           y           z       tot (Debye)
 q only:        1.508      -5.501       3.914
   full:        1.603      -5.551       3.557      17.246

           -------------------------------------------------
          | TOTAL ENERGY              -73.917202707037 Eh   |
          | GRADIENT NORM               0.000674236942 Eh/α |
          | HOMO-LUMO GAP               2.251184081890 eV   |
           -------------------------------------------------

 * finished run on 2024/12/20 at 07:09:42.821
