   * xtb version 6.7.1 (edcfbbe) compiled by 'conda@3ef47c1a292c' on 2024-11-25

   ID    Z sym.   atoms
    1    6 C      1-3, 5-12
    2    7 N      4
    3    1 H      13-28

          program call               : xtb C1056.xyz --opt --namespace C1056 --charge +1
          :  Hamiltonian                  GFN2-xTB          :
 * total energy  :   -34.1765070 Eh     change       -0.6916849E-09 Eh
 * total energy  :   -34.1829410 Eh     change       -0.6433991E-02 Eh
 * total energy  :   -34.1844047 Eh     change       -0.1463671E-02 Eh
 * total energy  :   -34.1845912 Eh     change       -0.1865447E-03 Eh
 * total energy  :   -34.1847351 Eh     change       -0.1438217E-03 Eh
 * total energy  :   -34.1847933 Eh     change       -0.5828238E-04 Eh
 * total energy  :   -34.1848278 Eh     change       -0.3444712E-04 Eh
 * total energy  :   -34.1848788 Eh     change       -0.5103930E-04 Eh
 * total energy  :   -34.1849151 Eh     change       -0.3630680E-04 Eh
 * total energy  :   -34.1849374 Eh     change       -0.2225249E-04 Eh
 * total energy  :   -34.1849414 Eh     change       -0.4064385E-05 Eh
 * total energy  :   -34.1849447 Eh     change       -0.3232862E-05 Eh
   *** GEOMETRY OPTIMIZATION CONVERGED AFTER 12 ITERATIONS ***

 final structure:
================
28
 xtb: 6.7.1 (edcfbbe)
C            0.97087809513281        0.02903331808872        0.22922118266646
C            0.45955743140368        0.73171422287233       -0.76443968993828
C           -1.01254441443110        0.81935069383994       -1.04145692784881
N           -1.51244673588019        2.23325322868930       -1.01199035604565
C           -0.78090241482858        3.03845268834361       -2.02599145760024
C           -0.02713249899373        4.14903303073951       -1.67858996956556
C            0.63539572683474        4.86885228783026       -2.66233879141858
C            0.55512529419713        4.49007941288004       -3.98944132097296
C           -0.19689936431051        3.38009278251132       -4.33490108934047
C           -0.86302278622009        2.65735940064462       -3.36116210399402
C           -2.95524748393656        2.26429488701890       -1.32983211352487
C           -1.34262292682585        2.74257533486717        0.36143633120669
H            0.35550037571966       -0.51899984254793        0.92382059256616
H            2.03353677478789       -0.04307394112747        0.37712805748236
H            1.09853537267869        1.25941151684989       -1.45907826517873
H           -1.21979848441980        0.39971011128886       -2.02800621967537
H           -1.57036736571938        0.24587407202794       -0.29817585631682
H            0.07106513971944        4.48138536831338       -0.65988547272664
H            1.21739241648177        5.73043994617299       -2.37674713185349
H            1.07407889289837        5.05244155362298       -4.74851093145974
H           -0.26924882531720        3.06948208945183       -5.36486227934124
H           -1.43694658072437        1.79747755007673       -3.66927519290636
H           -3.51242974201638        1.68865028278720       -0.59252670691654
H           -3.30800840583498        3.29450552845375       -1.31722636919383
H           -3.14733158800953        1.84630968067651       -2.31458846093260
H           -1.91195622398459        2.11691842127920        1.04714993756477
H           -0.29396461701653        2.70076578643840        0.65013902762721
H           -1.71276506138437        3.76280058790998        0.43802157763714

          :  Hamiltonian                  GFN2-xTB          :
         :: total energy             -34.184944680615 Eh    ::
         :: gradient norm              0.000330006712 Eh/a0 ::
         :: HOMO-LUMO gap              4.752862483421 eV    ::
         :: SCC energy               -34.779122636998 Eh    ::
         :: -> dispersion             -0.024479315136 Eh    ::
         :: repulsion energy           0.594177956382 Eh    ::

    * Orbital Energies and Occupations

         #    Occupation            Energy/Eh            Energy/eV
      -------------------------------------------------------------
         1        2.0000           -0.8598842             -23.3986
       ...           ...                  ...                  ...
        20        2.0000           -0.6417494             -17.4629
        21        2.0000           -0.6394633             -17.4007
        22        2.0000           -0.6353916             -17.2899
        23        2.0000           -0.6269056             -17.0590
        24        2.0000           -0.6234575             -16.9651
        25        2.0000           -0.6194476             -16.8560
        26        2.0000           -0.6070832             -16.5196
        27        2.0000           -0.5778226             -15.7234
        28        2.0000           -0.5731763             -15.5969
        29        2.0000           -0.5662938             -15.4096
        30        2.0000           -0.5573494             -15.1662
        31        2.0000           -0.5541476             -15.0791
        32        2.0000           -0.5528588             -15.0441 (HOMO)
        33                         -0.3781943             -10.2912 (LUMO)
        34                         -0.3711605             -10.0998
        35                         -0.3581126              -9.7447
        36                         -0.2440380              -6.6406
        37                         -0.2214397              -6.0257
        38                         -0.1585207              -4.3136
        39                         -0.1362574              -3.7078
        40                         -0.1251095              -3.4044
        41                         -0.0623007              -1.6953
        42                         -0.0307741              -0.8374
        43                         -0.0133560              -0.3634
       ...                                ...                  ...
        64                          0.5166778              14.0595
      -------------------------------------------------------------
                  HL-Gap            0.1746645 Eh            4.7529 eV

     #   Z          covCN         q      C6AA      α(0)
     1   6 C        2.838    -0.078    29.937     8.966
     2   6 C        2.884    -0.043    29.059     8.838
     3   6 C        3.770    -0.033    21.199     6.561
     4   7 N        3.624     0.123    19.135     6.497
     5   6 C        2.928     0.034    27.241     8.559
     6   6 C        2.919    -0.040    28.983     8.828
     7   6 C        2.922    -0.017    28.433     8.744
     8   6 C        2.918    -0.015    28.388     8.737
     9   6 C        2.921    -0.017    28.428     8.744
    10   6 C        2.921    -0.037    28.927     8.820
    11   6 C        3.724    -0.087    22.275     6.739
    12   6 C        3.722    -0.088    22.291     6.743
    13   1 H        0.926     0.069     2.101     2.267
    14   1 H        0.926     0.081     1.971     2.195
    15   1 H        0.925     0.058     2.228     2.334
    16   1 H        0.924     0.089     1.887     2.148
    17   1 H        0.924     0.086     1.918     2.166
    18   1 H        0.926     0.063     2.168     2.303
    19   1 H        0.926     0.073     2.053     2.241
    20   1 H        0.926     0.076     2.024     2.225
    21   1 H        0.926     0.073     2.057     2.243
    22   1 H        0.926     0.053     2.288     2.365
    23   1 H        0.925     0.094     1.839     2.121
    24   1 H        0.925     0.096     1.819     2.109
    25   1 H        0.925     0.097     1.813     2.106
    26   1 H        0.925     0.094     1.839     2.121
    27   1 H        0.925     0.100     1.786     2.090
    28   1 H        0.925     0.097     1.811     2.105

Wiberg/Mayer (AO) data.
largest (>0.10) Wiberg bond orders for each atom

     #   Z sym  total        # sym  WBO       # sym  WBO       # sym  WBO
 ---------------------------------------------------------------------------
     1   6 C    3.982 --     2 C    1.981    14 H    0.971    13 H    0.971
     2   6 C    3.983 --     1 C    1.981     3 C    1.018    15 H    0.961
     3   6 C    3.932 --     2 C    1.018    17 H    0.964    16 H    0.954
                             4 N    0.914
     4   7 N    3.804 --    12 C    0.961    11 C    0.955     3 C    0.914
                             5 C    0.906
     5   6 C    3.923 --     6 C    1.425    10 C    1.406     4 N    0.906
                             8 C    0.108
     6   6 C    3.989 --     7 C    1.427     5 C    1.425    18 H    0.962
                             9 C    0.109
     7   6 C    3.987 --     8 C    1.447     6 C    1.427    19 H    0.967
                            10 C    0.112
     8   6 C    3.986 --     7 C    1.447     9 C    1.432    20 H    0.966
                             5 C    0.108
     9   6 C    3.988 --    10 C    1.446     8 C    1.432    21 H    0.967
                             6 C    0.109
    10   6 C    3.990 --     9 C    1.446     5 C    1.406    22 H    0.960
                             7 C    0.112
    11   6 C    3.930 --    24 H    0.976    23 H    0.974    25 H    0.972
                             4 N    0.955
    12   6 C    3.930 --    28 H    0.974    26 H    0.973    27 H    0.971
                             4 N    0.961
    13   1 H    0.995 --     1 C    0.971
    14   1 H    0.993 --     1 C    0.971
    15   1 H    0.997 --     2 C    0.961
    16   1 H    0.992 --     3 C    0.954
    17   1 H    0.992 --     3 C    0.964
    18   1 H    0.996 --     6 C    0.962
    19   1 H    0.994 --     7 C    0.967
    20   1 H    0.993 --     8 C    0.966
    21   1 H    0.994 --     9 C    0.967
    22   1 H    0.997 --    10 C    0.960
    23   1 H    0.990 --    11 C    0.974
    24   1 H    0.990 --    11 C    0.976
    25   1 H    0.991 --    11 C    0.972
    26   1 H    0.991 --    12 C    0.973
    27   1 H    0.990 --    12 C    0.971
    28   1 H    0.991 --    12 C    0.974
 ---------------------------------------------------------------------------

molecular dipole:
                 x           y           z       tot (Debye)
 q only:       -2.126       4.513      -2.352
   full:       -2.242       4.463      -2.346      14.025

           -------------------------------------------------
          | TOTAL ENERGY              -34.184944680615 Eh   |
          | GRADIENT NORM               0.000330006712 Eh/α |
          | HOMO-LUMO GAP               4.752862483421 eV   |
           -------------------------------------------------

 * finished run on 2024/12/20 at 07:09:43.455
