   * xtb version 6.7.1 (edcfbbe) compiled by 'conda@3ef47c1a292c' on 2024-11-25

   ID    Z sym.   atoms
    1    6 C      1, 4, 5
    2    7 N      2
    3    8 O      3
    4    1 H      6-15

          program call               : xtb C1050.xyz --opt --namespace C1050 --charge +1
          :  Hamiltonian                  GFN2-xTB          :
 * total energy  :   -18.0327418 Eh     change       -0.6490808E-11 Eh
 * total energy  :   -18.0385970 Eh     change       -0.5855241E-02 Eh
 * total energy  :   -18.0399776 Eh     change       -0.1380598E-02 Eh
 * total energy  :   -18.0400300 Eh     change       -0.5235044E-04 Eh
 * total energy  :   -18.0400394 Eh     change       -0.9488573E-05 Eh
 * total energy  :   -18.0400434 Eh     change       -0.3916983E-05 Eh
   *** GEOMETRY OPTIMIZATION CONVERGED AFTER 6 ITERATIONS ***

 final structure:
================
15
 xtb: 6.7.1 (edcfbbe)
C            0.97119987199438        0.05181836341881       -0.06279149564822
N            0.47379886186483       -0.00771596390358       -1.44487588729892
O            0.86656021203155       -1.20576885248350       -2.03952273663301
C           -0.99840896594892       -0.04865595340792       -1.46520039138806
C            0.97120172299227        1.12908187454081       -2.23315621246644
H            0.63719383951777       -0.83064512581045        0.48292419023339
H            0.59269585772905        0.94185225202786        0.43583207356303
H            2.06104363641429        0.08080710131996       -0.05212793713773
H            1.83541756356557       -1.28428678131330       -2.07861066212028
H           -1.40956608131040        0.85229649131234       -1.01799740786549
H           -1.34095309317347       -0.13878850911470       -2.49494754195158
H           -1.34095240097792       -0.92334082284501       -0.91435602074097
H            0.59266846767344        2.06439586554437       -1.82578419261272
H            2.06104511615296        1.15512653913157       -2.21648120316445
H            0.63722539147459        1.03012352158273       -3.26600457476854

          :  Hamiltonian                  GFN2-xTB          :
         :: total energy             -18.040043363550 Eh    ::
         :: gradient norm              0.000655539998 Eh/a0 ::
         :: HOMO-LUMO gap              9.796578518441 eV    ::
         :: SCC energy               -18.240612490607 Eh    ::
         :: -> dispersion             -0.006628530304 Eh    ::
         :: repulsion energy           0.200569127057 Eh    ::

    * Orbital Energies and Occupations

         #    Occupation            Energy/Eh            Energy/eV
      -------------------------------------------------------------
         1        2.0000           -0.9391549             -25.5557
       ...           ...                  ...                  ...
         4        2.0000           -0.8584779             -23.3604
         5        2.0000           -0.8246738             -22.4405
         6        2.0000           -0.7719850             -21.0068
         7        2.0000           -0.7591833             -20.6584
         8        2.0000           -0.7574834             -20.6122
         9        2.0000           -0.7220993             -19.6493
        10        2.0000           -0.6944825             -18.8978
        11        2.0000           -0.6856538             -18.6576
        12        2.0000           -0.6786933             -18.4682
        13        2.0000           -0.6708755             -18.2555
        14        2.0000           -0.6693525             -18.2140
        15        2.0000           -0.6627143             -18.0334
        16        2.0000           -0.6555660             -17.8389 (HOMO)
        17                         -0.2955484              -8.0423 (LUMO)
        18                         -0.2239340              -6.0936
        19                         -0.1668836              -4.5411
        20                         -0.1542556              -4.1975
        21                         -0.0853181              -2.3216
        22                         -0.0188695              -0.5135
        23                         -0.0091421              -0.2488
        24                         -0.0026154              -0.0712
        25                          0.0158467               0.4312
        26                          0.0160994               0.4381
        27                          0.0269873               0.7344
       ...                                ...                  ...
        30                          0.0481018               1.3089
      -------------------------------------------------------------
                  HL-Gap            0.3600176 Eh            9.7966 eV

     #   Z          covCN         q      C6AA      α(0)
     1   6 C        3.706    -0.120    22.963     6.850
     2   7 N        3.633     0.301    16.488     6.031
     3   8 O        1.727    -0.338    19.663     5.987
     4   6 C        3.711    -0.114    22.816     6.826
     5   6 C        3.706    -0.120    22.963     6.850
     6   1 H        0.925     0.121     1.608     1.983
     7   1 H        0.925     0.115     1.654     2.011
     8   1 H        0.924     0.105     1.741     2.064
     9   1 H        0.804     0.348     0.592     1.208
    10   1 H        0.925     0.112     1.678     2.026
    11   1 H        0.925     0.125     1.576     1.963
    12   1 H        0.925     0.125     1.576     1.963
    13   1 H        0.925     0.115     1.654     2.011
    14   1 H        0.924     0.105     1.741     2.064
    15   1 H        0.925     0.121     1.608     1.983

Wiberg/Mayer (AO) data.
largest (>0.10) Wiberg bond orders for each atom

     #   Z sym  total        # sym  WBO       # sym  WBO       # sym  WBO
 ---------------------------------------------------------------------------
     1   6 C    3.919 --     8 H    0.973     6 H    0.971     7 H    0.969
                             2 N    0.955
     2   7 N    3.842 --     3 O    0.982     5 C    0.955     1 C    0.955
                             4 C    0.945
     3   8 O    1.937 --     2 N    0.982     9 H    0.859
     4   6 C    3.903 --    10 H    0.971    11 H    0.970    12 H    0.970
                             2 N    0.945
     5   6 C    3.919 --    14 H    0.973    15 H    0.971    13 H    0.969
                             2 N    0.955
     6   1 H    0.985 --     1 C    0.971
     7   1 H    0.987 --     1 C    0.969
     8   1 H    0.989 --     1 C    0.973
     9   1 H    0.879 --     3 O    0.859
    10   1 H    0.987 --     4 C    0.971
    11   1 H    0.984 --     4 C    0.970
    12   1 H    0.984 --     4 C    0.970
    13   1 H    0.987 --     5 C    0.969
    14   1 H    0.989 --     5 C    0.973
    15   1 H    0.985 --     5 C    0.971
 ---------------------------------------------------------------------------

molecular dipole:
                 x           y           z       tot (Debye)
 q only:        1.131       0.536      -2.457
   full:        1.366       0.624      -2.413       7.225

           -------------------------------------------------
          | TOTAL ENERGY              -18.040043363550 Eh   |
          | GRADIENT NORM               0.000655539998 Eh/α |
          | HOMO-LUMO GAP               9.796578518441 eV   |
           -------------------------------------------------

 * finished run on 2024/12/20 at 07:09:30.613
