   * xtb version 6.7.1 (edcfbbe) compiled by 'conda@3ef47c1a292c' on 2024-11-25

   ID    Z sym.   atoms
    1    7 N      1, 2, 6
    2    6 C      3, 5, 7-11
    3    8 O      4
    4    1 H      12-21

          program call               : xtb C1051.xyz --opt --namespace C1051 --charge +1
          :  Hamiltonian                  GFN2-xTB          :
 * total energy  :   -32.4692465 Eh     change       -0.2160618E-09 Eh
 * total energy  :   -32.4741093 Eh     change       -0.4862711E-02 Eh
 * total energy  :   -32.4755513 Eh     change       -0.1442085E-02 Eh
 * total energy  :   -32.4759262 Eh     change       -0.3748778E-03 Eh
 * total energy  :   -32.4761446 Eh     change       -0.2184221E-03 Eh
 * total energy  :   -32.4762519 Eh     change       -0.1072930E-03 Eh
 * total energy  :   -32.4764093 Eh     change       -0.1573950E-03 Eh
 * total energy  :   -32.4766387 Eh     change       -0.2293860E-03 Eh
 * total energy  :   -32.4769060 Eh     change       -0.2672634E-03 Eh
 * total energy  :   -32.4771990 Eh     change       -0.2930354E-03 Eh
 * total energy  :   -32.4826934 Eh     change       -0.1949897E-04 Eh
 * total energy  :   -32.4827139 Eh     change       -0.2052422E-04 Eh
 * total energy  :   -32.4827291 Eh     change       -0.1517957E-04 Eh
 * total energy  :   -32.4827424 Eh     change       -0.1335000E-04 Eh
 * total energy  :   -32.4827632 Eh     change       -0.2077412E-04 Eh
 * total energy  :   -32.4827765 Eh     change       -0.1331792E-04 Eh
 * total energy  :   -32.4827921 Eh     change       -0.1555580E-04 Eh
 * total energy  :   -32.4827999 Eh     change       -0.7873556E-05 Eh
 * total energy  :   -32.4828045 Eh     change       -0.4537276E-05 Eh
   *** GEOMETRY OPTIMIZATION CONVERGED AFTER 44 ITERATIONS ***

 final structure:
================
21
 xtb: 6.7.1 (edcfbbe)
N           -0.63413866942222        0.61067144031038        0.68816518275781
N            0.42759509439871        1.30320896360800        0.09490730879275
C            0.82224446799214        1.05711414797280       -1.15736088093921
O            1.72572817088830        1.62297693723645       -1.72255351899948
C           -0.00668794686604       -0.04618985529850       -1.87906546483052
N            0.76423823781425       -0.50026191384080       -3.00337947914314
C            1.05913131000380        0.38639669481268       -3.96395876629529
C            1.92524651367850        0.05823241724640       -4.98909372536108
C            2.49320059505334       -1.20621982624636       -5.02208931973611
C            2.16530249479565       -2.11321814076873       -4.01925703784491
C            1.30780138887249       -1.72517982062265       -3.01459981680451
H           -0.34333451101460        0.20629015399057        1.57584077094620
H           -1.41977973127533        1.23371413996630        0.86737212195093
H            0.92687817491637        2.03300198443776        0.59992464064790
H           -0.22900818742271       -0.85372399555557       -1.18216499125922
H           -0.94549162787047        0.40925695423314       -2.20433051469417
H            0.59030706786063        1.35647708728168       -3.91251673447290
H            2.15173834651724        0.79092993305354       -5.74670488796570
H            3.17540080446981       -1.48381175813887       -5.81006670705596
H            2.58137758669582       -3.10776472316507       -4.01099020160049
H            1.04417041991316       -2.39213082051268       -2.20710797809469

          :  Hamiltonian                  GFN2-xTB          :
         :: total energy             -32.482804486196 Eh    ::
         :: gradient norm              0.000529943748 Eh/a0 ::
         :: HOMO-LUMO gap              2.506950529230 eV    ::
         :: SCC energy               -32.945818267544 Eh    ::
         :: -> dispersion             -0.016102603113 Eh    ::
         :: repulsion energy           0.463013781349 Eh    ::

    * Orbital Energies and Occupations

         #    Occupation            Energy/Eh            Energy/eV
      -------------------------------------------------------------
         1        2.0000           -0.8735707             -23.7711
       ...           ...                  ...                  ...
        17        2.0000           -0.6892531             -18.7555
        18        2.0000           -0.6731816             -18.3182
        19        2.0000           -0.6716305             -18.2760
        20        2.0000           -0.6642780             -18.0759
        21        2.0000           -0.6507006             -17.7065
        22        2.0000           -0.6415147             -17.4565
        23        2.0000           -0.6194994             -16.8574
        24        2.0000           -0.6140629             -16.7095
        25        2.0000           -0.6130719             -16.6825
        26        2.0000           -0.6052709             -16.4703
        27        2.0000           -0.5648014             -15.3690
        28        2.0000           -0.5572947             -15.1648
        29        2.0000           -0.5416522             -14.7391 (HOMO)
        30                         -0.4495235             -12.2322 (LUMO)
        31                         -0.4177221             -11.3668
        32                         -0.3609104              -9.8209
        33                         -0.2982691              -8.1163
        34                         -0.1880791              -5.1179
        35                         -0.1574015              -4.2831
        36                         -0.1107626              -3.0140
        37                         -0.0686992              -1.8694
        38                         -0.0619196              -1.6849
        39                         -0.0267411              -0.7277
        40                         -0.0191315              -0.5206
       ...                                ...                  ...
        54                          0.5000920              13.6082
      -------------------------------------------------------------
                  HL-Gap            0.0921287 Eh            2.5070 eV

     #   Z          covCN         q      C6AA      α(0)
     1   7 N        2.704    -0.266    26.895     7.702
     2   7 N        2.754    -0.081    22.820     7.095
     3   6 C        2.749     0.272    22.404     7.750
     4   8 O        0.858    -0.397    21.628     6.235
     5   6 C        3.767    -0.069    21.869     6.665
     6   7 N        2.753     0.125    19.113     6.493
     7   6 C        2.896     0.043    27.028     8.524
     8   6 C        2.915    -0.007    28.190     8.707
     9   6 C        2.925     0.014    27.710     8.633
    10   6 C        2.916    -0.010    28.275     8.720
    11   6 C        2.889     0.029    27.352     8.574
    12   1 H        0.860     0.182     1.204     1.719
    13   1 H        0.860     0.180     1.211     1.724
    14   1 H        0.860     0.201     1.102     1.645
    15   1 H        0.925     0.119     1.622     1.992
    16   1 H        0.924     0.117     1.635     2.000
    17   1 H        0.926     0.121     1.608     1.983
    18   1 H        0.926     0.110     1.694     2.035
    19   1 H        0.926     0.107     1.724     2.053
    20   1 H        0.926     0.107     1.722     2.052
    21   1 H        0.926     0.105     1.739     2.062

Wiberg/Mayer (AO) data.
largest (>0.10) Wiberg bond orders for each atom

     #   Z sym  total        # sym  WBO       # sym  WBO       # sym  WBO
 ---------------------------------------------------------------------------
     1   7 N    2.986 --     2 N    1.026    12 H    0.949    13 H    0.947
     2   7 N    3.475 --     3 C    1.289     1 N    1.026    14 H    0.917
                             4 O    0.207
     3   6 C    3.962 --     4 O    1.696     2 N    1.289     5 C    0.901
     4   8 O    2.077 --     3 C    1.696     2 N    0.207
     5   6 C    3.943 --     6 N    0.997    15 H    0.954    16 H    0.940
                             3 C    0.901
     6   7 N    3.767 --     7 C    1.313    11 C    1.308     5 C    0.997
     7   6 C    3.952 --     8 C    1.446     6 N    1.313    17 H    0.953
     8   6 C    3.980 --     7 C    1.446     9 C    1.436    18 H    0.959
                            11 C    0.100
     9   6 C    3.968 --     8 C    1.436    10 C    1.406    19 H    0.961
    10   6 C    3.981 --    11 C    1.479     9 C    1.406    20 H    0.959
    11   6 C    3.958 --    10 C    1.479     6 N    1.308    21 H    0.955
                             8 C    0.100
    12   1 H    0.967 --     1 N    0.949
    13   1 H    0.967 --     1 N    0.947
    14   1 H    0.959 --     2 N    0.917
    15   1 H    0.985 --     5 C    0.954
    16   1 H    0.986 --     5 C    0.940
    17   1 H    0.985 --     7 C    0.953
    18   1 H    0.987 --     8 C    0.959
    19   1 H    0.989 --     9 C    0.961
    20   1 H    0.988 --    10 C    0.959
    21   1 H    0.989 --    11 C    0.955
 ---------------------------------------------------------------------------

molecular dipole:
                 x           y           z       tot (Debye)
 q only:        1.159      -1.115      -4.801
   full:        1.067      -0.897      -4.357      11.628

           -------------------------------------------------
          | TOTAL ENERGY              -32.482804486196 Eh   |
          | GRADIENT NORM               0.000529943748 Eh/α |
          | HOMO-LUMO GAP               2.506950529230 eV   |
           -------------------------------------------------

 * finished run on 2024/12/20 at 07:09:31.287
