   * xtb version 6.7.1 (edcfbbe) compiled by 'conda@3ef47c1a292c' on 2024-11-25

   ID    Z sym.   atoms
    1    6 C      1, 3-5, 7-19
    2    7 N      2
    3    8 O      6
    4    1 H      20-41

          program call               : xtb C1058.xyz --opt --namespace C1058 --charge +1
          :  Hamiltonian                  GFN2-xTB          :
 * total energy  :   -54.1680164 Eh     change       -0.1183572E-08 Eh
 * total energy  :   -54.1740003 Eh     change       -0.5983965E-02 Eh
 * total energy  :   -54.1752985 Eh     change       -0.1298153E-02 Eh
 * total energy  :   -54.1756480 Eh     change       -0.3494911E-03 Eh
 * total energy  :   -54.1759785 Eh     change       -0.3305699E-03 Eh
 * total energy  :   -54.1762934 Eh     change       -0.3148430E-03 Eh
 * total energy  :   -54.1766562 Eh     change       -0.3628516E-03 Eh
 * total energy  :   -54.1770144 Eh     change       -0.3581283E-03 Eh
 * total energy  :   -54.1773436 Eh     change       -0.3292666E-03 Eh
 * total energy  :   -54.1776264 Eh     change       -0.2827159E-03 Eh
 * total energy  :   -54.1791285 Eh     change       -0.1548931E-04 Eh
 * total energy  :   -54.1791401 Eh     change       -0.1156315E-04 Eh
 * total energy  :   -54.1791633 Eh     change       -0.2323922E-04 Eh
 * total energy  :   -54.1791792 Eh     change       -0.1586978E-04 Eh
 * total energy  :   -54.1791901 Eh     change       -0.1097631E-04 Eh
 * total energy  :   -54.1792007 Eh     change       -0.1055774E-04 Eh
 * total energy  :   -54.1792109 Eh     change       -0.1015218E-04 Eh
 * total energy  :   -54.1792189 Eh     change       -0.8008269E-05 Eh
 * total energy  :   -54.1792227 Eh     change       -0.3879087E-05 Eh
   *** GEOMETRY OPTIMIZATION CONVERGED AFTER 31 ITERATIONS ***

 final structure:
================
41
 xtb: 6.7.1 (edcfbbe)
C           -0.35227784609201        2.67972506352258       -0.35196613620416
N           -0.41866777035384        1.56090683750422        0.59687606695175
C            0.10954033290118        1.94572345015194        1.91333375254239
C           -1.76743284001184        0.94802061630567        0.68393628133354
C           -1.56519782729251       -0.55198973416367        0.93598863173976
O           -0.52340903480574       -0.93470764642424        0.06323330652110
C            0.19356329968318       -2.11792280021337        0.45210648019938
C            1.12086965306605       -2.51758474917266       -0.67629808765523
C            2.07906367216789       -3.49590545669717       -0.43808301999003
C            2.93821415120681       -3.88825540198982       -1.44756220753994
C            2.85004076020922       -3.30716571141986       -2.70208666479867
C            1.89509419280556       -2.33587686608877       -2.94319942411697
C            1.03187009487130       -1.94170347908925       -1.93458436477837
C            0.97289601813227       -1.84865259585790        1.72134838547127
C            0.67625354349759       -2.50388399637112        2.90855021133022
C            1.39404933620218       -2.22079423319849        4.05917920504401
C            2.40561952593793       -1.27595767617008        4.03296913265015
C            2.70450765243780       -0.61606977725120        2.85151394137268
C            1.99081478787926       -0.90023186449149        1.70114853915421
H           -1.01336687542432        3.48250712905758       -0.02771746996226
H           -0.65189592099796        2.35117172811846       -1.34496349125183
H            0.66487808171523        3.06350816732181       -0.40585332686377
H            0.13880421953508        0.74862658426495        0.22771505459066
H           -0.48487483175504        2.76059203109040        2.32503999281043
H            0.08297864248383        1.09964302321574        2.59665189603030
H            1.14234698060015        2.27540219244948        1.82019155324793
H           -2.36041270491050        1.41620358642325        1.46873866971642
H           -2.27070306015401        1.08019497576875       -0.27500200216907
H           -1.28390424996386       -0.74540445222896        1.97972055234349
H           -2.48605030072062       -1.10388597322365        0.71713641468528
H           -0.53347021242431       -2.92514764323386        0.62409636078065
H            2.14865681962525       -3.95000921435219        0.53947424830120
H            3.67745273373262       -4.64991918457380       -1.25403473760369
H            3.52069893250032       -3.61428086028569       -3.48941415346613
H            1.81555416035950       -1.88428233494039       -3.92045225658795
H            0.27795853472063       -1.19451705075402       -2.13096213512902
H           -0.10715995472883       -3.24792085507332        2.92981253789320
H            1.16412180490347       -2.74263026527016        4.97487874522697
H            2.96777322917663       -1.06111630951151        4.92813262860383
H            3.50309057822171        0.10980373794608        2.82471801542100
H            2.24133169106283       -0.41227299108808        0.76809887415377

          :  Hamiltonian                  GFN2-xTB          :
         :: total energy             -54.179222742500 Eh    ::
         :: gradient norm              0.000292340380 Eh/a0 ::
         :: HOMO-LUMO gap              4.101785013566 eV    ::
         :: SCC energy               -55.055652940371 Eh    ::
         :: -> dispersion             -0.040983356968 Eh    ::
         :: repulsion energy           0.876430197870 Eh    ::

    * Orbital Energies and Occupations

         #    Occupation            Energy/Eh            Energy/eV
      -------------------------------------------------------------
         1        2.0000           -0.8676703             -23.6105
       ...           ...                  ...                  ...
        38        2.0000           -0.5789883             -15.7551
        39        2.0000           -0.5682691             -15.4634
        40        2.0000           -0.5667376             -15.4217
        41        2.0000           -0.5637212             -15.3396
        42        2.0000           -0.5518359             -15.0162
        43        2.0000           -0.5321670             -14.4810
        44        2.0000           -0.5296632             -14.4129
        45        2.0000           -0.5182233             -14.1016
        46        2.0000           -0.5167661             -14.0619
        47        2.0000           -0.5114711             -13.9178
        48        2.0000           -0.5105499             -13.8928
        49        2.0000           -0.4946447             -13.4600
        50        2.0000           -0.4899431             -13.3320 (HOMO)
        51                         -0.3392052              -9.2302 (LUMO)
        52                         -0.3355645              -9.1312
        53                         -0.3152217              -8.5776
        54                         -0.3125825              -8.5058
        55                         -0.2246649              -6.1134
        56                         -0.2096214              -5.7041
        57                         -0.1850302              -5.0349
        58                         -0.1441937              -3.9237
        59                         -0.1429621              -3.8902
        60                         -0.1267185              -3.4482
        61                         -0.0899032              -2.4464
       ...                                ...                  ...
        98                          0.5750389              15.6476
      -------------------------------------------------------------
                  HL-Gap            0.1507378 Eh            4.1018 eV

     #   Z          covCN         q      C6AA      α(0)
     1   6 C        3.699    -0.094    22.468     6.779
     2   7 N        3.578     0.046    20.426     6.713
     3   6 C        3.700    -0.093    22.440     6.774
     4   6 C        3.745    -0.044    21.441     6.605
     5   6 C        3.691     0.064    19.686     6.349
     6   8 O        1.699    -0.328    19.494     5.961
     7   6 C        3.750     0.103    18.944     6.207
     8   6 C        2.973    -0.000    28.032     8.685
     9   6 C        2.924    -0.035    28.874     8.812
    10   6 C        2.920    -0.023    28.583     8.767
    11   6 C        2.920    -0.025    28.624     8.774
    12   6 C        2.920    -0.027    28.681     8.782
    13   6 C        2.922    -0.036    28.904     8.816
    14   6 C        2.972    -0.012    28.315     8.728
    15   6 C        2.922    -0.038    28.951     8.824
    16   6 C        2.919    -0.025    28.625     8.774
    17   6 C        2.920    -0.026    28.656     8.778
    18   6 C        2.918    -0.032    28.802     8.801
    19   6 C        2.923    -0.042    29.050     8.839
    20   1 H        0.925     0.102     1.764     2.077
    21   1 H        0.925     0.103     1.757     2.073
    22   1 H        0.925     0.104     1.750     2.069
    23   1 H        0.857     0.268     0.817     1.416
    24   1 H        0.925     0.101     1.771     2.081
    25   1 H        0.925     0.100     1.784     2.089
    26   1 H        0.925     0.102     1.764     2.077
    27   1 H        0.925     0.097     1.809     2.103
    28   1 H        0.924     0.106     1.729     2.057
    29   1 H        0.923     0.049     2.332     2.388
    30   1 H        0.924     0.072     2.061     2.245
    31   1 H        0.923     0.038     2.471     2.458
    32   1 H        0.926     0.035     2.516     2.480
    33   1 H        0.926     0.050     2.322     2.383
    34   1 H        0.926     0.050     2.317     2.380
    35   1 H        0.926     0.044     2.396     2.421
    36   1 H        0.926     0.034     2.532     2.488
    37   1 H        0.926     0.040     2.452     2.449
    38   1 H        0.926     0.053     2.286     2.365
    39   1 H        0.926     0.052     2.294     2.368
    40   1 H        0.926     0.042     2.420     2.433
    41   1 H        0.925     0.025     2.662     2.551

Wiberg/Mayer (AO) data.
largest (>0.10) Wiberg bond orders for each atom

     #   Z sym  total        # sym  WBO       # sym  WBO       # sym  WBO
 ---------------------------------------------------------------------------
     1   6 C    3.923 --    20 H    0.976    21 H    0.975    22 H    0.974
                             2 N    0.966
     2   7 N    3.765 --     1 C    0.966     3 C    0.966     4 C    0.946
                            23 H    0.838
     3   6 C    3.924 --    24 H    0.975    26 H    0.975    25 H    0.973
                             2 N    0.966
     4   6 C    3.935 --     5 C    0.998    27 H    0.969    28 H    0.965
                             2 N    0.946
     5   6 C    3.954 --     4 C    0.998     6 O    0.991    29 H    0.963
                            30 H    0.963
     6   8 O    2.108 --     5 C    0.991     7 C    0.925
     7   6 C    3.926 --    14 C    0.980     8 C    0.977    31 H    0.951
                             6 O    0.925
     8   6 C    3.982 --    13 C    1.422     9 C    1.406     7 C    0.977
                            11 C    0.110
     9   6 C    3.991 --    10 C    1.451     8 C    1.406    32 H    0.969
                            12 C    0.113
    10   6 C    3.991 --     9 C    1.451    11 C    1.433    33 H    0.970
                            13 C    0.110
    11   6 C    3.991 --    12 C    1.446    10 C    1.433    34 H    0.970
                             8 C    0.110
    12   6 C    3.991 --    11 C    1.446    13 C    1.435    35 H    0.970
                             9 C    0.113
    13   6 C    3.991 --    12 C    1.435     8 C    1.422    36 H    0.968
                            10 C    0.110
    14   6 C    3.987 --    15 C    1.418    19 C    1.406     7 C    0.980
                            17 C    0.110
    15   6 C    3.991 --    16 C    1.437    14 C    1.418    37 H    0.968
                            18 C    0.110
    16   6 C    3.990 --    17 C    1.444    15 C    1.437    38 H    0.969
                            19 C    0.112
    17   6 C    3.990 --    16 C    1.444    18 C    1.434    39 H    0.970
                            14 C    0.110
    18   6 C    3.992 --    19 C    1.449    17 C    1.434    40 H    0.970
                            15 C    0.110
    19   6 C    3.992 --    18 C    1.449    14 C    1.406    41 H    0.967
                            16 C    0.112
    20   1 H    0.989 --     1 C    0.976
    21   1 H    0.989 --     1 C    0.975
    22   1 H    0.989 --     1 C    0.974
    23   1 H    0.928 --     2 N    0.838
    24   1 H    0.990 --     3 C    0.975
    25   1 H    0.990 --     3 C    0.973
    26   1 H    0.990 --     3 C    0.975
    27   1 H    0.990 --     4 C    0.969
    28   1 H    0.989 --     4 C    0.965
    29   1 H    0.998 --     5 C    0.963
    30   1 H    0.994 --     5 C    0.963
    31   1 H    0.998 --     7 C    0.951
    32   1 H    0.999 --     9 C    0.969
    33   1 H    0.997 --    10 C    0.970
    34   1 H    0.997 --    11 C    0.970
    35   1 H    0.998 --    12 C    0.970
    36   1 H    0.999 --    13 C    0.968
    37   1 H    0.998 --    15 C    0.968
    38   1 H    0.997 --    16 C    0.969
    39   1 H    0.997 --    17 C    0.970
    40   1 H    0.998 --    18 C    0.970
    41   1 H    0.999 --    19 C    0.967
 ---------------------------------------------------------------------------

molecular dipole:
                 x           y           z       tot (Debye)
 q only:       -0.410       2.082       1.623
   full:       -0.457       1.856       1.753       6.591

           -------------------------------------------------
          | TOTAL ENERGY              -54.179222742500 Eh   |
          | GRADIENT NORM               0.000292340380 Eh/α |
          | HOMO-LUMO GAP               4.101785013566 eV   |
           -------------------------------------------------

 * finished run on 2024/12/20 at 07:09:45.834
