   * xtb version 6.7.1 (edcfbbe) compiled by 'conda@3ef47c1a292c' on 2024-11-25

   ID    Z sym.   atoms
    1    6 C      1, 3, 4, 6-9
    2    7 N      2, 5
    3    1 H      10-22

          program call               : xtb C1061.xyz --opt --namespace C1061 --charge +1
          :  Hamiltonian                  GFN2-xTB          :
 * total energy  :   -27.0959614 Eh     change       -0.1027693E-09 Eh
 * total energy  :   -27.0990882 Eh     change       -0.3126790E-02 Eh
 * total energy  :   -27.0996417 Eh     change       -0.5535068E-03 Eh
 * total energy  :   -27.0997295 Eh     change       -0.8779784E-04 Eh
 * total energy  :   -27.0997695 Eh     change       -0.4003282E-04 Eh
 * total energy  :   -27.0997769 Eh     change       -0.7348989E-05 Eh
 * total energy  :   -27.0997873 Eh     change       -0.1039439E-04 Eh
 * total energy  :   -27.0997991 Eh     change       -0.1182125E-04 Eh
 * total energy  :   -27.0998084 Eh     change       -0.9344843E-05 Eh
 * total energy  :   -27.0998182 Eh     change       -0.9787960E-05 Eh
 * total energy  :   -27.0998659 Eh     change       -0.1694259E-04 Eh
 * total energy  :   -27.0998808 Eh     change       -0.1491617E-04 Eh
 * total energy  :   -27.0998995 Eh     change       -0.1871128E-04 Eh
 * total energy  :   -27.0999075 Eh     change       -0.7958061E-05 Eh
 * total energy  :   -27.0999142 Eh     change       -0.6681304E-05 Eh
 * total energy  :   -27.0999194 Eh     change       -0.5270272E-05 Eh
 * total energy  :   -27.0999271 Eh     change       -0.7679520E-05 Eh
 * total energy  :   -27.0999339 Eh     change       -0.6764459E-05 Eh
 * total energy  :   -27.0999366 Eh     change       -0.2665082E-05 Eh
   *** GEOMETRY OPTIMIZATION CONVERGED AFTER 21 ITERATIONS ***

 final structure:
================
22
 xtb: 6.7.1 (edcfbbe)
C            0.95140451196411        0.03020423539366       -0.06580353128658
N            0.48570072212049       -0.01501055756641        1.29350703004661
C            0.27052891786982        1.06791756566442        2.09009858367385
C           -0.15408740511725        0.60132832411395        3.29719662528214
N           -0.19229303610906       -0.75586458335562        3.22033177933180
C            0.20059812190864       -1.10559404188498        1.99824905334482
C           -0.57722819134587       -1.66300628702761        4.29797785862393
C           -1.73582677337445       -2.54788044551361        3.85004756098186
C            0.63432020018384       -2.48068185956628        4.73618141838701
H            0.31105838429473        0.68257977726183       -0.65869607494460
H            0.94055304122999       -0.96816239737415       -0.49637075353774
H            1.96934500801708        0.42067926459707       -0.10182648701665
H            0.42901301194145        2.07224238969921        1.75376524102636
H           -0.42624644764886        1.13717510105224        4.18372600246795
H            0.27556589856288       -2.11032822382689        1.63164433960796
H           -0.90527483678023       -1.02798307051819        5.12618607202469
H           -1.42635344567416       -3.24397547047369        3.07523506264496
H           -2.09270367337882       -3.12574115417704        4.69715283253455
H           -2.56246331704322       -1.94764935165643        3.47762824489355
H            1.45874459819210       -1.83189775379252        5.02099759991577
H            0.36732326963844       -3.08634355430941        5.59647110077699
H            0.96650144054838       -3.14570790673949        3.94363044122077

          :  Hamiltonian                  GFN2-xTB          :
         :: total energy             -27.099936559065 Eh    ::
         :: gradient norm              0.000830902329 Eh/a0 ::
         :: HOMO-LUMO gap              4.848275220147 eV    ::
         :: SCC energy               -27.519273162482 Eh    ::
         :: -> dispersion             -0.014773833912 Eh    ::
         :: repulsion energy           0.419336603417 Eh    ::

    * Orbital Energies and Occupations

         #    Occupation            Energy/Eh            Energy/eV
      -------------------------------------------------------------
         1        2.0000           -0.8975361             -24.4232
       ...           ...                  ...                  ...
        13        2.0000           -0.6873717             -18.7043
        14        2.0000           -0.6844168             -18.6239
        15        2.0000           -0.6765858             -18.4108
        16        2.0000           -0.6638765             -18.0650
        17        2.0000           -0.6505817             -17.7032
        18        2.0000           -0.6419486             -17.4683
        19        2.0000           -0.6368170             -17.3287
        20        2.0000           -0.6120638             -16.6551
        21        2.0000           -0.6046550             -16.4535
        22        2.0000           -0.6019060             -16.3787
        23        2.0000           -0.5918011             -16.1037
        24        2.0000           -0.5888654             -16.0238
        25        2.0000           -0.5865807             -15.9617 (HOMO)
        26                         -0.4084099             -11.1134 (LUMO)
        27                         -0.3722670             -10.1299
        28                         -0.1923671              -5.2346
        29                         -0.1362654              -3.7080
        30                         -0.0712665              -1.9393
        31                         -0.0551434              -1.5005
        32                         -0.0490332              -1.3343
        33                         -0.0263724              -0.7176
        34                         -0.0166759              -0.4538
        35                         -0.0027031              -0.0736
        36                          0.0009336               0.0254
       ...                                ...                  ...
        49                          0.4608323              12.5399
      -------------------------------------------------------------
                  HL-Gap            0.1781708 Eh            4.8483 eV

     #   Z          covCN         q      C6AA      α(0)
     1   6 C        3.693    -0.087    22.346     6.764
     2   7 N        2.868     0.078    19.889     6.624
     3   6 C        3.073    -0.009    28.171     8.702
     4   6 C        3.077    -0.005    28.064     8.685
     5   7 N        2.871     0.060    20.198     6.675
     6   6 C        3.103     0.049    26.770     8.478
     7   6 C        3.789     0.029    20.103     6.386
     8   6 C        3.755    -0.129    23.037     6.844
     9   6 C        3.755    -0.129    23.023     6.842
    10   1 H        0.925     0.108     1.714     2.048
    11   1 H        0.925     0.099     1.790     2.092
    12   1 H        0.924     0.108     1.718     2.050
    13   1 H        0.926     0.110     1.697     2.037
    14   1 H        0.926     0.107     1.718     2.050
    15   1 H        0.926     0.113     1.667     2.019
    16   1 H        0.924     0.081     1.969     2.194
    17   1 H        0.925     0.062     2.179     2.308
    18   1 H        0.925     0.085     1.929     2.172
    19   1 H        0.925     0.062     2.178     2.308
    20   1 H        0.925     0.062     2.178     2.308
    21   1 H        0.925     0.085     1.927     2.171
    22   1 H        0.925     0.061     2.182     2.310

Wiberg/Mayer (AO) data.
largest (>0.10) Wiberg bond orders for each atom

     #   Z sym  total        # sym  WBO       # sym  WBO       # sym  WBO
 ---------------------------------------------------------------------------
     1   6 C    3.933 --     2 N    0.991    11 H    0.976    10 H    0.964
                            12 H    0.961
     2   7 N    3.723 --     6 C    1.363     3 C    1.228     1 C    0.991
     3   6 C    3.947 --     4 C    1.589     2 N    1.228    13 H    0.961
     4   6 C    3.952 --     3 C    1.589     5 N    1.237    14 H    0.961
     5   7 N    3.713 --     6 C    1.364     4 C    1.237     7 C    0.939
     6   6 C    3.947 --     5 N    1.364     2 N    1.363    15 H    0.953
     7   6 C    3.936 --     8 C    0.998     9 C    0.995    16 H    0.960
                             5 N    0.939
     8   6 C    3.983 --     7 C    0.998    19 H    0.983    17 H    0.982
                            18 H    0.977
     9   6 C    3.983 --     7 C    0.995    20 H    0.983    22 H    0.983
                            21 H    0.976
    10   1 H    0.988 --     1 C    0.964
    11   1 H    0.990 --     1 C    0.976
    12   1 H    0.988 --     1 C    0.961
    13   1 H    0.987 --     3 C    0.961
    14   1 H    0.988 --     4 C    0.961
    15   1 H    0.987 --     6 C    0.953
    16   1 H    0.993 --     7 C    0.960
    17   1 H    0.996 --     8 C    0.982
    18   1 H    0.992 --     8 C    0.977
    19   1 H    0.996 --     8 C    0.983
    20   1 H    0.996 --     9 C    0.983
    21   1 H    0.992 --     9 C    0.976
    22   1 H    0.996 --     9 C    0.983
 ---------------------------------------------------------------------------

molecular dipole:
                 x           y           z       tot (Debye)
 q only:        0.251      -1.174       4.387
   full:        0.267      -1.145       4.342      11.433

           -------------------------------------------------
          | TOTAL ENERGY              -27.099936559065 Eh   |
          | GRADIENT NORM               0.000830902329 Eh/α |
          | HOMO-LUMO GAP               4.848275220147 eV   |
           -------------------------------------------------

 * finished run on 2024/12/20 at 07:09:53.488
