   * xtb version 6.7.1 (edcfbbe) compiled by 'conda@3ef47c1a292c' on 2024-11-25

   ID    Z sym.   atoms
    1    6 C      1-3, 5, 7-19
    2    7 N      4, 6
    3    1 H      20-36

          program call               : xtb C1060.xyz --opt --namespace C1060 --charge +1
          :  Hamiltonian                  GFN2-xTB          :
 * total energy  :   -50.5154976 Eh     change       -0.1630838E-09 Eh
 * total energy  :   -50.5205860 Eh     change       -0.5088326E-02 Eh
 * total energy  :   -50.5212021 Eh     change       -0.6161604E-03 Eh
 * total energy  :   -50.5212984 Eh     change       -0.9628583E-04 Eh
 * total energy  :   -50.5213603 Eh     change       -0.6184766E-04 Eh
 * total energy  :   -50.5213883 Eh     change       -0.2801657E-04 Eh
 * total energy  :   -50.5214186 Eh     change       -0.3033915E-04 Eh
 * total energy  :   -50.5214890 Eh     change       -0.7043330E-04 Eh
 * total energy  :   -50.5215339 Eh     change       -0.4482830E-04 Eh
 * total energy  :   -50.5216388 Eh     change       -0.1049457E-03 Eh
 * total energy  :   -50.5221409 Eh     change       -0.1744854E-04 Eh
 * total energy  :   -50.5221516 Eh     change       -0.1068137E-04 Eh
 * total energy  :   -50.5221629 Eh     change       -0.1130444E-04 Eh
 * total energy  :   -50.5221710 Eh     change       -0.8046707E-05 Eh
 * total energy  :   -50.5221775 Eh     change       -0.6509220E-05 Eh
 * total energy  :   -50.5221847 Eh     change       -0.7179080E-05 Eh
 * total energy  :   -50.5221925 Eh     change       -0.7786353E-05 Eh
 * total energy  :   -50.5221987 Eh     change       -0.6217058E-05 Eh
 * total energy  :   -50.5222026 Eh     change       -0.3961116E-05 Eh
   *** GEOMETRY OPTIMIZATION CONVERGED AFTER 33 ITERATIONS ***

 final structure:
================
36
 xtb: 6.7.1 (edcfbbe)
C            0.31313702543127       -0.97814397013148        0.03736776975215
C            0.13259848376024        0.32789001581221        0.03685297015531
C           -1.18540761583252        0.98995234292623       -0.26730353612805
N           -1.55077371759499        1.91275192194164        0.78595459456936
C           -1.49151605911883        3.23885029317676        0.73934634245835
N           -1.86163494142725        3.78320812959022        1.89345721085320
C           -2.16875832760327        2.75678586707268        2.76163453958283
C           -1.96663593152193        1.55674551151583        2.05161585385667
C           -2.18817416482489        0.31778005045690        2.64144573147154
C           -2.61899206982797        0.31994388365075        3.95112598937266
C           -2.82821423598619        1.51019012046775        4.65546241320223
C           -2.60987715879042        2.74421278578929        4.08049976722711
C           -1.83092603409209        5.20027989973340        2.20162854820152
C           -0.41424070024821        5.63789588530509        2.50277400142236
C            0.29202997453803        6.40852667373456        1.58955196046821
C            1.59284483904455        6.79521050624936        1.86404208192552
C            2.19767797317491        6.40537507570929        3.04677393868899
C            1.49931358981419        5.62941066622995        3.95728801877508
C            0.19797088350323        5.24540618214907        3.68687366671039
H           -0.48608192407502       -1.66742449872929       -0.18109384351011
H            1.27616852717914       -1.41321996897171        0.23657799939473
H            0.94775086848969        1.00667289042657        0.24699555642171
H           -1.11391992140226        1.55343931213425       -1.20207342031983
H           -1.97345876545216        0.23909561433615       -0.36696752664358
H           -1.19073741995943        3.80348355083942       -0.12347715693896
H           -2.02443401286003       -0.59995866859755        2.10220954153450
H           -2.80200714627814       -0.61903660942760        4.44841105581766
H           -3.17001791030186        1.45828159658897        5.67684993317426
H           -2.77832288190532        3.65360572741346        4.63390977631092
H           -2.22446885476251        5.75389082723683        1.34626313315495
H           -2.48024458208421        5.37176381574248        3.06172022271632
H           -0.17881446225407        6.72399112943206        0.66955314659929
H            2.13140023799959        7.40349765646275        1.15422700018991
H            3.21014335727231        6.70923549299605        3.26130890457549
H            1.96558312148105        5.32688795966885        4.88192895906227
H           -0.34362004348450        4.64408233107499        4.40279485589819

          :  Hamiltonian                  GFN2-xTB          :
         :: total energy             -50.522202634936 Eh    ::
         :: gradient norm              0.000304423866 Eh/a0 ::
         :: HOMO-LUMO gap              2.784156197685 eV    ::
         :: SCC energy               -51.435372179154 Eh    ::
         :: -> dispersion             -0.036572966653 Eh    ::
         :: repulsion energy           0.913169544218 Eh    ::

    * Orbital Energies and Occupations

         #    Occupation            Energy/Eh            Energy/eV
      -------------------------------------------------------------
         1        2.0000           -0.8777794             -23.8856
       ...           ...                  ...                  ...
        35        2.0000           -0.5875638             -15.9884
        36        2.0000           -0.5859461             -15.9444
        37        2.0000           -0.5856883             -15.9374
        38        2.0000           -0.5795562             -15.7705
        39        2.0000           -0.5723462             -15.5743
        40        2.0000           -0.5631284             -15.3235
        41        2.0000           -0.5527178             -15.0402
        42        2.0000           -0.5452837             -14.8379
        43        2.0000           -0.5414342             -14.7332
        44        2.0000           -0.5329918             -14.5034
        45        2.0000           -0.5309039             -14.4466
        46        2.0000           -0.5156025             -14.0303
        47        2.0000           -0.5150662             -14.0157 (HOMO)
        48                         -0.4127504             -11.2315 (LUMO)
        49                         -0.3627422              -9.8707
        50                         -0.3553149              -9.6686
        51                         -0.3391176              -9.2279
        52                         -0.3388229              -9.2198
        53                         -0.3335617              -9.0767
        54                         -0.2368240              -6.4443
        55                         -0.2108415              -5.7373
        56                         -0.1633823              -4.4459
        57                         -0.1204828              -3.2785
        58                         -0.0645542              -1.7566
       ...                                ...                  ...
        93                          0.5530790              15.0500
      -------------------------------------------------------------
                  HL-Gap            0.1023159 Eh            2.7842 eV

     #   Z          covCN         q      C6AA      α(0)
     1   6 C        2.837    -0.079    29.955     8.969
     2   6 C        2.887    -0.038    28.943     8.820
     3   6 C        3.745    -0.018    20.972     6.533
     4   7 N        2.829     0.033    20.663     6.751
     5   6 C        3.075     0.066    26.448     8.432
     6   7 N        2.829     0.033    20.658     6.750
     7   6 C        3.120     0.042    26.896     8.494
     8   6 C        3.124     0.040    26.922     8.497
     9   6 C        2.908    -0.032    28.797     8.799
    10   6 C        2.926    -0.018    28.451     8.747
    11   6 C        2.925    -0.018    28.460     8.749
    12   6 C        2.909    -0.031    28.779     8.797
    13   6 C        3.747    -0.022    21.039     6.542
    14   6 C        2.972    -0.003    28.106     8.696
    15   6 C        2.923    -0.037    28.910     8.817
    16   6 C        2.919    -0.022    28.560     8.764
    17   6 C        2.920    -0.021    28.525     8.758
    18   6 C        2.919    -0.023    28.576     8.766
    19   6 C        2.923    -0.037    28.910     8.817
    20   1 H        0.926     0.065     2.143     2.289
    21   1 H        0.926     0.077     2.008     2.216
    22   1 H        0.925     0.054     2.271     2.357
    23   1 H        0.924     0.083     1.949     2.183
    24   1 H        0.924     0.091     1.873     2.140
    25   1 H        0.926     0.103     1.755     2.071
    26   1 H        0.926     0.073     2.056     2.242
    27   1 H        0.926     0.080     1.979     2.200
    28   1 H        0.926     0.080     1.978     2.200
    29   1 H        0.926     0.070     2.082     2.256
    30   1 H        0.924     0.079     1.989     2.206
    31   1 H        0.924     0.087     1.907     2.160
    32   1 H        0.926     0.039     2.460     2.453
    33   1 H        0.926     0.056     2.247     2.344
    34   1 H        0.926     0.058     2.224     2.332
    35   1 H        0.926     0.054     2.275     2.359
    36   1 H        0.926     0.036     2.507     2.476

Wiberg/Mayer (AO) data.
largest (>0.10) Wiberg bond orders for each atom

     #   Z sym  total        # sym  WBO       # sym  WBO       # sym  WBO
 ---------------------------------------------------------------------------
     1   6 C    3.984 --     2 C    1.988    20 H    0.972    21 H    0.971
     2   6 C    3.982 --     1 C    1.988     3 C    0.996    22 H    0.964
     3   6 C    3.942 --     2 C    0.996     4 N    0.964    24 H    0.957
                            23 H    0.956
     4   7 N    3.683 --     5 C    1.368     8 C    1.129     3 C    0.964
                             6 N    0.104
     5   6 C    3.953 --     6 N    1.370     4 N    1.368    25 H    0.954
     6   7 N    3.683 --     5 C    1.370     7 C    1.131    13 C    0.958
                             4 N    0.104
     7   6 C    3.953 --    12 C    1.335     8 C    1.272     6 N    1.131
     8   6 C    3.953 --     9 C    1.336     7 C    1.272     4 N    1.129
     9   6 C    3.985 --    10 C    1.498     8 C    1.336    26 H    0.963
                            12 C    0.119
    10   6 C    3.986 --     9 C    1.498    11 C    1.374    27 H    0.966
    11   6 C    3.985 --    12 C    1.499    10 C    1.374    28 H    0.966
    12   6 C    3.986 --    11 C    1.499     7 C    1.335    29 H    0.962
                             9 C    0.119
    13   6 C    3.937 --    14 C    0.979    30 H    0.963    31 H    0.960
                             6 N    0.958
    14   6 C    3.978 --    15 C    1.417    19 C    1.412    13 C    0.979
                            17 C    0.109
    15   6 C    3.990 --    16 C    1.440    14 C    1.417    32 H    0.968
                            18 C    0.110
    16   6 C    3.990 --    17 C    1.442    15 C    1.440    33 H    0.969
                            19 C    0.112
    17   6 C    3.989 --    16 C    1.442    18 C    1.437    34 H    0.969
                            14 C    0.109
    18   6 C    3.990 --    19 C    1.446    17 C    1.437    35 H    0.969
                            15 C    0.110
    19   6 C    3.992 --    18 C    1.446    14 C    1.412    36 H    0.968
                            16 C    0.112
    20   1 H    0.996 --     1 C    0.972
    21   1 H    0.992 --     1 C    0.971
    22   1 H    0.997 --     2 C    0.964
    23   1 H    0.993 --     3 C    0.956
    24   1 H    0.991 --     3 C    0.957
    25   1 H    0.988 --     5 C    0.954
    26   1 H    0.994 --     9 C    0.963
    27   1 H    0.993 --    10 C    0.966
    28   1 H    0.993 --    11 C    0.966
    29   1 H    0.994 --    12 C    0.962
    30   1 H    0.992 --    13 C    0.963
    31   1 H    0.992 --    13 C    0.960
    32   1 H    0.998 --    15 C    0.968
    33   1 H    0.996 --    16 C    0.969
    34   1 H    0.996 --    17 C    0.969
    35   1 H    0.997 --    18 C    0.969
    36   1 H    0.999 --    19 C    0.968
 ---------------------------------------------------------------------------

molecular dipole:
                 x           y           z       tot (Debye)
 q only:       -2.510       4.961       3.325
   full:       -2.584       5.110       3.120      16.574

           -------------------------------------------------
          | TOTAL ENERGY              -50.522202634936 Eh   |
          | GRADIENT NORM               0.000304423866 Eh/α |
          | HOMO-LUMO GAP               2.784156197685 eV   |
           -------------------------------------------------

 * finished run on 2024/12/20 at 07:09:53.183
