   * xtb version 6.7.1 (edcfbbe) compiled by 'conda@3ef47c1a292c' on 2024-11-25

   ID    Z sym.   atoms
    1    8 O      1, 12, 14
    2    6 C      2, 3, 5, 7-11, 13, 15-18
    3    7 N      4, 6
    4    1 H      19-39

          program call               : xtb C1062.xyz --opt --namespace C1062 --charge +1
          :  Hamiltonian                  GFN2-xTB          :
 * total energy  :   -56.2421324 Eh     change       -0.3268283E-09 Eh
 * total energy  :   -56.2494374 Eh     change       -0.7304995E-02 Eh
 * total energy  :   -56.2515431 Eh     change       -0.2105668E-02 Eh
 * total energy  :   -56.2521675 Eh     change       -0.6244443E-03 Eh
 * total energy  :   -56.2526112 Eh     change       -0.4436261E-03 Eh
 * total energy  :   -56.2529005 Eh     change       -0.2893241E-03 Eh
 * total energy  :   -56.2531558 Eh     change       -0.2552703E-03 Eh
 * total energy  :   -56.2532965 Eh     change       -0.1407697E-03 Eh
 * total energy  :   -56.2533675 Eh     change       -0.7100500E-04 Eh
 * total energy  :   -56.2534124 Eh     change       -0.4485241E-04 Eh
 * total energy  :   -56.2573056 Eh     change       -0.2653762E-04 Eh
 * total energy  :   -56.2573220 Eh     change       -0.1636590E-04 Eh
 * total energy  :   -56.2573369 Eh     change       -0.1488939E-04 Eh
 * total energy  :   -56.2573543 Eh     change       -0.1743856E-04 Eh
 * total energy  :   -56.2573701 Eh     change       -0.1578567E-04 Eh
 * total energy  :   -56.2573793 Eh     change       -0.9191082E-05 Eh
 * total energy  :   -56.2573855 Eh     change       -0.6197729E-05 Eh
 * total energy  :   -56.2573906 Eh     change       -0.5129452E-05 Eh
 * total energy  :   -56.2573947 Eh     change       -0.4066506E-05 Eh
   *** GEOMETRY OPTIMIZATION CONVERGED AFTER 79 ITERATIONS ***

 final structure:
================
39
 xtb: 6.7.1 (edcfbbe)
O            1.37218506987296        0.75052038928163       -1.86842511484166
C            0.70652097104311        1.64648835710585       -1.00493769672685
C            1.27073073678265        1.39716188521950        0.40110562970392
N            2.69531754496276        1.60457909662401        0.35009940983154
C            3.59435090900838        0.71124843596920       -0.03637135310406
N            4.77713743810555        1.30779844559666       -0.18257317856956
C            4.62671855556812        2.64514756440930        0.10496565161351
C            3.31383377520565        2.81037574125939        0.45067249184220
C            5.71159455897176        3.65409729970168       -0.05859412725689
C            5.58773942842928        4.48467011277872       -1.35919843097995
C            5.10641012304433        3.64602025731558       -2.55007610375716
O            3.68670311224356        3.64524086362341       -2.44972986665427
C            3.26361530749623        4.71018209365713       -1.73586953902286
O            2.10889871955089        4.87406587084645       -1.47128559774503
C            4.47482472927908        5.55088667137067       -1.36790766698289
C            4.36973282287219        6.56340402954635       -0.21897532127762
C            3.53189566544431        6.18207802107840        0.99633764611835
C            6.00339468951449        0.62217778868747       -0.50005726699465
H            1.03212828440355        0.86072230629689       -2.76221784939566
H            0.89195389349153        2.68761152711391       -1.30101750113181
H           -0.37357622902647        1.46233213863985       -0.98984064013087
H            0.82320298414755        2.08463852551148        1.11829716752579
H            1.07388863297161        0.36451939130127        0.69362966535494
H            3.39231807268456       -0.32517076078060       -0.22131988886774
H            2.78131698622225        3.69074512588542        0.74356738825416
H            5.70685819124587        4.34078509052335        0.78764774824047
H            6.67737594852930        3.14825213636185       -0.06777949860576
H            6.55953553691577        4.93722614442669       -1.55789310252872
H            5.39744309445546        4.11052201272251       -3.49892875363249
H            5.43619719766439        2.60792694422814       -2.55716803071076
H            4.65679915121692        6.14547987515637       -2.27609163566883
H            5.38552730202556        6.81192230493855        0.09706812972258
H            3.93139660509481        7.47236386802455       -0.63332486994937
H            3.96986503114879        5.37038866745406        1.57160328429781
H            3.46123287873037        7.04634053564535        1.65193470013144
H            2.52388782382601        5.91871445577315        0.68836954936309
H            6.50405433589818        1.08268747339444       -1.35106434435836
H            6.67979212207499        0.64268597806135        0.35649203270252
H            5.78032799887934       -0.41364666471101       -0.74547311582457

          :  Hamiltonian                  GFN2-xTB          :
         :: total energy             -56.257394693781 Eh    ::
         :: gradient norm              0.000337377245 Eh/a0 ::
         :: HOMO-LUMO gap              3.520916352684 eV    ::
         :: SCC energy               -56.948811517116 Eh    ::
         :: -> dispersion             -0.039147676219 Eh    ::
         :: repulsion energy           0.691416823335 Eh    ::

    * Orbital Energies and Occupations

         #    Occupation            Energy/Eh            Energy/eV
      -------------------------------------------------------------
         1        2.0000           -0.8797306             -23.9387
       ...           ...                  ...                  ...
        38        2.0000           -0.6059256             -16.4881
        39        2.0000           -0.6027074             -16.4005
        40        2.0000           -0.5985974             -16.2887
        41        2.0000           -0.5929136             -16.1340
        42        2.0000           -0.5882263             -16.0065
        43        2.0000           -0.5788376             -15.7510
        44        2.0000           -0.5697618             -15.5040
        45        2.0000           -0.5648684             -15.3709
        46        2.0000           -0.5565709             -15.1451
        47        2.0000           -0.5467092             -14.8767
        48        2.0000           -0.5396266             -14.6840
        49        2.0000           -0.5341451             -14.5348
        50        2.0000           -0.5198856             -14.1468 (HOMO)
        51                         -0.3904943             -10.6259 (LUMO)
        52                         -0.3574085              -9.7256
        53                         -0.3440634              -9.3624
        54                         -0.1720603              -4.6820
        55                         -0.1287273              -3.5028
        56                         -0.1184858              -3.2242
        57                         -0.0884712              -2.4074
        58                         -0.0748812              -2.0376
        59                         -0.0714764              -1.9450
        60                         -0.0587877              -1.5997
        61                         -0.0560251              -1.5245
       ...                                ...                  ...
        93                          0.5591955              15.2165
      -------------------------------------------------------------
                  HL-Gap            0.1293913 Eh            3.5209 eV

     #   Z          covCN         q      C6AA      α(0)
     1   8 O        1.656    -0.444    21.728     6.293
     2   6 C        3.677     0.070    19.621     6.346
     3   6 C        3.744    -0.027    21.121     6.556
     4   7 N        2.864     0.076    19.917     6.628
     5   6 C        3.083     0.054    26.698     8.471
     6   7 N        2.872     0.051    20.350     6.700
     7   6 C        3.089     0.044    26.911     8.503
     8   6 C        3.082    -0.022    28.465     8.746
     9   6 C        3.803    -0.078    21.985     6.675
    10   6 C        3.875    -0.031    21.088     6.529
    11   6 C        3.781     0.063    19.547     6.298
    12   8 O        1.706    -0.270    18.477     5.804
    13   6 C        2.779     0.357    20.952     7.497
    14   8 O        0.856    -0.378    21.255     6.181
    15   6 C        3.889    -0.059    21.579     6.604
    16   6 C        3.798    -0.060    21.661     6.627
    17   6 C        3.750    -0.116    22.783     6.807
    18   6 C        3.692    -0.079    22.193     6.741
    19   1 H        0.805     0.312     0.687     1.301
    20   1 H        0.923     0.068     2.108     2.270
    21   1 H        0.924     0.061     2.189     2.314
    22   1 H        0.925     0.094     1.844     2.124
    23   1 H        0.924     0.098     1.805     2.101
    24   1 H        0.926     0.119     1.623     1.992
    25   1 H        0.927     0.113     1.671     2.021
    26   1 H        0.925     0.093     1.850     2.127
    27   1 H        0.924     0.073     2.058     2.243
    28   1 H        0.924     0.067     2.116     2.275
    29   1 H        0.924     0.066     2.133     2.284
    30   1 H        0.925     0.059     2.214     2.327
    31   1 H        0.923     0.080     1.981     2.201
    32   1 H        0.924     0.051     2.302     2.373
    33   1 H        0.924     0.063     2.163     2.300
    34   1 H        0.925     0.029     2.595     2.519
    35   1 H        0.925     0.059     2.213     2.326
    36   1 H        0.925     0.057     2.238     2.340
    37   1 H        0.925     0.094     1.837     2.119
    38   1 H        0.924     0.097     1.808     2.103
    39   1 H        0.925     0.098     1.807     2.102

Wiberg/Mayer (AO) data.
largest (>0.10) Wiberg bond orders for each atom

     #   Z sym  total        # sym  WBO       # sym  WBO       # sym  WBO
 ---------------------------------------------------------------------------
     1   8 O    1.949 --     2 C    1.004    19 H    0.888
     2   6 C    3.953 --     1 O    1.004     3 C    0.980    20 H    0.964
                            21 H    0.963
     3   6 C    3.944 --     2 C    0.980     4 N    0.976    22 H    0.965
                            23 H    0.964
     4   7 N    3.720 --     5 C    1.369     8 C    1.219     3 C    0.976
     5   6 C    3.945 --     4 N    1.369     6 N    1.349    24 H    0.952
     6   7 N    3.697 --     5 C    1.349     7 C    1.186    18 C    0.992
     7   6 C    3.950 --     8 C    1.554     6 N    1.186     9 C    1.026
     8   6 C    3.943 --     7 C    1.554     4 N    1.219    25 H    0.951
     9   6 C    3.986 --     7 C    1.026    10 C    0.971    27 H    0.966
                            26 H    0.951
    10   6 C    3.990 --    11 C    0.989    15 C    0.976     9 C    0.971
                            28 H    0.966
    11   6 C    3.933 --    10 C    0.989    30 H    0.966    29 H    0.965
                            12 O    0.956
    12   8 O    2.290 --    13 C    1.101    11 C    0.956    14 O    0.158
    13   6 C    3.912 --    14 O    1.776    12 O    1.101    15 C    0.959
    14   8 O    2.074 --    13 C    1.776    12 O    0.158
    15   6 C    3.987 --    16 C    0.989    10 C    0.976    13 C    0.959
                            31 H    0.928
    16   6 C    3.989 --    17 C    1.020    15 C    0.989    33 H    0.975
                            32 H    0.973
    17   6 C    3.993 --    16 C    1.020    35 H    0.983    34 H    0.981
                            36 H    0.980
    18   6 C    3.941 --     6 N    0.992    39 H    0.975    37 H    0.964
                            38 H    0.963
    19   1 H    0.903 --     1 O    0.888
    20   1 H    0.995 --     2 C    0.964
    21   1 H    0.996 --     2 C    0.963
    22   1 H    0.991 --     3 C    0.965
    23   1 H    0.990 --     3 C    0.964
    24   1 H    0.986 --     5 C    0.952
    25   1 H    0.987 --     8 C    0.951
    26   1 H    0.991 --     9 C    0.951
    27   1 H    0.994 --     9 C    0.966
    28   1 H    0.995 --    10 C    0.966
    29   1 H    0.996 --    11 C    0.965
    30   1 H    0.996 --    11 C    0.966
    31   1 H    0.993 --    15 C    0.928
    32   1 H    0.997 --    16 C    0.973
    33   1 H    0.996 --    16 C    0.975
    34   1 H    0.999 --    17 C    0.981
    35   1 H    0.996 --    17 C    0.983
    36   1 H    0.997 --    17 C    0.980
    37   1 H    0.990 --    18 C    0.964
    38   1 H    0.990 --    18 C    0.963
    39   1 H    0.990 --    18 C    0.975
 ---------------------------------------------------------------------------

molecular dipole:
                 x           y           z       tot (Debye)
 q only:        8.354       3.921      -0.252
   full:        8.415       3.917      -0.535      23.631

           -------------------------------------------------
          | TOTAL ENERGY              -56.257394693781 Eh   |
          | GRADIENT NORM               0.000337377245 Eh/α |
          | HOMO-LUMO GAP               3.520916352684 eV   |
           -------------------------------------------------

 * finished run on 2024/12/20 at 07:09:55.707
