   * xtb version 6.7.1 (edcfbbe) compiled by 'conda@3ef47c1a292c' on 2024-11-25

   ID    Z sym.   atoms
    1    6 C      1-8, 10-17
    2    7 N      9
    3    1 H      18-45

          program call               : xtb C1068.xyz --opt --namespace C1068 --charge +1
          :  Hamiltonian                  GFN2-xTB          :
 * total energy  :   -51.0937400 Eh     change       -0.7043468E-09 Eh
 * total energy  :   -51.0974825 Eh     change       -0.3742479E-02 Eh
 * total energy  :   -51.0981788 Eh     change       -0.6963313E-03 Eh
 * total energy  :   -51.0983227 Eh     change       -0.1439209E-03 Eh
 * total energy  :   -51.0985068 Eh     change       -0.1840714E-03 Eh
 * total energy  :   -51.0986166 Eh     change       -0.1097685E-03 Eh
 * total energy  :   -51.0987378 Eh     change       -0.1212722E-03 Eh
 * total energy  :   -51.0988424 Eh     change       -0.1045819E-03 Eh
 * total energy  :   -51.0989287 Eh     change       -0.8633774E-04 Eh
 * total energy  :   -51.0990134 Eh     change       -0.8461374E-04 Eh
 * total energy  :   -51.0994743 Eh     change       -0.7864088E-05 Eh
 * total energy  :   -51.0994828 Eh     change       -0.8469749E-05 Eh
 * total energy  :   -51.0994902 Eh     change       -0.7378791E-05 Eh
 * total energy  :   -51.0994960 Eh     change       -0.5848817E-05 Eh
 * total energy  :   -51.0995014 Eh     change       -0.5327676E-05 Eh
 * total energy  :   -51.0995070 Eh     change       -0.5667604E-05 Eh
 * total energy  :   -51.0995133 Eh     change       -0.6277195E-05 Eh
 * total energy  :   -51.0995186 Eh     change       -0.5237989E-05 Eh
 * total energy  :   -51.0995216 Eh     change       -0.3036955E-05 Eh
   *** GEOMETRY OPTIMIZATION CONVERGED AFTER 38 ITERATIONS ***

 final structure:
================
45
 xtb: 6.7.1 (edcfbbe)
C            1.51126607149687       -0.03045126980298       -0.28813898108329
C            0.78824477314304       -1.37195120437721       -0.27714782778396
C            1.22161520617256       -2.28140416123507        0.87393681202470
C            0.95424434371240       -1.72474404322349        2.27408648726150
C           -0.50444800684619       -1.36174909363192        2.56702965582084
C           -1.49659812031373       -2.51632457349819        2.40318061889305
C           -1.32641659978905       -3.64239595619444        3.42403014324543
C           -1.86544166746854       -3.30500122173575        4.82144180948385
N           -3.32173109130741       -3.21492156800291        4.81973293885143
C           -3.98852118914085       -4.37009124060007        4.65330741381397
C           -5.36229708833041       -4.44136000501852        4.55953013289209
C           -6.06408083945571       -5.75268838350295        4.41826440768836
C           -6.49221828638895       -6.27211905468379        5.79513336229016
C           -6.06521741294921       -3.23654039891741        4.65835873584551
C           -5.37166464594989       -2.06125364760289        4.85240026413985
C           -3.98041488848589       -2.04766111151962        4.93576733239311
C           -3.25819667089221       -0.76906771275470        5.17105870612373
H            1.24684527306133        0.57088155007968        0.57826866420106
H            1.24537751772611        0.53068180172320       -1.18045244779525
H            2.58827224810372       -0.17996582063181       -0.28813166414701
H           -0.29051774661330       -1.20561241217710       -0.24098574187410
H            1.00198182131500       -1.89259585071964       -1.21288573665125
H            0.73016507736125       -3.25089738409338        0.76285961363814
H            2.29584479423327       -2.45791684801702        0.78903714650995
H            1.30651055598047       -2.45573674292943        3.00594046374002
H            1.55389638467012       -0.82494417599626        2.41651946020466
H           -0.54751336551445       -0.96468939231459        3.58541727032899
H           -0.80764588388580       -0.55764036709360        1.89557763070586
H           -2.51985279861406       -2.13083923917253        2.44778598360030
H           -1.36656247421177       -2.93944125388874        1.40776758832228
H           -1.82619125648533       -4.53943545437458        3.05376324168675
H           -0.26786845944085       -3.87825660938004        3.52649333107693
H           -1.57893510640062       -4.09694047285521        5.51797985101520
H           -1.43315450443267       -2.37089588264607        5.16960040050484
H           -3.38845348694878       -5.26626920037631        4.59495377651836
H           -6.94877521860862       -5.62682762327008        3.79357556283358
H           -5.40681747392670       -6.48244781829656        3.94515980887258
H           -7.15960818784755       -5.56661898765572        6.28327188849064
H           -7.01362982739549       -7.21759480099156        5.68282176667174
H           -5.62668560692778       -6.42978828357612        6.43391139735854
H           -7.14184022309226       -3.23079128845926        4.58783517898071
H           -5.90421998728171       -1.12782318373737        4.94062423464934
H           -2.57187215581711       -0.53839712389757        4.35770474679547
H           -3.97009601399955        0.04726751233625        5.25048815456610
H           -2.68769778220833       -0.80738000128582        6.09922641729872

          :  Hamiltonian                  GFN2-xTB          :
         :: total energy             -51.099521589952 Eh    ::
         :: gradient norm              0.000177858857 Eh/a0 ::
         :: HOMO-LUMO gap              1.598468773284 eV    ::
         :: SCC energy               -51.915304303715 Eh    ::
         :: -> dispersion             -0.037543754778 Eh    ::
         :: repulsion energy           0.815782713763 Eh    ::

    * Orbital Energies and Occupations

         #    Occupation            Energy/Eh            Energy/eV
      -------------------------------------------------------------
         1        2.0000           -0.8594865             -23.3878
       ...           ...                  ...                  ...
        36        2.0000           -0.5746505             -15.6370
        37        2.0000           -0.5687395             -15.4762
        38        2.0000           -0.5679864             -15.4557
        39        2.0000           -0.5648388             -15.3700
        40        2.0000           -0.5615713             -15.2811
        41        2.0000           -0.5567538             -15.1500
        42        2.0000           -0.5528336             -15.0434
        43        2.0000           -0.5369119             -14.6101
        44        2.0000           -0.5303778             -14.4323
        45        2.0000           -0.5253706             -14.2961
        46        2.0000           -0.5038396             -13.7102
        47        2.0000           -0.5004121             -13.6169
        48        2.0000           -0.4963777             -13.5071 (HOMO)
        49                         -0.4376350             -11.9087 (LUMO)
        50                         -0.4034382             -10.9781
        51                         -0.2894374              -7.8760
        52                         -0.1651821              -4.4948
        53                         -0.0783306              -2.1315
        54                         -0.0603459              -1.6421
        55                         -0.0468761              -1.2756
        56                         -0.0368262              -1.0021
        57                         -0.0319238              -0.8687
        58                         -0.0277242              -0.7544
        59                         -0.0129901              -0.3535
       ...                                ...                  ...
        96                          0.4587473              12.4831
      -------------------------------------------------------------
                  HL-Gap            0.0587426 Eh            1.5985 eV

     #   Z          covCN         q      C6AA      α(0)
     1   6 C        3.751    -0.105    22.571     6.775
     2   6 C        3.799    -0.054    21.549     6.610
     3   6 C        3.800    -0.061    21.677     6.629
     4   6 C        3.800    -0.062    21.689     6.631
     5   6 C        3.800    -0.061    21.674     6.628
     6   6 C        3.800    -0.064    21.737     6.638
     7   6 C        3.801    -0.069    21.824     6.651
     8   6 C        3.759    -0.034    21.222     6.568
     9   7 N        2.750     0.082    19.824     6.613
    10   6 C        2.902     0.016    27.646     8.621
    11   6 C        2.967     0.036    27.188     8.553
    12   6 C        3.807    -0.068    21.800     6.647
    13   6 C        3.754    -0.109    22.648     6.786
    14   6 C        2.928    -0.004    28.128     8.698
    15   6 C        2.920    -0.031    28.766     8.795
    16   6 C        2.923     0.086    26.083     8.375
    17   6 C        3.758    -0.137    23.187     6.865
    18   1 H        0.925     0.033     2.549     2.497
    19   1 H        0.925     0.039     2.465     2.455
    20   1 H        0.925     0.040     2.445     2.445
    21   1 H        0.924     0.026     2.637     2.540
    22   1 H        0.924     0.036     2.509     2.477
    23   1 H        0.924     0.026     2.641     2.541
    24   1 H        0.924     0.041     2.431     2.438
    25   1 H        0.924     0.027     2.630     2.536
    26   1 H        0.924     0.047     2.362     2.403
    27   1 H        0.924     0.020     2.733     2.585
    28   1 H        0.924     0.047     2.353     2.399
    29   1 H        0.924     0.020     2.727     2.582
    30   1 H        0.925     0.062     2.178     2.308
    31   1 H        0.924     0.048     2.349     2.397
    32   1 H        0.925     0.078     2.000     2.212
    33   1 H        0.924     0.082     1.961     2.190
    34   1 H        0.925     0.093     1.846     2.125
    35   1 H        0.926     0.097     1.817     2.108
    36   1 H        0.924     0.074     2.041     2.234
    37   1 H        0.925     0.064     2.148     2.292
    38   1 H        0.925     0.052     2.290     2.367
    39   1 H        0.925     0.071     2.079     2.255
    40   1 H        0.925     0.048     2.346     2.395
    41   1 H        0.926     0.094     1.839     2.120
    42   1 H        0.926     0.094     1.844     2.124
    43   1 H        0.925     0.101     1.778     2.085
    44   1 H        0.925     0.089     1.884     2.147
    45   1 H        0.925     0.090     1.876     2.142

Wiberg/Mayer (AO) data.
largest (>0.10) Wiberg bond orders for each atom

     #   Z sym  total        # sym  WBO       # sym  WBO       # sym  WBO
 ---------------------------------------------------------------------------
     1   6 C    3.996 --     2 C    1.020    20 H    0.987    19 H    0.987
                            18 H    0.986
     2   6 C    3.998 --     1 C    1.020     3 C    1.008    22 H    0.978
                            21 H    0.976
     3   6 C    3.996 --     2 C    1.008     4 C    1.008    24 H    0.976
                            23 H    0.975
     4   6 C    3.995 --     3 C    1.008     5 C    1.006    25 H    0.974
                            26 H    0.974
     5   6 C    3.995 --     6 C    1.007     4 C    1.006    28 H    0.973
                            27 H    0.970
     6   6 C    3.993 --     7 C    1.007     5 C    1.007    29 H    0.975
                            30 H    0.968
     7   6 C    3.983 --     6 C    1.007     8 C    0.982    31 H    0.972
                            32 H    0.962
     8   6 C    3.937 --     7 C    0.982    33 H    0.960     9 N    0.960
                            34 H    0.960
     9   7 N    3.745 --    16 C    1.305    10 C    1.301     8 C    0.960
    10   6 C    3.960 --    11 C    1.449     9 N    1.301    35 H    0.954
    11   6 C    3.981 --    10 C    1.449    14 C    1.348    12 C    1.022
    12   6 C    3.987 --    11 C    1.022    13 C    0.986    37 H    0.970
                            36 H    0.964
    13   6 C    3.987 --    40 H    0.987    38 H    0.986    12 C    0.986
                            39 H    0.980
    14   6 C    3.977 --    15 C    1.477    11 C    1.348    41 H    0.962
    15   6 C    3.985 --    14 C    1.477    16 C    1.382    42 H    0.960
    16   6 C    3.959 --    15 C    1.382     9 N    1.305    17 C    1.046
    17   6 C    3.980 --    16 C    1.046    44 H    0.975    45 H    0.949
                            43 H    0.944
    18   1 H    0.999 --     1 C    0.986
    19   1 H    0.998 --     1 C    0.987
    20   1 H    0.998 --     1 C    0.987
    21   1 H    0.999 --     2 C    0.976
    22   1 H    0.999 --     2 C    0.978
    23   1 H    0.999 --     3 C    0.975
    24   1 H    0.998 --     3 C    0.976
    25   1 H    0.999 --     4 C    0.974
    26   1 H    0.998 --     4 C    0.974
    27   1 H    0.999 --     5 C    0.970
    28   1 H    0.998 --     5 C    0.973
    29   1 H    1.000 --     6 C    0.975
    30   1 H    0.996 --     6 C    0.968
    31   1 H    0.998 --     7 C    0.972
    32   1 H    0.993 --     7 C    0.962
    33   1 H    0.993 --     8 C    0.960
    34   1 H    0.991 --     8 C    0.960
    35   1 H    0.990 --    10 C    0.954
    36   1 H    0.994 --    12 C    0.964
    37   1 H    0.995 --    12 C    0.970
    38   1 H    0.997 --    13 C    0.986
    39   1 H    0.994 --    13 C    0.980
    40   1 H    0.998 --    13 C    0.987
    41   1 H    0.991 --    14 C    0.962
    42   1 H    0.991 --    15 C    0.960
    43   1 H    0.989 --    17 C    0.944
    44   1 H    0.992 --    17 C    0.975
    45   1 H    0.991 --    17 C    0.949
 ---------------------------------------------------------------------------

molecular dipole:
                 x           y           z       tot (Debye)
 q only:       -6.977      -5.987       8.640
   full:       -7.006      -6.001       8.715      32.255

           -------------------------------------------------
          | TOTAL ENERGY              -51.099521589952 Eh   |
          | GRADIENT NORM               0.000177858857 Eh/α |
          | HOMO-LUMO GAP               1.598468773284 eV   |
           -------------------------------------------------

 * finished run on 2024/12/20 at 07:10:14.569
