   * xtb version 6.7.1 (edcfbbe) compiled by 'conda@3ef47c1a292c' on 2024-11-25

   ID    Z sym.   atoms
    1    6 C      1-3, 5-16, 18, 19, 21-23, 25-37
    2    8 O      4, 24
    3    7 N      17, 20
    4    1 H      38-66

          program call               : xtb C1064.xyz --opt --namespace C1064 --charge +1
          :  Hamiltonian                  GFN2-xTB          :
 * total energy  :   -99.0038975 Eh     change       -0.2326502E-08 Eh
 * total energy  :   -99.0164802 Eh     change       -0.1258270E-01 Eh
 * total energy  :   -99.0196131 Eh     change       -0.3132924E-02 Eh
 * total energy  :   -99.0204252 Eh     change       -0.8120487E-03 Eh
 * total energy  :   -99.0209778 Eh     change       -0.5526299E-03 Eh
 * total energy  :   -99.0213017 Eh     change       -0.3239050E-03 Eh
 * total energy  :   -99.0216898 Eh     change       -0.3880419E-03 Eh
 * total energy  :   -99.0221878 Eh     change       -0.4979897E-03 Eh
 * total energy  :   -99.0228018 Eh     change       -0.6140057E-03 Eh
 * total energy  :   -99.0234670 Eh     change       -0.6652771E-03 Eh
 * total energy  :   -99.0426713 Eh     change       -0.8701721E-05 Eh
 * total energy  :   -99.0426804 Eh     change       -0.9058570E-05 Eh
 * total energy  :   -99.0426893 Eh     change       -0.8950378E-05 Eh
 * total energy  :   -99.0426987 Eh     change       -0.9376323E-05 Eh
 * total energy  :   -99.0427080 Eh     change       -0.9288954E-05 Eh
 * total energy  :   -99.0427164 Eh     change       -0.8451373E-05 Eh
 * total energy  :   -99.0427234 Eh     change       -0.6946726E-05 Eh
 * total energy  :   -99.0427285 Eh     change       -0.5137658E-05 Eh
 * total energy  :   -99.0427334 Eh     change       -0.4865669E-05 Eh
   *** GEOMETRY OPTIMIZATION CONVERGED AFTER 207 ITERATIONS ***

 final structure:
================
66
 xtb: 6.7.1 (edcfbbe)
C            1.53370878219330        0.78474097931917        1.14165242465036
C            1.39644468786120       -0.72609079964110        1.34360387561665
C            1.78609458864334       -1.12810307600925        2.79247642934503
O            0.93816395752766       -1.59052734237396        3.52330901642583
C            3.15921772715269       -0.85734203722735        3.20611919910999
C            4.23003116248766       -0.66834555741236        2.32497748564829
C            5.48285127681780       -0.36660021093499        2.81022282320694
C            5.71711598036880       -0.23689598192387        4.18287553593029
C            4.65391982760531       -0.46023896548178        5.06155429622497
C            3.40251650851581       -0.77162155509917        4.58355260914276
C            7.04250481674732        0.13136602186845        4.68657250444556
C            7.81383908877677        1.08055139307646        4.01554213474566
C            9.05417531759537        1.44726778952622        4.50174550768698
C            9.54958942154032        0.86423644370779        5.65671427181859
C            8.79549850100728       -0.08566606717819        6.32655688429559
C            7.54923736427422       -0.44617198818802        5.85073064958795
N            0.02809780742049       -1.12571207342018        1.10846071910841
C           -1.03678329423495       -0.74872797631540        1.87183056904616
C           -2.13953858098567       -1.34253216655585        1.34480014155498
N           -1.73200815835516       -2.08518554615542        0.27500286372204
C           -0.41478685390827       -1.93195306958197        0.14808203887844
C           -2.58856931265173       -2.66567250804154       -0.72727382281794
C           -2.39045369550212       -1.81257327318632       -2.01718904611207
O           -1.34657292078656       -1.20239564367407       -2.13295253715777
C           -3.45827395600990       -1.79410639604741       -3.00194753737619
C           -3.24652601276001       -1.02162485848886       -4.15529749116860
C           -4.22182836211662       -0.89998182036031       -5.11512731789716
C           -5.45143931047357       -1.54965444429749       -4.96858511295959
C           -5.65264579684060       -2.34095042017864       -3.83225621504736
C           -4.68259025223923       -2.46167953672814       -2.86360554536666
C           -6.50738353967047       -1.39148371606475       -5.96935635144114
C           -7.32246901935336       -2.46592072774308       -6.32713317221024
C           -8.31925410755724       -2.30510586979629       -7.27043107105532
C           -8.52818426046506       -1.06889538110238       -7.86038223349917
C           -7.72843326490247        0.00644434554742       -7.50827725943053
C           -6.72137339377056       -0.15288554791399       -6.57606894930707
C           -2.22497901622572       -4.12099597221921       -1.02067471968115
H            0.93769795702212        1.32659814730199        1.87162678834584
H            1.19867406948374        1.05779800151120        0.14304879943636
H            2.56964980286071        1.08693155100367        1.25769959798868
H            2.02680756311035       -1.26335235993522        0.62924576059048
H            4.09936448255496       -0.78709286073906        1.25987438945571
H            6.30458794892614       -0.24551750264343        2.12078492143563
H            4.81142522597809       -0.36270810771431        6.12449465041683
H            2.57655188628670       -0.93127531289264        5.26012313602016
H            7.42410785082979        1.55593301872671        3.12727478953161
H            9.63601287070157        2.19154915067797        3.97923125809356
H           10.51973989896802        1.14953700670165        6.03353718079540
H            9.17984175079063       -0.54585065145714        7.22415379034394
H            6.97539802202856       -1.20147359311149        6.36695413931347
H           -0.94487281456636       -0.11116078065684        2.72548312424351
H           -3.16268012879757       -1.29343509077249        1.65527853242176
H            0.19821774656257       -2.39173390010990       -0.60003900296141
H           -3.61474637970240       -2.59131617367002       -0.36222868059582
H           -2.29692450487075       -0.52045074029313       -4.26665706675191
H           -4.03319663974183       -0.31023566417280       -5.99880239663278
H           -6.59937981910890       -2.84201403998207       -3.69953984501393
H           -4.89198114403888       -3.07181577005734       -1.99868394551393
H           -7.15137734114545       -3.43767675762904       -5.88796609838845
H           -8.93624606602457       -3.14662386984112       -7.54682284359546
H           -9.31152432213538       -0.94383777027839       -8.59191402908772
H           -7.89100164237608        0.97262418350018       -7.96135887363255
H           -6.11677448542987        0.69480517762308       -6.28918632127353
H           -2.25536521338050       -4.70845350436355       -0.10559025637436
H           -2.93323234368329       -4.54249279547613       -1.72803074383571
H           -1.23135793962323       -4.19529543432700       -1.45481435211984

          :  Hamiltonian                  GFN2-xTB          :
         :: total energy             -99.042733375768 Eh    ::
         :: gradient norm              0.000294880243 Eh/a0 ::
         :: HOMO-LUMO gap              1.952074983643 eV    ::
         :: SCC energy              -100.743325158802 Eh    ::
         :: -> dispersion             -0.074700394573 Eh    ::
         :: repulsion energy           1.700591783034 Eh    ::

    * Orbital Energies and Occupations

         #    Occupation            Energy/Eh            Energy/eV
      -------------------------------------------------------------
         1        2.0000           -0.8560255             -23.2936
       ...           ...                  ...                  ...
        79        2.0000           -0.5118626             -13.9285
        80        2.0000           -0.5102439             -13.8844
        81        2.0000           -0.5080965             -13.8260
        82        2.0000           -0.5027594             -13.6808
        83        2.0000           -0.5010570             -13.6345
        84        2.0000           -0.4984080             -13.5624
        85        2.0000           -0.4935169             -13.4293
        86        2.0000           -0.4922469             -13.3947
        87        2.0000           -0.4876834             -13.2705
        88        2.0000           -0.4796881             -13.0530
        89        2.0000           -0.4738396             -12.8938
        90        2.0000           -0.4729383             -12.8693
        91        2.0000           -0.4663970             -12.6913 (HOMO)
        92                         -0.3946595             -10.7392 (LUMO)
        93                         -0.3828395             -10.4176
        94                         -0.3692251             -10.0471
        95                         -0.3334790              -9.0744
        96                         -0.3251514              -8.8478
        97                         -0.3186249              -8.6702
        98                         -0.3181063              -8.6561
        99                         -0.3129043              -8.5146
       100                         -0.2970898              -8.0842
       101                         -0.2913552              -7.9282
       102                         -0.2745009              -7.4696
       ...                                ...                  ...
       177                          0.6140043              16.7079
      -------------------------------------------------------------
                  HL-Gap            0.0717374 Eh            1.9521 eV

     #   Z          covCN         q      C6AA      α(0)
     1   6 C        3.755    -0.120    22.849     6.816
     2   6 C        3.790     0.005    20.500     6.448
     3   6 C        2.824     0.222    23.325     7.914
     4   8 O        0.857    -0.365    20.993     6.143
     5   6 C        2.970    -0.022    28.549     8.764
     6   6 C        2.917    -0.030    28.741     8.791
     7   6 C        2.922    -0.030    28.754     8.794
     8   6 C        2.977     0.032    27.284     8.568
     9   6 C        2.921    -0.028    28.707     8.786
    10   6 C        2.926    -0.014    28.353     8.732
    11   6 C        2.977     0.008    27.841     8.655
    12   6 C        2.925    -0.030    28.748     8.793
    13   6 C        2.918    -0.025    28.628     8.774
    14   6 C        2.920    -0.022    28.551     8.762
    15   6 C        2.918    -0.024    28.614     8.772
    16   6 C        2.924    -0.029    28.730     8.790
    17   7 N        2.877     0.065    20.097     6.658
    18   6 C        3.066     0.008    27.776     8.642
    19   6 C        3.070    -0.011    28.218     8.710
    20   7 N        2.875     0.058    20.227     6.680
    21   6 C        3.091     0.063    26.481     8.435
    22   6 C        3.792     0.005    20.499     6.448
    23   6 C        2.828     0.220    23.360     7.920
    24   8 O        0.858    -0.376    21.202     6.173
    25   6 C        2.969    -0.022    28.542     8.763
    26   6 C        2.926    -0.012    28.324     8.728
    27   6 C        2.920    -0.028    28.698     8.785
    28   6 C        2.977     0.035    27.213     8.557
    29   6 C        2.922    -0.029    28.727     8.789
    30   6 C        2.916    -0.028    28.705     8.786
    31   6 C        2.977     0.008    27.834     8.654
    32   6 C        2.924    -0.029    28.720     8.788
    33   6 C        2.918    -0.024    28.607     8.771
    34   6 C        2.920    -0.020    28.519     8.757
    35   6 C        2.918    -0.024    28.603     8.770
    36   6 C        2.925    -0.029    28.719     8.788
    37   6 C        3.755    -0.118    22.819     6.811
    38   1 H        0.925     0.063     2.160     2.298
    39   1 H        0.925     0.069     2.101     2.267
    40   1 H        0.925     0.078     2.002     2.212
    41   1 H        0.924     0.076     2.018     2.222
    42   1 H        0.926     0.037     2.494     2.469
    43   1 H        0.926     0.053     2.280     2.361
    44   1 H        0.926     0.058     2.225     2.332
    45   1 H        0.926     0.066     2.125     2.280
    46   1 H        0.926     0.035     2.511     2.478
    47   1 H        0.926     0.044     2.399     2.422
    48   1 H        0.926     0.047     2.363     2.404
    49   1 H        0.926     0.045     2.381     2.413
    50   1 H        0.926     0.039     2.458     2.452
    51   1 H        0.927     0.110     1.699     2.038
    52   1 H        0.926     0.093     1.846     2.124
    53   1 H        0.926     0.114     1.665     2.018
    54   1 H        0.924     0.079     1.988     2.205
    55   1 H        0.926     0.069     2.098     2.265
    56   1 H        0.926     0.059     2.205     2.322
    57   1 H        0.926     0.056     2.249     2.345
    58   1 H        0.926     0.040     2.452     2.449
    59   1 H        0.926     0.038     2.472     2.459
    60   1 H        0.926     0.046     2.366     2.405
    61   1 H        0.926     0.049     2.336     2.390
    62   1 H        0.926     0.046     2.364     2.404
    63   1 H        0.926     0.039     2.460     2.453
    64   1 H        0.925     0.070     2.088     2.260
    65   1 H        0.925     0.077     2.011     2.217
    66   1 H        0.925     0.063     2.169     2.303

Wiberg/Mayer (AO) data.
largest (>0.10) Wiberg bond orders for each atom

     #   Z sym  total        # sym  WBO       # sym  WBO       # sym  WBO
 ---------------------------------------------------------------------------
     1   6 C    3.980 --    38 H    0.983     2 C    0.982    39 H    0.981
                            40 H    0.975
     2   6 C    3.946 --     1 C    0.982    17 N    0.969    41 H    0.948
                             3 C    0.921
     3   6 C    3.923 --     4 O    1.800     5 C    1.079     2 C    0.921
     4   8 O    2.071 --     3 C    1.800
     5   6 C    3.978 --     6 C    1.344    10 C    1.341     3 C    1.079
     6   6 C    3.990 --     7 C    1.491     5 C    1.344    42 H    0.965
     7   6 C    3.990 --     6 C    1.491     8 C    1.357    43 H    0.966
     8   6 C    3.984 --     9 C    1.365     7 C    1.357    11 C    1.066
     9   6 C    3.989 --    10 C    1.485     8 C    1.365    44 H    0.965
    10   6 C    3.984 --     9 C    1.485     5 C    1.341    45 H    0.965
    11   6 C    3.986 --    16 C    1.378    12 C    1.377     8 C    1.066
                            14 C    0.102
    12   6 C    3.986 --    13 C    1.455    11 C    1.377    46 H    0.968
                            15 C    0.107
    13   6 C    3.990 --    12 C    1.455    14 C    1.432    47 H    0.970
                            16 C    0.107
    14   6 C    3.979 --    13 C    1.432    15 C    1.431    48 H    0.970
                            11 C    0.102
    15   6 C    3.990 --    16 C    1.456    14 C    1.431    49 H    0.970
                            12 C    0.107
    16   6 C    3.986 --    15 C    1.456    11 C    1.378    50 H    0.968
                            13 C    0.107
    17   7 N    3.708 --    21 C    1.353    18 C    1.215     2 C    0.969
    18   6 C    3.950 --    19 C    1.600    17 N    1.215    51 H    0.960
    19   6 C    3.946 --    18 C    1.600    20 N    1.207    52 H    0.964
    20   7 N    3.698 --    21 C    1.345    19 C    1.207    22 C    0.974
    21   6 C    3.946 --    17 N    1.353    20 N    1.345    53 H    0.953
    22   6 C    3.947 --    37 C    0.984    20 N    0.974    54 H    0.953
                            23 C    0.909
    23   6 C    3.919 --    24 O    1.775    25 C    1.100    22 C    0.909
    24   8 O    2.077 --    23 C    1.775
    25   6 C    3.976 --    30 C    1.336    26 C    1.328    23 C    1.100
    26   6 C    3.983 --    27 C    1.495    25 C    1.328    55 H    0.964
    27   6 C    3.989 --    26 C    1.495    28 C    1.357    56 H    0.965
    28   6 C    3.982 --    27 C    1.357    29 C    1.352    31 C    1.071
    29   6 C    3.990 --    30 C    1.498    28 C    1.352    57 H    0.966
    30   6 C    3.989 --    29 C    1.498    25 C    1.336    58 H    0.964
    31   6 C    3.984 --    32 C    1.375    36 C    1.373    28 C    1.071
                            34 C    0.101
    32   6 C    3.984 --    33 C    1.456    31 C    1.375    59 H    0.968
                            35 C    0.106
    33   6 C    3.990 --    32 C    1.456    34 C    1.431    60 H    0.969
                            36 C    0.106
    34   6 C    3.976 --    33 C    1.431    35 C    1.430    61 H    0.970
                            31 C    0.101
    35   6 C    3.990 --    36 C    1.457    34 C    1.430    62 H    0.969
                            32 C    0.106
    36   6 C    3.984 --    35 C    1.457    31 C    1.373    63 H    0.968
                            33 C    0.106
    37   6 C    3.980 --    22 C    0.984    66 H    0.983    64 H    0.979
                            65 H    0.978
    38   1 H    0.996 --     1 C    0.983
    39   1 H    0.995 --     1 C    0.981
    40   1 H    0.993 --     1 C    0.975
    41   1 H    0.994 --     2 C    0.948
    42   1 H    0.998 --     6 C    0.965
    43   1 H    0.997 --     7 C    0.966
    44   1 H    0.996 --     9 C    0.965
    45   1 H    0.995 --    10 C    0.965
    46   1 H    0.999 --    12 C    0.968
    47   1 H    0.997 --    13 C    0.970
    48   1 H    0.997 --    14 C    0.970
    49   1 H    0.997 --    15 C    0.970
    50   1 H    0.998 --    16 C    0.968
    51   1 H    0.988 --    18 C    0.960
    52   1 H    0.991 --    19 C    0.964
    53   1 H    0.987 --    21 C    0.953
    54   1 H    0.993 --    22 C    0.953
    55   1 H    0.995 --    26 C    0.964
    56   1 H    0.996 --    27 C    0.965
    57   1 H    0.996 --    29 C    0.966
    58   1 H    0.998 --    30 C    0.964
    59   1 H    0.999 --    32 C    0.968
    60   1 H    0.997 --    33 C    0.969
    61   1 H    0.997 --    34 C    0.970
    62   1 H    0.997 --    35 C    0.969
    63   1 H    0.998 --    36 C    0.968
    64   1 H    0.994 --    37 C    0.979
    65   1 H    0.994 --    37 C    0.978
    66   1 H    0.996 --    37 C    0.983
 ---------------------------------------------------------------------------

molecular dipole:
                 x           y           z       tot (Debye)
 q only:       -1.310      -2.341      -0.357
   full:       -1.360      -2.458      -0.459       7.235

           -------------------------------------------------
          | TOTAL ENERGY              -99.042733375768 Eh   |
          | GRADIENT NORM               0.000294880243 Eh/α |
          | HOMO-LUMO GAP               1.952074983643 eV   |
           -------------------------------------------------

 * finished run on 2024/12/20 at 07:10:09.092
