   * xtb version 6.7.1 (edcfbbe) compiled by 'conda@3ef47c1a292c' on 2024-11-25

   ID    Z sym.   atoms
    1    6 C      1-8, 10-12
    2    7 N      9
    3    1 H      13-30

          program call               : xtb C1066.xyz --opt --namespace C1066 --charge +1
          :  Hamiltonian                  GFN2-xTB          :
 * total energy  :   -35.2410195 Eh     change       -0.1201528E-09 Eh
 * total energy  :   -35.2474638 Eh     change       -0.6444329E-02 Eh
 * total energy  :   -35.2490390 Eh     change       -0.1575200E-02 Eh
 * total energy  :   -35.2492010 Eh     change       -0.1619749E-03 Eh
 * total energy  :   -35.2493300 Eh     change       -0.1290548E-03 Eh
 * total energy  :   -35.2493877 Eh     change       -0.5764253E-04 Eh
 * total energy  :   -35.2494674 Eh     change       -0.7971424E-04 Eh
 * total energy  :   -35.2495084 Eh     change       -0.4096044E-04 Eh
 * total energy  :   -35.2495435 Eh     change       -0.3512798E-04 Eh
 * total energy  :   -35.2495405 Eh     change        0.2932171E-05 Eh
 * total energy  :   -35.2500394 Eh     change        0.3439864E-04 Eh
 * total energy  :   -35.2500997 Eh     change       -0.6029411E-04 Eh
 * total energy  :   -35.2501117 Eh     change       -0.1200021E-04 Eh
 * total energy  :   -35.2501431 Eh     change       -0.3138665E-04 Eh
 * total energy  :   -35.2500346 Eh     change        0.1085401E-03 Eh
 * total energy  :   -35.2501642 Eh     change       -0.1296613E-03 Eh
 * total energy  :   -35.2501727 Eh     change       -0.8442912E-05 Eh
 * total energy  :   -35.2501818 Eh     change       -0.9104241E-05 Eh
 * total energy  :   -35.2501853 Eh     change       -0.3514536E-05 Eh
   *** GEOMETRY OPTIMIZATION CONVERGED AFTER 44 ITERATIONS ***

 final structure:
================
30
 xtb: 6.7.1 (edcfbbe)
C            2.38392999389585       -0.03710615111708       -0.43638871539777
C            0.90700218226456        0.00636456687587       -0.17144965004300
C            0.21966147210224       -1.20557405877332       -0.16116554159028
C           -1.13289192056624       -1.27620004964992        0.10693021897796
C           -1.83329084394465       -0.11887401378174        0.40419762099267
C           -1.17160673486358        1.09228517054552        0.39637047687722
C            0.18614236446737        1.17923430941827        0.08266030488323
C            0.82445936366008        2.54572110807451        0.09783439058229
N            0.71060989549518        3.30851424820617       -1.19654083665471
C           -0.70184904252222        3.56627651481173       -1.52459681389857
C            1.41207486888440        4.59565302628666       -1.04496581596619
C            1.32435011279334        2.54753723562410       -2.29685543133338
H            2.92893013587448        0.75664013459300        0.06832373614894
H            2.78220572360846       -0.98415890862808       -0.08126245384382
H            2.59452669157725        0.01638265919713       -1.50444626725146
H            0.76881524136493       -2.11314505516241       -0.36016331376686
H           -1.63406557126445       -2.23089324894443        0.10764321585634
H           -2.88202883196457       -0.15993760844517        0.65078751301907
H           -1.71549925147369        1.98707383450300        0.66280366994355
H            0.34607366702256        3.15424707990023        0.86852227876305
H            1.88653735524511        2.46974101733462        0.33299233812286
H           -1.17343072094670        4.14485750534290       -0.73246230979774
H           -0.77149332578726        4.12827394333679       -2.45431837329068
H           -1.23483291946451        2.62439339159285       -1.64107429953843
H            2.46574516028820        4.43070497573938       -0.82645085927164
H            1.33488755626115        5.17527662591550       -1.96341986472895
H            0.97426719781165        5.17239568337716       -0.23203831809050
H            2.37947145268284        2.37921321117638       -2.09254945057866
H            0.82310663521572        1.58739508984854       -2.40411165696845
H            1.23266209228132        3.10019776280172       -3.23033579215564

          :  Hamiltonian                  GFN2-xTB          :
         :: total energy             -35.250185276382 Eh    ::
         :: gradient norm              0.000313897855 Eh/a0 ::
         :: HOMO-LUMO gap              4.408752140333 eV    ::
         :: SCC energy               -35.832975701141 Eh    ::
         :: -> dispersion             -0.025541437280 Eh    ::
         :: repulsion energy           0.582790424759 Eh    ::

    * Orbital Energies and Occupations

         #    Occupation            Energy/Eh            Energy/eV
      -------------------------------------------------------------
         1        2.0000           -0.8657870             -23.5593
       ...           ...                  ...                  ...
        21        2.0000           -0.6428022             -17.4915
        22        2.0000           -0.6407618             -17.4360
        23        2.0000           -0.6227565             -16.9461
        24        2.0000           -0.6164692             -16.7750
        25        2.0000           -0.6094965             -16.5852
        26        2.0000           -0.5996639             -16.3177
        27        2.0000           -0.5943315             -16.1726
        28        2.0000           -0.5866559             -15.9637
        29        2.0000           -0.5790671             -15.7572
        30        2.0000           -0.5436658             -14.7939
        31        2.0000           -0.5428662             -14.7721
        32        2.0000           -0.5273844             -14.3509
        33        2.0000           -0.5180481             -14.0968 (HOMO)
        34                         -0.3560295              -9.6881 (LUMO)
        35                         -0.3436410              -9.3509
        36                         -0.2358283              -6.4172
        37                         -0.2030947              -5.5265
        38                         -0.1480621              -4.0290
        39                         -0.1425132              -3.8780
        40                         -0.1403694              -3.8196
        41                         -0.0636992              -1.7333
        42                         -0.0368552              -1.0029
        43                         -0.0272316              -0.7410
        44                         -0.0009731              -0.0265
       ...                                ...                  ...
        66                          0.5329557              14.5025
      -------------------------------------------------------------
                  HL-Gap            0.1620187 Eh            4.4088 eV

     #   Z          covCN         q      C6AA      α(0)
     1   6 C        3.758    -0.122    22.892     6.821
     2   6 C        2.965     0.014    27.706     8.634
     3   6 C        2.928    -0.034    28.845     8.808
     4   6 C        2.918    -0.020    28.507     8.755
     5   6 C        2.918    -0.028    28.695     8.784
     6   6 C        2.925    -0.043    29.078     8.843
     7   6 C        2.968    -0.019    28.482     8.754
     8   6 C        3.764    -0.043    21.384     6.591
     9   7 N        3.622     0.143    18.820     6.443
    10   6 C        3.723    -0.095    22.438     6.764
    11   6 C        3.726    -0.096    22.447     6.765
    12   6 C        3.723    -0.095    22.433     6.764
    13   1 H        0.925     0.043     2.410     2.428
    14   1 H        0.925     0.070     2.090     2.261
    15   1 H        0.925     0.054     2.266     2.354
    16   1 H        0.926     0.058     2.227     2.333
    17   1 H        0.926     0.061     2.188     2.313
    18   1 H        0.926     0.056     2.241     2.341
    19   1 H        0.926     0.038     2.469     2.457
    20   1 H        0.924     0.084     1.943     2.180
    21   1 H        0.924     0.085     1.926     2.171
    22   1 H        0.925     0.097     1.815     2.107
    23   1 H        0.925     0.096     1.823     2.111
    24   1 H        0.925     0.105     1.739     2.062
    25   1 H        0.925     0.097     1.810     2.104
    26   1 H        0.925     0.099     1.793     2.094
    27   1 H        0.925     0.098     1.801     2.099
    28   1 H        0.925     0.100     1.787     2.090
    29   1 H        0.925     0.103     1.755     2.072
    30   1 H        0.925     0.095     1.829     2.115

Wiberg/Mayer (AO) data.
largest (>0.10) Wiberg bond orders for each atom

     #   Z sym  total        # sym  WBO       # sym  WBO       # sym  WBO
 ---------------------------------------------------------------------------
     1   6 C    3.993 --     2 C    1.028    14 H    0.976    13 H    0.973
                            15 H    0.964
     2   6 C    3.988 --     3 C    1.403     7 C    1.387     1 C    1.028
                             5 C    0.105
     3   6 C    3.990 --     4 C    1.457     2 C    1.403    16 H    0.967
                             6 C    0.109
     4   6 C    3.989 --     3 C    1.457     5 C    1.422    17 H    0.968
                             7 C    0.105
     5   6 C    3.991 --     6 C    1.457     4 C    1.422    18 H    0.969
                             2 C    0.105
     6   6 C    3.991 --     5 C    1.457     7 C    1.395    19 H    0.967
                             3 C    0.109
     7   6 C    3.973 --     6 C    1.395     2 C    1.387     8 C    1.006
                             4 C    0.105
     8   6 C    3.924 --     7 C    1.006    20 H    0.965    21 H    0.958
                             9 N    0.904
     9   7 N    3.815 --    11 C    0.961    10 C    0.959    12 C    0.959
                             8 C    0.904
    10   6 C    3.928 --    22 H    0.975    23 H    0.975    24 H    0.970
                             9 N    0.959
    11   6 C    3.929 --    27 H    0.975    25 H    0.975    26 H    0.974
                             9 N    0.961
    12   6 C    3.927 --    30 H    0.975    28 H    0.974    29 H    0.971
                             9 N    0.959
    13   1 H    0.998 --     1 C    0.973
    14   1 H    0.995 --     1 C    0.976
    15   1 H    0.997 --     1 C    0.964
    16   1 H    0.996 --     3 C    0.967
    17   1 H    0.996 --     4 C    0.968
    18   1 H    0.996 --     5 C    0.969
    19   1 H    0.998 --     6 C    0.967
    20   1 H    0.993 --     8 C    0.965
    21   1 H    0.993 --     8 C    0.958
    22   1 H    0.991 --    10 C    0.975
    23   1 H    0.991 --    10 C    0.975
    24   1 H    0.989 --    10 C    0.970
    25   1 H    0.991 --    11 C    0.975
    26   1 H    0.989 --    11 C    0.974
    27   1 H    0.990 --    11 C    0.975
    28   1 H    0.990 --    12 C    0.974
    29   1 H    0.989 --    12 C    0.971
    30   1 H    0.991 --    12 C    0.975
 ---------------------------------------------------------------------------

molecular dipole:
                 x           y           z       tot (Debye)
 q only:        1.251       5.314      -2.197
   full:        1.296       5.405      -2.166      15.163

           -------------------------------------------------
          | TOTAL ENERGY              -35.250185276382 Eh   |
          | GRADIENT NORM               0.000313897855 Eh/α |
          | HOMO-LUMO GAP               4.408752140333 eV   |
           -------------------------------------------------

 * finished run on 2024/12/20 at 07:10:11.923
