   * xtb version 6.7.1 (edcfbbe) compiled by 'conda@3ef47c1a292c' on 2024-11-25

   ID    Z sym.   atoms
    1    6 C      1-16, 18, 20-27
    2    7 N      17, 19
    3    1 H      28-70

          program call               : xtb C1069.xyz --opt --namespace C1069 --charge +1
          :  Hamiltonian                  GFN2-xTB          :
 * total energy  :   -80.9886206 Eh     change       -0.3233069E-08 Eh
 * total energy  :   -80.9934928 Eh     change       -0.4872160E-02 Eh
 * total energy  :   -80.9942517 Eh     change       -0.7589537E-03 Eh
 * total energy  :   -80.9944176 Eh     change       -0.1658339E-03 Eh
 * total energy  :   -80.9946301 Eh     change       -0.2125616E-03 Eh
 * total energy  :   -80.9947432 Eh     change       -0.1130649E-03 Eh
 * total energy  :   -80.9948768 Eh     change       -0.1336349E-03 Eh
 * total energy  :   -80.9950144 Eh     change       -0.1375511E-03 Eh
 * total energy  :   -80.9951437 Eh     change       -0.1292830E-03 Eh
 * total energy  :   -80.9952696 Eh     change       -0.1258841E-03 Eh
 * total energy  :   -80.9970501 Eh     change       -0.1582321E-04 Eh
 * total energy  :   -80.9970708 Eh     change       -0.2067855E-04 Eh
 * total energy  :   -80.9970951 Eh     change       -0.2431711E-04 Eh
 * total energy  :   -80.9971172 Eh     change       -0.2209984E-04 Eh
 * total energy  :   -80.9971262 Eh     change       -0.8977393E-05 Eh
 * total energy  :   -80.9971319 Eh     change       -0.5698095E-05 Eh
 * total energy  :   -80.9971415 Eh     change       -0.9540693E-05 Eh
 * total energy  :   -80.9971482 Eh     change       -0.6770138E-05 Eh
 * total energy  :   -80.9971529 Eh     change       -0.4674695E-05 Eh
   *** GEOMETRY OPTIMIZATION CONVERGED AFTER 72 ITERATIONS ***

 final structure:
================
70
 xtb: 6.7.1 (edcfbbe)
C            1.36795900850807        0.63258908823050        0.00162192145025
C            1.44635995166456        0.23419901708387       -1.46738668835263
C            1.59295027016430       -1.27364988915719       -1.67684262325847
C            0.42719973456978       -2.11472811422687       -1.15298572295574
C           -0.93504938397528       -1.78781487374186       -1.76789578393834
C           -1.01319996775422       -1.94107680009855       -3.28834660864330
C           -0.65246991591660       -3.33055967301321       -3.81772903117155
C           -1.48272388200607       -4.47786741497761       -3.23999509357849
C           -2.98764025027818       -4.37830327654483       -3.49529330629730
C           -3.39541423449857       -4.38130153277029       -4.97029212146819
C           -2.92166982079779       -5.59704025822341       -5.77058160008608
C           -3.32238582968568       -6.95311803210105       -5.18661192617537
C           -4.82993671723059       -7.18015438372880       -5.05388244740031
C           -5.57225580254639       -7.30880855762792       -6.38653585003328
C           -5.27208976873307       -8.60374158128245       -7.14361538406884
C           -5.86697992512672       -9.85815982527621       -6.49139682525776
N           -7.30538870274807       -9.90788420395031       -6.63251489695937
C           -7.95305863783114      -10.36387879504752       -7.69902016943980
N           -9.26923866857967      -10.25822735286263       -7.55428132464331
C           -9.50839283142386       -9.68487250787399       -6.32321268883428
C           -8.24927218114231       -9.46179443649138       -5.73034727804913
C           -8.14421910017478       -8.90060340992402       -4.46181813709547
C           -9.32032139473036       -8.57073594156205       -3.82276660228115
C          -10.56889123601148       -8.79102988295485       -4.41344292029703
C          -10.68826638331343       -9.35021703123198       -5.66783825859002
C          -10.27296221296983      -10.62458013610141       -8.52918253377869
C          -10.72607199920088       -9.40919022335082       -9.33203964155367
H            0.45970321108127        0.25387519230094        0.46347808165285
H            1.36884040926594        1.71590568516561        0.09859525651929
H            2.22254834992792        0.23965047637389        0.54837657649268
H            0.56050113271871        0.59790882035172       -1.99098697207575
H            2.31301028728858        0.72368714338086       -1.91867845772761
H            1.72766897378734       -1.46654414230442       -2.74325663997556
H            2.50283845234647       -1.60726811843105       -1.17091237526224
H            0.66019926967730       -3.16706799080223       -1.33026245625472
H            0.35177090118076       -1.98477712077257       -0.07155664631409
H           -1.68337005310995       -2.43270841578754       -1.30104528272322
H           -1.20382575254811       -0.75985668337261       -1.51700559377681
H           -2.02678137687330       -1.68458101252334       -3.60594736777795
H           -0.34250733801883       -1.21740690825432       -3.75549987148569
H           -0.75573927785921       -3.31980765731392       -4.90527533809376
H            0.39816437727644       -3.53279188974171       -3.60092042272523
H           -1.10506363658050       -5.41536779399370       -3.65447244849437
H           -1.32554035057482       -4.52280990308703       -2.16080658956582
H           -3.47814641126945       -5.20906400138551       -2.98160850895011
H           -3.36601663833772       -3.46009616074015       -3.04283269556713
H           -4.48482982231241       -4.30943664784374       -5.02578647316826
H           -2.99687809137793       -3.48726410451933       -5.45235977538375
H           -3.30348466155323       -5.50708791627207       -6.79049074115021
H           -1.83313915178278       -5.57359661708116       -5.83877040932025
H           -2.88549079470302       -7.73837985274631       -5.80808797812006
H           -2.87911255578913       -7.05273150345681       -4.19526547299011
H           -4.98251044863680       -8.08051573986434       -4.45296581280779
H           -5.26422718064955       -6.34831265960776       -4.49914973480104
H           -6.64863353899933       -7.22909009621452       -6.21119351189561
H           -5.29050600834189       -6.47022690888126       -7.02302417810013
H           -5.65306668121173       -8.52576345544446       -8.16452904225935
H           -4.19344354825951       -8.74287161384678       -7.20669518566347
H           -5.44999544884892      -10.75051790616799       -6.96360333554447
H           -5.62736522402605       -9.88445956130493       -5.42841579597535
H           -7.47183576074060      -10.78212667600591       -8.56361770061198
H           -7.18979044835172       -8.72285284179481       -3.99585943610957
H           -9.27918979673011       -8.13123684851485       -2.83903758011062
H          -11.45908786167408       -8.51627948286228       -3.87072400718051
H          -11.65306121252403       -9.51972753617915       -6.11656853295459
H           -9.84734534270459      -11.38013763335263       -9.19240661684835
H          -11.11860342148324      -11.06387582471542       -7.99558450768545
H           -9.89532809670379       -8.98238761034313       -9.88858187168967
H          -11.49357125417662       -9.70979251094461      -10.03851355405910
H          -11.13859829598961       -8.64407794237499       -8.67942745075388

          :  Hamiltonian                  GFN2-xTB          :
         :: total energy             -80.997152898079 Eh    ::
         :: gradient norm              0.000300143647 Eh/a0 ::
         :: HOMO-LUMO gap              1.021461753806 eV    ::
         :: SCC energy               -82.258091588268 Eh    ::
         :: -> dispersion             -0.064024562472 Eh    ::
         :: repulsion energy           1.260938690190 Eh    ::

    * Orbital Energies and Occupations

         #    Occupation            Energy/Eh            Energy/eV
      -------------------------------------------------------------
         1        2.0000           -0.8782768             -23.8991
       ...           ...                  ...                  ...
        64        2.0000           -0.5087488             -13.8438
        65        2.0000           -0.5029803             -13.6868
        66        2.0000           -0.4999441             -13.6042
        67        2.0000           -0.4927853             -13.4094
        68        2.0000           -0.4880403             -13.2803
        69        2.0000           -0.4845665             -13.1857
        70        2.0000           -0.4802508             -13.0683
        71        2.0000           -0.4707373             -12.8094
        72        2.0000           -0.4697244             -12.7819
        73        2.0000           -0.4666909             -12.6993
        74        2.0000           -0.4571871             -12.4407
        75        2.0000           -0.4519206             -12.2974
        76        2.0000           -0.4506319             -12.2623 (HOMO)
        77                         -0.4130939             -11.2409 (LUMO)
        78                         -0.3627336              -9.8705
        79                         -0.3544138              -9.6441
        80                         -0.2370457              -6.4503
        81                         -0.1759960              -4.7891
        82                         -0.1304046              -3.5485
        83                         -0.0696339              -1.8948
        84                         -0.0455741              -1.2401
        85                         -0.0378743              -1.0306
        86                         -0.0315368              -0.8582
        87                         -0.0274378              -0.7466
       ...                                ...                  ...
       151                          0.5408147              14.7163
      -------------------------------------------------------------
                  HL-Gap            0.0375380 Eh            1.0215 eV

     #   Z          covCN         q      C6AA      α(0)
     1   6 C        3.751    -0.101    22.500     6.765
     2   6 C        3.799    -0.052    21.508     6.603
     3   6 C        3.800    -0.057    21.599     6.617
     4   6 C        3.800    -0.057    21.593     6.616
     5   6 C        3.800    -0.056    21.583     6.615
     6   6 C        3.800    -0.056    21.589     6.616
     7   6 C        3.800    -0.057    21.594     6.616
     8   6 C        3.800    -0.057    21.601     6.617
     9   6 C        3.800    -0.057    21.600     6.617
    10   6 C        3.800    -0.058    21.614     6.619
    11   6 C        3.800    -0.059    21.639     6.623
    12   6 C        3.800    -0.061    21.672     6.628
    13   6 C        3.800    -0.060    21.663     6.627
    14   6 C        3.800    -0.064    21.731     6.637
    15   6 C        3.801    -0.068    21.798     6.647
    16   6 C        3.741    -0.021    21.021     6.541
    17   7 N        2.826     0.036    20.617     6.744
    18   6 C        3.079     0.064    26.474     8.436
    19   7 N        2.826     0.032    20.687     6.755
    20   6 C        3.123     0.039    26.936     8.499
    21   6 C        3.120     0.042    26.893     8.493
    22   6 C        2.909    -0.032    28.794     8.799
    23   6 C        2.925    -0.019    28.471     8.750
    24   6 C        2.925    -0.018    28.459     8.748
    25   6 C        2.908    -0.033    28.821     8.803
    26   6 C        3.740    -0.015    20.919     6.526
    27   6 C        3.753    -0.122    22.896     6.824
    28   1 H        0.925     0.034     2.536     2.490
    29   1 H        0.925     0.032     2.561     2.502
    30   1 H        0.925     0.034     2.533     2.489
    31   1 H        0.924     0.030     2.585     2.514
    32   1 H        0.924     0.027     2.626     2.534
    33   1 H        0.924     0.028     2.613     2.528
    34   1 H        0.924     0.029     2.606     2.525
    35   1 H        0.924     0.027     2.629     2.536
    36   1 H        0.924     0.031     2.565     2.505
    37   1 H        0.924     0.025     2.658     2.550
    38   1 H        0.924     0.032     2.558     2.501
    39   1 H        0.924     0.025     2.657     2.549
    40   1 H        0.924     0.033     2.548     2.496
    41   1 H        0.924     0.026     2.643     2.542
    42   1 H        0.924     0.033     2.543     2.494
    43   1 H        0.924     0.025     2.652     2.547
    44   1 H        0.924     0.034     2.531     2.488
    45   1 H        0.924     0.022     2.702     2.570
    46   1 H        0.924     0.036     2.509     2.477
    47   1 H        0.924     0.022     2.702     2.570
    48   1 H        0.924     0.038     2.474     2.460
    49   1 H        0.924     0.025     2.663     2.552
    50   1 H        0.924     0.041     2.434     2.440
    51   1 H        0.924     0.026     2.646     2.544
    52   1 H        0.924     0.044     2.391     2.418
    53   1 H        0.924     0.019     2.752     2.594
    54   1 H        0.925     0.047     2.353     2.399
    55   1 H        0.924     0.025     2.665     2.553
    56   1 H        0.925     0.058     2.219     2.330
    57   1 H        0.924     0.043     2.409     2.427
    58   1 H        0.925     0.073     2.051     2.239
    59   1 H        0.924     0.073     2.048     2.238
    60   1 H        0.925     0.089     1.887     2.148
    61   1 H        0.926     0.103     1.761     2.075
    62   1 H        0.926     0.076     2.025     2.226
    63   1 H        0.926     0.080     1.983     2.202
    64   1 H        0.926     0.079     1.985     2.203
    65   1 H        0.926     0.071     2.071     2.251
    66   1 H        0.924     0.078     1.996     2.210
    67   1 H        0.924     0.086     1.915     2.164
    68   1 H        0.925     0.061     2.192     2.315
    69   1 H        0.925     0.081     1.973     2.197
    70   1 H        0.925     0.065     2.147     2.291

Wiberg/Mayer (AO) data.
largest (>0.10) Wiberg bond orders for each atom

     #   Z sym  total        # sym  WBO       # sym  WBO       # sym  WBO
 ---------------------------------------------------------------------------
     1   6 C    3.997 --     2 C    1.020    30 H    0.988    29 H    0.987
                            28 H    0.986
     2   6 C    3.998 --     1 C    1.020     3 C    1.008    32 H    0.978
                            31 H    0.976
     3   6 C    3.998 --     2 C    1.008     4 C    1.008    34 H    0.977
                            33 H    0.976
     4   6 C    3.998 --     5 C    1.008     3 C    1.008    36 H    0.975
                            35 H    0.975
     5   6 C    3.998 --     4 C    1.008     6 C    1.008    37 H    0.975
                            38 H    0.975
     6   6 C    3.997 --     5 C    1.008     7 C    1.008    39 H    0.976
                            40 H    0.975
     7   6 C    3.997 --     8 C    1.008     6 C    1.008    41 H    0.975
                            42 H    0.975
     8   6 C    3.997 --     7 C    1.008     9 C    1.008    43 H    0.975
                            44 H    0.974
     9   6 C    3.997 --     8 C    1.008    10 C    1.007    45 H    0.976
                            46 H    0.974
    10   6 C    3.997 --     9 C    1.007    11 C    1.007    47 H    0.976
                            48 H    0.974
    11   6 C    3.996 --    12 C    1.008    10 C    1.007    49 H    0.974
                            50 H    0.974
    12   6 C    3.996 --    11 C    1.008    13 C    1.007    51 H    0.973
                            52 H    0.973
    13   6 C    3.996 --    14 C    1.007    12 C    1.007    54 H    0.972
                            53 H    0.970
    14   6 C    3.993 --    15 C    1.008    13 C    1.007    55 H    0.975
                            56 H    0.969
    15   6 C    3.984 --    14 C    1.008    16 C    0.983    57 H    0.975
                            58 H    0.963
    16   6 C    3.938 --    15 C    0.983    17 N    0.967    59 H    0.966
                            60 H    0.959
    17   7 N    3.686 --    18 C    1.372    21 C    1.131    16 C    0.967
                            19 N    0.104
    18   6 C    3.955 --    17 N    1.372    19 N    1.368    61 H    0.954
    19   7 N    3.683 --    18 C    1.368    20 C    1.130    26 C    0.968
                            17 N    0.104
    20   6 C    3.953 --    25 C    1.336    21 C    1.272    19 N    1.130
    21   6 C    3.954 --    22 C    1.334    20 C    1.272    17 N    1.131
    22   6 C    3.985 --    23 C    1.499    21 C    1.334    62 H    0.959
                            25 C    0.119
    23   6 C    3.986 --    22 C    1.499    24 C    1.373    63 H    0.966
    24   6 C    3.986 --    25 C    1.499    23 C    1.373    64 H    0.966
    25   6 C    3.986 --    24 C    1.499    20 C    1.336    65 H    0.963
                            22 C    0.119
    26   6 C    3.943 --    27 C    1.002    66 H    0.968    19 N    0.968
                            67 H    0.963
    27   6 C    3.982 --    26 C    1.002    68 H    0.985    70 H    0.984
                            69 H    0.977
    28   1 H    0.999 --     1 C    0.986
    29   1 H    0.999 --     1 C    0.987
    30   1 H    0.999 --     1 C    0.988
    31   1 H    0.999 --     2 C    0.976
    32   1 H    0.999 --     2 C    0.978
    33   1 H    0.999 --     3 C    0.976
    34   1 H    0.999 --     3 C    0.977
    35   1 H    0.999 --     4 C    0.975
    36   1 H    0.999 --     4 C    0.975
    37   1 H    0.999 --     5 C    0.975
    38   1 H    0.999 --     5 C    0.975
    39   1 H    0.999 --     6 C    0.976
    40   1 H    0.999 --     6 C    0.975
    41   1 H    0.999 --     7 C    0.975
    42   1 H    0.999 --     7 C    0.975
    43   1 H    0.999 --     8 C    0.975
    44   1 H    0.999 --     8 C    0.974
    45   1 H    0.999 --     9 C    0.976
    46   1 H    0.999 --     9 C    0.974
    47   1 H    0.999 --    10 C    0.976
    48   1 H    0.999 --    10 C    0.974
    49   1 H    0.999 --    11 C    0.974
    50   1 H    0.998 --    11 C    0.974
    51   1 H    0.999 --    12 C    0.973
    52   1 H    0.998 --    12 C    0.973
    53   1 H    1.000 --    13 C    0.970
    54   1 H    0.998 --    13 C    0.972
    55   1 H    0.999 --    14 C    0.975
    56   1 H    0.996 --    14 C    0.969
    57   1 H    0.998 --    15 C    0.975
    58   1 H    0.993 --    15 C    0.963
    59   1 H    0.994 --    16 C    0.966
    60   1 H    0.992 --    16 C    0.959
    61   1 H    0.989 --    18 C    0.954
    62   1 H    0.994 --    22 C    0.959
    63   1 H    0.993 --    23 C    0.966
    64   1 H    0.993 --    24 C    0.966
    65   1 H    0.994 --    25 C    0.963
    66   1 H    0.993 --    26 C    0.968
    67   1 H    0.992 --    26 C    0.963
    68   1 H    0.996 --    27 C    0.985
    69   1 H    0.992 --    27 C    0.977
    70   1 H    0.996 --    27 C    0.984
 ---------------------------------------------------------------------------

molecular dipole:
                 x           y           z       tot (Debye)
 q only:      -15.574     -17.975     -12.755
   full:      -15.535     -18.205     -12.929      69.138

           -------------------------------------------------
          | TOTAL ENERGY              -80.997152898079 Eh   |
          | GRADIENT NORM               0.000300143647 Eh/α |
          | HOMO-LUMO GAP               1.021461753806 eV   |
           -------------------------------------------------

 * finished run on 2024/12/20 at 07:10:19.315
