   * xtb version 6.7.1 (edcfbbe) compiled by 'conda@3ef47c1a292c' on 2024-11-25

   ID    Z sym.   atoms
    1    6 C      1-5, 7-9, 11, 12
    2    7 N      6
    3    8 O      10
    4    1 H      13-36

          program call               : xtb C1063.xyz --opt --namespace C1063 --charge +1
          :  Hamiltonian                  GFN2-xTB          :
 * total energy  :   -40.2352905 Eh     change       -0.6427570E-10 Eh
 * total energy  :   -40.2422033 Eh     change       -0.6912778E-02 Eh
 * total energy  :   -40.2440511 Eh     change       -0.1847812E-02 Eh
 * total energy  :   -40.2443201 Eh     change       -0.2689735E-03 Eh
 * total energy  :   -40.2447343 Eh     change       -0.4141865E-03 Eh
 * total energy  :   -40.2449304 Eh     change       -0.1961452E-03 Eh
 * total energy  :   -40.2451861 Eh     change       -0.2556291E-03 Eh
 * total energy  :   -40.2453194 Eh     change       -0.1333169E-03 Eh
 * total energy  :   -40.2453901 Eh     change       -0.7066254E-04 Eh
 * total energy  :   -40.2454463 Eh     change       -0.5624384E-04 Eh
 * total energy  :   -40.2456705 Eh     change       -0.3574974E-04 Eh
 * total energy  :   -40.2457421 Eh     change       -0.7159992E-04 Eh
 * total energy  :   -40.2458021 Eh     change       -0.6002100E-04 Eh
 * total energy  :   -40.2458482 Eh     change       -0.4605801E-04 Eh
 * total energy  :   -40.2458858 Eh     change       -0.3769065E-04 Eh
 * total energy  :   -40.2459127 Eh     change       -0.2690148E-04 Eh
 * total energy  :   -40.2459220 Eh     change       -0.9248701E-05 Eh
 * total energy  :   -40.2459250 Eh     change       -0.2992417E-05 Eh
 * total energy  :   -40.2459284 Eh     change       -0.3460811E-05 Eh
   *** GEOMETRY OPTIMIZATION CONVERGED AFTER 22 ITERATIONS ***

 final structure:
================
36
 xtb: 6.7.1 (edcfbbe)
C            0.95045105186128       -0.38048242017716        0.08251999983760
C            0.48384040464043        0.76785303607518       -0.80466682798057
C            0.74400390089946        0.53792548338622       -2.29541904901048
C            0.13165782668240       -0.74334123446449       -2.89591734228648
C           -1.38670015699103       -0.92849149602937       -2.63195125469257
N           -2.34842327746499       -0.37568016810197       -3.63128242570947
C           -2.42337522061098       -1.26097186261616       -4.81091324994090
C           -3.68179193063786       -0.31717444636119       -3.00120581194673
C           -1.96887930881402        0.97765974630064       -4.06973302313577
O            0.36641555265152       -0.83254033051206       -4.28767656536033
C            1.68020256477940       -1.21855973260900       -4.68086516850552
C            1.64898354584231       -1.55347513242994       -6.16255523522425
H            0.36391052656644       -1.28204526317476       -0.07938770652062
H            0.85362681439430       -0.10170208672686        1.12804351331626
H            1.99560458681556       -0.60801590737158       -0.10938899552478
H           -0.57341668238800        0.97263843214514       -0.61657827735490
H            1.02885094861973        1.66935426622979       -0.52055283400907
H            0.41685584322141        1.41168037024925       -2.85911459210034
H            1.82377560207006        0.45810438339160       -2.43382335294198
H            0.61931182356531       -1.59725902673482       -2.39891034654522
H           -1.59543546585255       -1.99763657317644       -2.56259961523325
H           -1.60304680825120       -0.47737669733662       -1.66353022957312
H           -2.80332794230805       -2.23919720467821       -4.52252096335954
H           -3.09020364365868       -0.83156733180381       -5.55578405293471
H           -1.42770204314438       -1.37219223496486       -5.23581980310253
H           -3.68383404829953        0.39307111000669       -2.17595109997213
H           -4.42377484762879       -0.00027611662844       -3.73219996779601
H           -3.96600254132362       -1.29687360244062       -2.62073913510006
H           -1.87955525228060        1.63804624431375       -3.20973028377133
H           -1.01969784374619        0.92898320123726       -4.59920519944665
H           -2.72930965972949        1.37589299606010       -4.73935339158353
H            2.38422986247908       -0.39908910697395       -4.49505556303079
H            1.99435126460060       -2.09115151838370       -4.09357841175637
H            1.31291071437325       -0.69361181760286       -6.73612089123219
H            2.64682145824486       -1.82433941652547       -6.49233964112175
H            0.97938238081872       -2.38867854157075       -6.35247320534676

          :  Hamiltonian                  GFN2-xTB          :
         :: total energy             -40.245928446479 Eh    ::
         :: gradient norm              0.000373515396 Eh/a0 ::
         :: HOMO-LUMO gap              8.056472911048 eV    ::
         :: SCC energy               -40.767093156857 Eh    ::
         :: -> dispersion             -0.026550008685 Eh    ::
         :: repulsion energy           0.521164710378 Eh    ::

    * Orbital Energies and Occupations

         #    Occupation            Energy/Eh            Energy/eV
      -------------------------------------------------------------
         1        2.0000           -0.8604664             -23.4145
       ...           ...                  ...                  ...
        25        2.0000           -0.6305932             -17.1593
        26        2.0000           -0.6216505             -16.9160
        27        2.0000           -0.6143566             -16.7175
        28        2.0000           -0.6043983             -16.4465
        29        2.0000           -0.5968904             -16.2422
        30        2.0000           -0.5806727             -15.8009
        31        2.0000           -0.5770810             -15.7032
        32        2.0000           -0.5691167             -15.4865
        33        2.0000           -0.5636078             -15.3365
        34        2.0000           -0.5539048             -15.0725
        35        2.0000           -0.5485326             -14.9263
        36        2.0000           -0.5463770             -14.8677
        37        2.0000           -0.5217822             -14.1984 (HOMO)
        38                         -0.2257122              -6.1419 (LUMO)
        39                         -0.1589021              -4.3239
        40                         -0.1525945              -4.1523
        41                         -0.1366746              -3.7191
        42                         -0.1254410              -3.4134
        43                         -0.0708883              -1.9290
        44                         -0.0581633              -1.5827
        45                         -0.0471199              -1.2822
        46                         -0.0235606              -0.6411
        47                         -0.0150517              -0.4096
        48                         -0.0043052              -0.1171
       ...                                ...                  ...
        72                          0.1879559               5.1145
      -------------------------------------------------------------
                  HL-Gap            0.2960699 Eh            8.0565 eV

     #   Z          covCN         q      C6AA      α(0)
     1   6 C        3.751    -0.115    22.758     6.803
     2   6 C        3.799    -0.062    21.687     6.631
     3   6 C        3.799    -0.086    22.134     6.699
     4   6 C        3.734     0.107    18.905     6.206
     5   6 C        3.760    -0.050    21.516     6.613
     6   7 N        3.622     0.153    18.656     6.415
     7   6 C        3.724    -0.106    22.639     6.794
     8   6 C        3.730    -0.098    22.481     6.768
     9   6 C        3.721    -0.101    22.540     6.781
    10   8 O        1.699    -0.339    19.684     5.990
    11   6 C        3.686     0.081    19.413     6.308
    12   6 C        3.751    -0.119    22.832     6.814
    13   1 H        0.925     0.030     2.593     2.518
    14   1 H        0.925     0.056     2.252     2.346
    15   1 H        0.925     0.050     2.318     2.381
    16   1 H        0.924     0.024     2.674     2.557
    17   1 H        0.924     0.058     2.226     2.333
    18   1 H        0.925     0.048     2.351     2.398
    19   1 H        0.924     0.061     2.191     2.315
    20   1 H        0.923     0.052     2.293     2.368
    21   1 H        0.924     0.086     1.920     2.167
    22   1 H        0.925     0.096     1.821     2.110
    23   1 H        0.925     0.092     1.856     2.130
    24   1 H        0.925     0.094     1.837     2.120
    25   1 H        0.925     0.131     1.529     1.934
    26   1 H        0.925     0.096     1.818     2.109
    27   1 H        0.925     0.101     1.774     2.083
    28   1 H        0.925     0.097     1.813     2.106
    29   1 H        0.925     0.096     1.821     2.110
    30   1 H        0.925     0.123     1.591     1.973
    31   1 H        0.925     0.094     1.838     2.120
    32   1 H        0.924     0.037     2.495     2.470
    33   1 H        0.924     0.033     2.544     2.495
    34   1 H        0.925     0.058     2.218     2.329
    35   1 H        0.925     0.065     2.138     2.286
    36   1 H        0.925     0.055     2.258     2.350

Wiberg/Mayer (AO) data.
largest (>0.10) Wiberg bond orders for each atom

     #   Z sym  total        # sym  WBO       # sym  WBO       # sym  WBO
 ---------------------------------------------------------------------------
     1   6 C    3.994 --     2 C    1.020    13 H    0.987    15 H    0.986
                            14 H    0.985
     2   6 C    3.994 --     1 C    1.020     3 C    1.006    17 H    0.974
                            16 H    0.972
     3   6 C    3.990 --     2 C    1.006     4 C    0.983    18 H    0.972
                            19 H    0.969
     4   6 C    3.950 --     3 C    0.983    10 O    0.981     5 C    0.978
                            20 H    0.951
     5   6 C    3.933 --     4 C    0.978    21 H    0.970    22 H    0.959
                             6 N    0.935
     6   7 N    3.820 --     8 C    0.959     9 C    0.956     7 C    0.953
                             5 C    0.935
     7   6 C    3.916 --    23 H    0.976    24 H    0.976    25 H    0.958
                             6 N    0.953
     8   6 C    3.930 --    28 H    0.976    26 H    0.975    27 H    0.974
                             6 N    0.959
     9   6 C    3.921 --    31 H    0.975    29 H    0.975    30 H    0.964
                             6 N    0.956
    10   8 O    2.072 --     4 C    0.981    11 C    0.954
    11   6 C    3.939 --    12 C    1.017    32 H    0.970    33 H    0.969
                            10 O    0.954
    12   6 C    3.989 --    11 C    1.017    36 H    0.985    34 H    0.985
                            35 H    0.981
    13   1 H    0.999 --     1 C    0.987
    14   1 H    0.997 --     1 C    0.985
    15   1 H    0.997 --     1 C    0.986
    16   1 H    0.999 --     2 C    0.972
    17   1 H    0.997 --     2 C    0.974
    18   1 H    0.998 --     3 C    0.972
    19   1 H    0.996 --     3 C    0.969
    20   1 H    0.997 --     4 C    0.951
    21   1 H    0.993 --     5 C    0.970
    22   1 H    0.990 --     5 C    0.959
    23   1 H    0.991 --     7 C    0.976
    24   1 H    0.991 --     7 C    0.976
    25   1 H    0.983 --     7 C    0.958
    26   1 H    0.991 --     8 C    0.975
    27   1 H    0.989 --     8 C    0.974
    28   1 H    0.991 --     8 C    0.976
    29   1 H    0.991 --     9 C    0.975
    30   1 H    0.985 --     9 C    0.964
    31   1 H    0.991 --     9 C    0.975
    32   1 H    0.999 --    11 C    0.970
    33   1 H    0.999 --    11 C    0.969
    34   1 H    0.997 --    12 C    0.985
    35   1 H    0.995 --    12 C    0.981
    36   1 H    0.997 --    12 C    0.985
 ---------------------------------------------------------------------------

molecular dipole:
                 x           y           z       tot (Debye)
 q only:       -3.400      -0.743      -6.641
   full:       -3.350      -0.807      -6.478      18.649

           -------------------------------------------------
          | TOTAL ENERGY              -40.245928446479 Eh   |
          | GRADIENT NORM               0.000373515396 Eh/α |
          | HOMO-LUMO GAP               8.056472911048 eV   |
           -------------------------------------------------

 * finished run on 2024/12/20 at 07:09:56.675
