   * xtb version 6.7.1 (edcfbbe) compiled by 'conda@3ef47c1a292c' on 2024-11-25

   ID    Z sym.   atoms
    1    6 C      1-7, 9-14
    2    7 N      8
    3    1 H      15-36

          program call               : xtb C1067.xyz --opt --namespace C1067 --charge +1
          :  Hamiltonian                  GFN2-xTB          :
 * total energy  :   -41.5930051 Eh     change       -0.4814069E-09 Eh
 * total energy  :   -41.5955801 Eh     change       -0.2574987E-02 Eh
 * total energy  :   -41.5960174 Eh     change       -0.4372928E-03 Eh
 * total energy  :   -41.5960923 Eh     change       -0.7484006E-04 Eh
 * total energy  :   -41.5961665 Eh     change       -0.7423732E-04 Eh
 * total energy  :   -41.5962087 Eh     change       -0.4220257E-04 Eh
 * total energy  :   -41.5962542 Eh     change       -0.4551017E-04 Eh
 * total energy  :   -41.5963067 Eh     change       -0.5254662E-04 Eh
 * total energy  :   -41.5963498 Eh     change       -0.4303276E-04 Eh
 * total energy  :   -41.5963712 Eh     change       -0.2143899E-04 Eh
 * total energy  :   -41.5966260 Eh     change       -0.4844684E-04 Eh
 * total energy  :   -41.5966690 Eh     change       -0.4300583E-04 Eh
 * total energy  :   -41.5967005 Eh     change       -0.3148257E-04 Eh
 * total energy  :   -41.5967384 Eh     change       -0.3797041E-04 Eh
 * total energy  :   -41.5967679 Eh     change       -0.2946502E-04 Eh
 * total energy  :   -41.5967867 Eh     change       -0.1884054E-04 Eh
 * total energy  :   -41.5967969 Eh     change       -0.1017909E-04 Eh
 * total energy  :   -41.5968029 Eh     change       -0.5938803E-05 Eh
 * total energy  :   -41.5968078 Eh     change       -0.4891118E-05 Eh
   *** GEOMETRY OPTIMIZATION CONVERGED AFTER 23 ITERATIONS ***

 final structure:
================
36
 xtb: 6.7.1 (edcfbbe)
C            1.18655535635567        0.23390794717979       -0.02006798846719
C            0.57400646115218        0.59065085804936       -1.36891850515410
C            1.04738200829185       -0.31599589397770       -2.50651851941290
C            0.71716130141722       -1.80088008676871       -2.33022414276670
C           -0.76661647143400       -2.11202965351430       -2.11481995603528
C           -1.69603039712239       -1.61835876412926       -3.22302456505967
C           -1.48350159868341       -2.31635131362048       -4.57467024976437
N           -1.87076735039145       -3.71276638376194       -4.49300205883011
C           -0.95847815047262       -4.64762654570452       -4.21813897979261
C           -1.32937810640396       -5.96958110506243       -4.05850168302735
C           -2.66149707464318       -6.32289383314135       -4.18264903115480
C           -3.61428049982656       -5.34024061648828       -4.47033288694841
C           -3.16321166821577       -4.03799446249679       -4.61403044522390
C           -5.05357307249672       -5.68002455938565       -4.62351151421674
H            0.85511812366933       -0.74356809939884        0.32313755818400
H            0.89485598389067        0.96768719434827        0.72697186857427
H            2.27209215623977        0.22753543117883       -0.08497528892468
H           -0.51514735326738        0.56692930820989       -1.29338751054666
H            0.85586032227320        1.61475373770288       -1.62163595045140
H            0.62647322740697        0.04791839412297       -3.44713385892859
H            2.13255002402524       -0.22761552438734       -2.58885432079346
H            1.09694652964534       -2.33748058111313       -3.20442190213958
H            1.26383384190596       -2.18334889792194       -1.46771434885750
H           -0.88814033913615       -3.19190774697759       -1.98030617676360
H           -1.08687253747102       -1.64380985307036       -1.18416233252720
H           -2.73327903309913       -1.75925283608364       -2.91064965283969
H           -1.54017094197094       -0.55165652903011       -3.37659539399282
H           -2.09130989368121       -1.82698295238453       -5.33792690713230
H           -0.43521320673880       -2.25040718609997       -4.86608571482647
H            0.07090869979838       -4.33438611784753       -4.13508485718211
H           -0.57662364216865       -6.70948718016423       -3.83868448033510
H           -2.96971244248373       -7.34999872502297       -4.06170158484890
H           -3.85089601620442       -3.23441181103669       -4.83509049574042
H           -5.19625723604030       -6.29757907861078       -5.50936573121392
H           -5.39898196306573       -6.25919629976212       -3.76968735683123
H           -5.66778504105329       -4.79040023382663       -4.71996503603205

          :  Hamiltonian                  GFN2-xTB          :
         :: total energy             -41.596807756443 Eh    ::
         :: gradient norm              0.000686354228 Eh/a0 ::
         :: HOMO-LUMO gap              1.603682779327 eV    ::
         :: SCC energy               -42.271257375241 Eh    ::
         :: -> dispersion             -0.028657514545 Eh    ::
         :: repulsion energy           0.674449618798 Eh    ::

    * Orbital Energies and Occupations

         #    Occupation            Energy/Eh            Energy/eV
      -------------------------------------------------------------
         1        2.0000           -0.8709205             -23.6990
       ...           ...                  ...                  ...
        27        2.0000           -0.6069951             -16.5172
        28        2.0000           -0.6025387             -16.3959
        29        2.0000           -0.5942269             -16.1697
        30        2.0000           -0.5884698             -16.0131
        31        2.0000           -0.5838067             -15.8862
        32        2.0000           -0.5737603             -15.6128
        33        2.0000           -0.5702998             -15.5186
        34        2.0000           -0.5535719             -15.0635
        35        2.0000           -0.5472052             -14.8902
        36        2.0000           -0.5397372             -14.6870
        37        2.0000           -0.5179860             -14.0951
        38        2.0000           -0.5129222             -13.9573
        39        2.0000           -0.5078492             -13.8193 (HOMO)
        40                         -0.4489150             -12.2156 (LUMO)
        41                         -0.4156111             -11.3094
        42                         -0.2990551              -8.1377
        43                         -0.1632107              -4.4412
        44                         -0.0785388              -2.1371
        45                         -0.0622596              -1.6942
        46                         -0.0430329              -1.1710
        47                         -0.0377433              -1.0270
        48                         -0.0333668              -0.9080
        49                         -0.0117260              -0.3191
        50                         -0.0088370              -0.2405
       ...                                ...                  ...
        78                          0.4472136              12.1693
      -------------------------------------------------------------
                  HL-Gap            0.0589343 Eh            1.6037 eV

     #   Z          covCN         q      C6AA      α(0)
     1   6 C        3.751    -0.107    22.601     6.780
     2   6 C        3.799    -0.056    21.587     6.615
     3   6 C        3.800    -0.063    21.705     6.633
     4   6 C        3.800    -0.062    21.689     6.631
     5   6 C        3.800    -0.065    21.757     6.641
     6   6 C        3.801    -0.069    21.815     6.650
     7   6 C        3.760    -0.035    21.238     6.570
     8   7 N        2.749     0.109    19.365     6.536
     9   6 C        2.892     0.027    27.390     8.581
    10   6 C        2.913    -0.015    28.393     8.738
    11   6 C        2.930    -0.003    28.107     8.694
    12   6 C        2.961     0.049    26.907     8.508
    13   6 C        2.900     0.016    27.644     8.621
    14   6 C        3.759    -0.133    23.111     6.854
    15   1 H        0.925     0.033     2.548     2.496
    16   1 H        0.925     0.043     2.416     2.430
    17   1 H        0.925     0.042     2.427     2.436
    18   1 H        0.924     0.028     2.610     2.527
    19   1 H        0.924     0.040     2.449     2.447
    20   1 H        0.924     0.026     2.648     2.545
    21   1 H        0.924     0.045     2.382     2.414
    22   1 H        0.924     0.018     2.765     2.601
    23   1 H        0.924     0.052     2.299     2.371
    24   1 H        0.924     0.022     2.697     2.568
    25   1 H        0.925     0.066     2.131     2.283
    26   1 H        0.924     0.049     2.326     2.385
    27   1 H        0.925     0.084     1.942     2.180
    28   1 H        0.924     0.086     1.917     2.165
    29   1 H        0.925     0.094     1.838     2.120
    30   1 H        0.926     0.106     1.727     2.055
    31   1 H        0.926     0.102     1.765     2.078
    32   1 H        0.926     0.100     1.785     2.090
    33   1 H        0.926     0.101     1.775     2.084
    34   1 H        0.925     0.097     1.809     2.104
    35   1 H        0.925     0.094     1.838     2.120
    36   1 H        0.925     0.077     2.006     2.215

Wiberg/Mayer (AO) data.
largest (>0.10) Wiberg bond orders for each atom

     #   Z sym  total        # sym  WBO       # sym  WBO       # sym  WBO
 ---------------------------------------------------------------------------
     1   6 C    3.996 --     2 C    1.021    17 H    0.987    16 H    0.986
                            15 H    0.986
     2   6 C    3.997 --     1 C    1.021     3 C    1.008    19 H    0.977
                            18 H    0.976
     3   6 C    3.996 --     2 C    1.008     4 C    1.007    20 H    0.976
                            21 H    0.975
     4   6 C    3.995 --     5 C    1.007     3 C    1.007    23 H    0.973
                            22 H    0.973
     5   6 C    3.993 --     6 C    1.009     4 C    1.007    24 H    0.973
                            25 H    0.967
     6   6 C    3.981 --     5 C    1.009    26 H    0.974     7 C    0.973
                            27 H    0.960
     7   6 C    3.934 --     6 C    0.973     8 N    0.964    28 H    0.963
                            29 H    0.960
     8   7 N    3.766 --     9 C    1.333    13 C    1.320     7 C    0.964
     9   6 C    3.959 --    10 C    1.437     8 N    1.333    30 H    0.953
    10   6 C    3.983 --    11 C    1.451     9 C    1.437    31 H    0.960
    11   6 C    3.975 --    10 C    1.451    12 C    1.366    32 H    0.962
    12   6 C    3.981 --    13 C    1.423    11 C    1.366    14 C    1.046
    13   6 C    3.959 --    12 C    1.423     8 N    1.320    33 H    0.954
    14   6 C    3.983 --    12 C    1.046    36 H    0.980    35 H    0.957
                            34 H    0.948
    15   1 H    0.999 --     1 C    0.986
    16   1 H    0.998 --     1 C    0.986
    17   1 H    0.998 --     1 C    0.987
    18   1 H    0.999 --     2 C    0.976
    19   1 H    0.998 --     2 C    0.977
    20   1 H    0.999 --     3 C    0.976
    21   1 H    0.998 --     3 C    0.975
    22   1 H    1.000 --     4 C    0.973
    23   1 H    0.997 --     4 C    0.973
    24   1 H    0.999 --     5 C    0.973
    25   1 H    0.995 --     5 C    0.967
    26   1 H    0.998 --     6 C    0.974
    27   1 H    0.991 --     6 C    0.960
    28   1 H    0.992 --     7 C    0.963
    29   1 H    0.991 --     7 C    0.960
    30   1 H    0.988 --     9 C    0.953
    31   1 H    0.989 --    10 C    0.960
    32   1 H    0.990 --    11 C    0.962
    33   1 H    0.990 --    13 C    0.954
    34   1 H    0.990 --    14 C    0.948
    35   1 H    0.991 --    14 C    0.957
    36   1 H    0.994 --    14 C    0.980
 ---------------------------------------------------------------------------

molecular dipole:
                 x           y           z       tot (Debye)
 q only:       -4.152      -7.766      -7.868
   full:       -4.130      -7.809      -7.954      30.215

           -------------------------------------------------
          | TOTAL ENERGY              -41.596807756443 Eh   |
          | GRADIENT NORM               0.000686354228 Eh/α |
          | HOMO-LUMO GAP               1.603682779327 eV   |
           -------------------------------------------------

 * finished run on 2024/12/20 at 07:10:12.991
