   * xtb version 6.7.1 (edcfbbe) compiled by 'conda@3ef47c1a292c' on 2024-11-25

   ID    Z sym.   atoms
    1    6 C      1-12, 14-20
    2    7 N      13
    3    1 H      21-54

          program call               : xtb C1065.xyz --opt --namespace C1065 --charge +1
          :  Hamiltonian                  GFN2-xTB          :
 * total energy  :   -60.5777283 Eh     change       -0.1367084E-09 Eh
 * total energy  :   -60.5810225 Eh     change       -0.3294177E-02 Eh
 * total energy  :   -60.5816269 Eh     change       -0.6044511E-03 Eh
 * total energy  :   -60.5817559 Eh     change       -0.1289160E-03 Eh
 * total energy  :   -60.5819207 Eh     change       -0.1648142E-03 Eh
 * total energy  :   -60.5820274 Eh     change       -0.1066841E-03 Eh
 * total energy  :   -60.5821426 Eh     change       -0.1152432E-03 Eh
 * total energy  :   -60.5822200 Eh     change       -0.7736278E-04 Eh
 * total energy  :   -60.5822564 Eh     change       -0.3646930E-04 Eh
 * total energy  :   -60.5823021 Eh     change       -0.4565279E-04 Eh
 * total energy  :   -60.5824076 Eh     change       -0.6671935E-05 Eh
 * total energy  :   -60.5824220 Eh     change       -0.1439491E-04 Eh
 * total energy  :   -60.5824284 Eh     change       -0.6441829E-05 Eh
 * total energy  :   -60.5824401 Eh     change       -0.1169923E-04 Eh
 * total energy  :   -60.5824509 Eh     change       -0.1080291E-04 Eh
 * total energy  :   -60.5824604 Eh     change       -0.9524651E-05 Eh
 * total energy  :   -60.5824706 Eh     change       -0.1011856E-04 Eh
 * total energy  :   -60.5824823 Eh     change       -0.1178205E-04 Eh
 * total energy  :   -60.5824863 Eh     change       -0.4008306E-05 Eh
   *** GEOMETRY OPTIMIZATION CONVERGED AFTER 22 ITERATIONS ***

 final structure:
================
54
 xtb: 6.7.1 (edcfbbe)
C            1.12987402352244       -0.03086977901162        0.46458614343048
C            0.92795028891096        1.47876555788272        0.52066579915616
C            1.33443290683862        2.19117638689540       -0.77030702450892
C            0.54617445529712        1.77501413342046       -2.01386287790650
C           -0.96627874471415        1.98633239590360       -1.92279794453218
C           -1.40401092113378        3.42921096058261       -1.66275596132925
C           -0.94636260951945        4.44440867492926       -2.71244801735699
C           -1.37979977462118        4.13183644448190       -4.14609698164528
C           -2.88941817623416        3.97978092672087       -4.34722265062625
C           -3.71852900885232        5.21109897657525       -3.97258581895580
C           -3.39867669138922        6.47315826684538       -4.77309527551532
C           -3.72925404322696        6.36799489893956       -6.26942606889797
N           -5.16115074526187        6.24968779150917       -6.47189960700219
C           -5.73793500809476        5.04250506259360       -6.52916387883038
C           -7.10253693958348        4.90475801245896       -6.62963234675400
C           -7.92402241522397        6.03440802934500       -6.67287618888373
C           -7.28809558864207        7.27879448990392       -6.62011062278816
C           -5.91994356870230        7.35297182543691       -6.51448034895794
C           -9.39678336172727        5.91413774014447       -6.83117801867294
C           -9.74453625836355        5.77050955135265       -8.32051460206287
H            0.45197995802301       -0.49343062863767       -0.24844224297923
H            0.94308779605268       -0.47144750052619        1.44109888745296
H            2.15084376312549       -0.26727818485895        0.17317134080847
H           -0.11519383423323        1.69821142593988        0.75593901696936
H            1.53462612442846        1.88451913537754        1.33368476397315
H            1.23646235304077        3.26872153649911       -0.62110896135637
H            2.39113406480138        1.98728119420937       -0.96021674417555
H            0.94001674863087        2.32921055341069       -2.86901657547607
H            0.72759503137172        0.71700479266423       -2.21120215085295
H           -1.41747241399476        1.62957384977862       -2.85204187884734
H           -1.36502109716034        1.36421414402774       -1.11970650566897
H           -2.49426535359021        3.44884429862559       -1.58599124142085
H           -1.01446940455462        3.74940298971964       -0.69531569825186
H           -1.31758468376715        5.43063567118845       -2.42259918346530
H            0.14287667137394        4.50142982956444       -2.69969248868865
H           -0.99612596257139        4.91667377465413       -4.80296824298879
H           -0.90837166926298        3.20024655026793       -4.46166949687983
H           -3.06452922873725        3.70486152346149       -5.39147946279468
H           -3.24257329023297        3.14574966505320       -3.74020771454373
H           -4.78188538749917        4.96940032940072       -4.07247798306488
H           -3.54710526513030        5.43596892243979       -2.92012515887719
H           -3.94874474484014        7.31579208203835       -4.34788635452002
H           -2.33622785050383        6.69667975377287       -4.68721198317106
H           -3.37463373497326        7.26235829428801       -6.78493325850800
H           -3.23369607359207        5.49740328559819       -6.69962894344643
H           -5.08724663704039        4.18156729707140       -6.50029203427590
H           -7.53301437840519        3.91658676181917       -6.67127057309050
H           -7.86697596140060        8.18814353249071       -6.65742649138359
H           -5.40879143745073        8.30305475800333       -6.46415105687811
H           -9.75892238960215        5.03430973610292       -6.29824364005484
H           -9.89349952042182        6.79875462511562       -6.43280051246059
H           -9.26972947875647        4.88966576652536       -8.74490324913631
H          -10.81973417246904        5.67075144281547       -8.43164411670118
H           -9.41903635993493        6.64508844520526       -8.87774777260434

          :  Hamiltonian                  GFN2-xTB          :
         :: total energy             -60.582486350415 Eh    ::
         :: gradient norm              0.000212627541 Eh/a0 ::
         :: HOMO-LUMO gap              0.713568991243 eV    ::
         :: SCC energy               -61.537183489474 Eh    ::
         :: -> dispersion             -0.045459892904 Eh    ::
         :: repulsion energy           0.954697139058 Eh    ::

    * Orbital Energies and Occupations

         #    Occupation            Energy/Eh            Energy/eV
      -------------------------------------------------------------
         1        2.0000           -0.8669446             -23.5908
       ...           ...                  ...                  ...
        45        2.0000           -0.5459973             -14.8573
        46        2.0000           -0.5402552             -14.7011
        47        2.0000           -0.5328232             -14.4989
        48        2.0000           -0.5304637             -14.4347
        49        2.0000           -0.5189584             -14.1216
        50        2.0000           -0.5152767             -14.0214
        51        2.0000           -0.5077396             -13.8163
        52        2.0000           -0.4978730             -13.5478
        53        2.0000           -0.4939367             -13.4407
        54        2.0000           -0.4902538             -13.3405
        55        2.0000           -0.4750169             -12.9259
        56        2.0000           -0.4714250             -12.8281
        57        2.0000           -0.4690942             -12.7647 (HOMO)
        58        0.0000           -0.4428710             -12.0511 (LUMO)
        59                         -0.4146464             -11.2831
        60                         -0.2967433              -8.0748
        61                         -0.1587084              -4.3187
        62                         -0.0774264              -2.1069
        63                         -0.0582771              -1.5858
        64                         -0.0449140              -1.2222
        65                         -0.0329566              -0.8968
        66                         -0.0253532              -0.6899
        67                         -0.0188769              -0.5137
        68                         -0.0101487              -0.2762
       ...                                ...                  ...
       114                          0.4484117              12.2019
      -------------------------------------------------------------
                  HL-Gap            0.0262232 Eh            0.7136 eV

     #   Z          covCN         q      C6AA      α(0)
     1   6 C        3.751    -0.103    22.520     6.768
     2   6 C        3.799    -0.053    21.519     6.605
     3   6 C        3.800    -0.058    21.617     6.620
     4   6 C        3.800    -0.058    21.615     6.619
     5   6 C        3.800    -0.057    21.605     6.618
     6   6 C        3.800    -0.058    21.626     6.621
     7   6 C        3.800    -0.060    21.656     6.626
     8   6 C        3.800    -0.061    21.674     6.629
     9   6 C        3.800    -0.061    21.670     6.628
    10   6 C        3.800    -0.065    21.752     6.640
    11   6 C        3.801    -0.068    21.809     6.649
    12   6 C        3.758    -0.033    21.220     6.568
    13   7 N        2.750     0.099    19.527     6.563
    14   6 C        2.890     0.031    27.313     8.568
    15   6 C        2.921    -0.026    28.660     8.779
    16   6 C        2.976     0.066    26.524     8.448
    17   6 C        2.920    -0.026    28.645     8.777
    18   6 C        2.891     0.029    27.345     8.573
    19   6 C        3.807    -0.069    21.816     6.649
    20   6 C        3.755    -0.107    22.610     6.780
    21   1 H        0.925     0.033     2.544     2.494
    22   1 H        0.925     0.034     2.529     2.487
    23   1 H        0.925     0.036     2.504     2.475
    24   1 H        0.924     0.029     2.602     2.522
    25   1 H        0.924     0.030     2.588     2.516
    26   1 H        0.924     0.027     2.627     2.535
    27   1 H        0.924     0.032     2.557     2.500
    28   1 H        0.924     0.026     2.643     2.542
    29   1 H        0.924     0.036     2.509     2.477
    30   1 H        0.924     0.023     2.689     2.565
    31   1 H        0.924     0.036     2.496     2.471
    32   1 H        0.924     0.022     2.699     2.569
    33   1 H        0.924     0.040     2.453     2.449
    34   1 H        0.924     0.024     2.667     2.554
    35   1 H        0.924     0.043     2.412     2.429
    36   1 H        0.924     0.024     2.667     2.554
    37   1 H        0.924     0.046     2.370     2.408
    38   1 H        0.924     0.016     2.801     2.617
    39   1 H        0.924     0.051     2.313     2.378
    40   1 H        0.924     0.022     2.710     2.574
    41   1 H        0.925     0.065     2.137     2.286
    42   1 H        0.924     0.049     2.332     2.388
    43   1 H        0.925     0.082     1.962     2.191
    44   1 H        0.924     0.084     1.937     2.176
    45   1 H        0.924     0.093     1.852     2.128
    46   1 H        0.926     0.105     1.736     2.060
    47   1 H        0.926     0.098     1.800     2.098
    48   1 H        0.926     0.099     1.798     2.097
    49   1 H        0.926     0.102     1.771     2.081
    50   1 H        0.924     0.077     2.013     2.219
    51   1 H        0.925     0.074     2.042     2.235
    52   1 H        0.925     0.053     2.280     2.361
    53   1 H        0.925     0.075     2.035     2.231
    54   1 H        0.925     0.053     2.277     2.360

Wiberg/Mayer (AO) data.
largest (>0.10) Wiberg bond orders for each atom

     #   Z sym  total        # sym  WBO       # sym  WBO       # sym  WBO
 ---------------------------------------------------------------------------
     1   6 C    3.997 --     2 C    1.020    23 H    0.987    22 H    0.987
                            21 H    0.986
     2   6 C    3.998 --     1 C    1.020     3 C    1.008    25 H    0.978
                            24 H    0.976
     3   6 C    3.997 --     2 C    1.008     4 C    1.008    27 H    0.977
                            26 H    0.976
     4   6 C    3.997 --     5 C    1.008     3 C    1.008    28 H    0.975
                            29 H    0.975
     5   6 C    3.997 --     4 C    1.008     6 C    1.008    30 H    0.975
                            31 H    0.974
     6   6 C    3.997 --     5 C    1.008     7 C    1.007    32 H    0.976
                            33 H    0.974
     7   6 C    3.996 --     8 C    1.007     6 C    1.007    34 H    0.976
                            35 H    0.974
     8   6 C    3.995 --     7 C    1.007     9 C    1.007    36 H    0.975
                            37 H    0.973
     9   6 C    3.995 --     8 C    1.007    10 C    1.007    39 H    0.972
                            38 H    0.972
    10   6 C    3.993 --    11 C    1.009     9 C    1.007    40 H    0.972
                            41 H    0.966
    11   6 C    3.981 --    10 C    1.009    12 C    0.974    42 H    0.974
                            43 H    0.961
    12   6 C    3.935 --    11 C    0.974    13 N    0.965    44 H    0.964
                            45 H    0.960
    13   7 N    3.755 --    14 C    1.311    18 C    1.310    12 C    0.965
    14   6 C    3.958 --    15 C    1.484    13 N    1.311    46 H    0.952
    15   6 C    3.984 --    14 C    1.484    16 C    1.370    47 H    0.959
    16   6 C    3.966 --    15 C    1.370    17 C    1.363    19 C    1.041
    17   6 C    3.984 --    18 C    1.492    16 C    1.363    48 H    0.959
    18   6 C    3.960 --    17 C    1.492    13 N    1.310    49 H    0.955
    19   6 C    3.987 --    16 C    1.041    20 C    0.971    51 H    0.967
                            50 H    0.961
    20   6 C    3.984 --    54 H    0.987    52 H    0.987    53 H    0.978
                            19 C    0.971
    21   1 H    0.999 --     1 C    0.986
    22   1 H    0.999 --     1 C    0.987
    23   1 H    0.999 --     1 C    0.987
    24   1 H    0.999 --     2 C    0.976
    25   1 H    0.999 --     2 C    0.978
    26   1 H    0.999 --     3 C    0.976
    27   1 H    0.999 --     3 C    0.977
    28   1 H    0.999 --     4 C    0.975
    29   1 H    0.999 --     4 C    0.975
    30   1 H    0.999 --     5 C    0.975
    31   1 H    0.999 --     5 C    0.974
    32   1 H    0.999 --     6 C    0.976
    33   1 H    0.998 --     6 C    0.974
    34   1 H    0.999 --     7 C    0.976
    35   1 H    0.998 --     7 C    0.974
    36   1 H    0.999 --     8 C    0.975
    37   1 H    0.998 --     8 C    0.973
    38   1 H    1.000 --     9 C    0.972
    39   1 H    0.997 --     9 C    0.972
    40   1 H    0.999 --    10 C    0.972
    41   1 H    0.995 --    10 C    0.966
    42   1 H    0.998 --    11 C    0.974
    43   1 H    0.992 --    11 C    0.961
    44   1 H    0.992 --    12 C    0.964
    45   1 H    0.991 --    12 C    0.960
    46   1 H    0.989 --    14 C    0.952
    47   1 H    0.990 --    15 C    0.959
    48   1 H    0.990 --    17 C    0.959
    49   1 H    0.989 --    18 C    0.955
    50   1 H    0.993 --    19 C    0.961
    51   1 H    0.994 --    19 C    0.967
    52   1 H    0.997 --    20 C    0.987
    53   1 H    0.992 --    20 C    0.978
    54   1 H    0.997 --    20 C    0.987
 ---------------------------------------------------------------------------

molecular dipole:
                 x           y           z       tot (Debye)
 q only:      -11.111      11.318     -11.864
   full:      -11.076      11.387     -11.927      50.491

           -------------------------------------------------
          | TOTAL ENERGY              -60.582486350415 Eh   |
          | GRADIENT NORM               0.000212627541 Eh/α |
          | HOMO-LUMO GAP               0.713568991243 eV   |
           -------------------------------------------------

 * finished run on 2024/12/20 at 07:10:10.937
