   * xtb version 6.7.1 (edcfbbe) compiled by 'conda@3ef47c1a292c' on 2024-11-25

   ID    Z sym.   atoms
    1    6 C      1-10, 12, 13, 15, 16, 18-30
    2    8 O      11, 14
    3    7 N      17
    4    1 H      31-72

          program call               : xtb C1070.xyz --opt --namespace C1070 --charge +1
          :  Hamiltonian                  GFN2-xTB          :
 * total energy  :   -89.8730877 Eh     change       -0.3176012E-08 Eh
 * total energy  :   -89.8853042 Eh     change       -0.1221655E-01 Eh
 * total energy  :   -89.8890259 Eh     change       -0.3721686E-02 Eh
 * total energy  :   -89.8898422 Eh     change       -0.8162418E-03 Eh
 * total energy  :   -89.8905521 Eh     change       -0.7099271E-03 Eh
 * total energy  :   -89.8909180 Eh     change       -0.3659468E-03 Eh
 * total energy  :   -89.8912398 Eh     change       -0.3218133E-03 Eh
 * total energy  :   -89.8915222 Eh     change       -0.2823794E-03 Eh
 * total energy  :   -89.8917253 Eh     change       -0.2031006E-03 Eh
 * total energy  :   -89.8918851 Eh     change       -0.1597393E-03 Eh
 * total energy  :   -89.9002710 Eh     change       -0.1251536E-04 Eh
 * total energy  :   -89.9002838 Eh     change       -0.1276817E-04 Eh
 * total energy  :   -89.9002982 Eh     change       -0.1440819E-04 Eh
 * total energy  :   -89.9003161 Eh     change       -0.1787780E-04 Eh
 * total energy  :   -89.9003380 Eh     change       -0.2190432E-04 Eh
 * total energy  :   -89.9003617 Eh     change       -0.2372548E-04 Eh
 * total energy  :   -89.9003820 Eh     change       -0.2030508E-04 Eh
 * total energy  :   -89.9003876 Eh     change       -0.5538530E-05 Eh
 * total energy  :   -89.9003918 Eh     change       -0.4238879E-05 Eh
   *** GEOMETRY OPTIMIZATION CONVERGED AFTER 153 ITERATIONS ***

 final structure:
================
72
 xtb: 6.7.1 (edcfbbe)
C            3.68339134369945        0.00763575543281        1.53431852444144
C            2.45324342191393       -0.90078602845030        1.62441047211513
C            2.22060153484756       -1.42189481100662        3.06162994241455
C            1.50474419953857       -0.56509016296506        4.13308903102785
C            0.03992662993633       -0.33670282551712        3.80097714278853
C           -0.55547209689074        0.92054013271742        3.84221422077302
C           -1.89601020758358        1.09315033199878        3.56219781996831
C           -2.69594900900916        0.00404107469321        3.23829142300585
C           -2.12989281571584       -1.26027855583283        3.21078215833725
C           -0.78432538859209       -1.41450325174336        3.49627731369416
O           -4.01596406336497        0.29041746746983        2.95703090352834
C           -4.89413166944403       -0.77846328506915        2.68139807837884
C           -6.31260016402519       -0.22002408286874        2.55044302855494
O           -6.56957994056140        0.41168895243704        1.31013700166795
C           -5.91335798027139        1.65297983481849        1.14062729592275
C           -5.97980029610036        2.05464039966472       -0.32993730385548
N           -7.28282808294783        2.60370087541106       -0.80575772656415
C           -7.55497143657445        3.96050745017289       -0.21892166191171
C           -6.51715834461566        5.00134290640382       -0.55205825439574
C           -5.41624893901989        5.19508570917186        0.27741425138883
C           -4.47205541090157        6.16068268254708       -0.02500978007547
C           -4.61925481564175        6.94750560648718       -1.15498680137170
C           -5.72167118729550        6.77546451628996       -1.97522826442757
C           -6.66649122408051        5.81006647688209       -1.67491962921051
C           -7.21970994418250        2.70812690953368       -2.27501491059084
C           -8.39039549098819        1.70072023685801       -0.44695922071069
C            1.53744084788020       -1.37547420222589        5.44458265216858
C            2.25779614539204        0.73985190223703        4.39974234852805
C            1.24103724337572       -0.17141015460756        1.04500013684725
C            2.73004040148764       -2.13579343778571        0.75344925575310
H            3.53087962719872        0.95192024939227        2.04514107985719
H            3.90502261665731        0.22607158783893        0.49148132991358
H            4.55313527982157       -0.48112019291112        1.96688997894053
H            1.66386756090824       -2.35608895636043        2.97489645262696
H            3.20015662209776       -1.68332569309477        3.46898147947171
H            0.02117273530942        1.79443182702379        4.09568665975571
H           -2.34378428953957        2.07460547616486        3.59829407571661
H           -2.71741888986660       -2.13363215937657        2.97359111212060
H           -0.38214310537671       -2.41530210726087        3.47282419523904
H           -4.61039574627887       -1.28432542085333        1.74815398011788
H           -4.88170652704794       -1.50730589274930        3.50100784521344
H           -7.02837000363289       -1.04196297967114        2.59656784368841
H           -6.49963265262876        0.47644671889952        3.37732106169617
H           -6.36031403863024        2.40609696206022        1.80620056670364
H           -4.85577888799626        1.56095421959679        1.41367287223875
H           -5.21309942732213        2.80270971922520       -0.53713108980533
H           -5.76737714257664        1.15537970745984       -0.91165665536074
H           -8.52886644353995        4.28250090814775       -0.59388825264614
H           -7.62744132893215        3.84602284865000        0.86337424990302
H           -5.30185245456491        4.60425545717126        1.17442839988537
H           -3.62567317802994        6.30275471456217        0.62816129949425
H           -3.88469681084407        7.70174269620744       -1.38793457451429
H           -5.85192476921310        7.39791407925767       -2.84629009965648
H           -7.53385152816607        5.70213262222638       -2.30971913022752
H           -7.07853365523152        1.72226623582756       -2.71389915009825
H           -8.14747771578124        3.12859233599925       -2.65869835024252
H           -6.39269400976423        3.35063488296655       -2.57168988758575
H           -8.18327515485826        0.69831984073415       -0.81538400433377
H           -8.50110012981389        1.63869454382229        0.63206645971099
H           -9.32084589570063        2.06008173116469       -0.88251913837950
H            2.56311210228698       -1.50553128728217        5.78117475776092
H            0.98473215117395       -0.85278813701664        6.22239426893191
H            1.09341561210976       -2.35875369557826        5.31540995421617
H            3.31310977861798        0.52537804069106        4.54664016401946
H            2.16208703601431        1.44128841919388        3.57688285705794
H            1.88491636149414        1.21482589843976        5.30506870656562
H            1.43341793999525        0.08574359054211        0.00483798066864
H            0.35503529699359       -0.80046969758203        1.08398136162766
H            1.03176075878005        0.74573321584886        1.58769328440448
H            2.97103632451098       -1.83899913354871       -0.26469694656645
H            3.56947473271095       -2.70262767181451        1.14897126445551
H            1.86060798707636       -2.78895392693732        0.71860228888209

          :  Hamiltonian                  GFN2-xTB          :
         :: total energy             -89.900391807100 Eh    ::
         :: gradient norm              0.000470675235 Eh/a0 ::
         :: HOMO-LUMO gap              2.317448176621 eV    ::
         :: SCC energy               -91.246724208506 Eh    ::
         :: -> dispersion             -0.071960206303 Eh    ::
         :: repulsion energy           1.346332401406 Eh    ::

    * Orbital Energies and Occupations

         #    Occupation            Energy/Eh            Energy/eV
      -------------------------------------------------------------
         1        2.0000           -0.8531824             -23.2163
       ...           ...                  ...                  ...
        71        2.0000           -0.5076514             -13.8139
        72        2.0000           -0.5067742             -13.7900
        73        2.0000           -0.4997307             -13.5984
        74        2.0000           -0.4984708             -13.5641
        75        2.0000           -0.4961466             -13.5008
        76        2.0000           -0.4920044             -13.3881
        77        2.0000           -0.4797504             -13.0547
        78        2.0000           -0.4778095             -13.0019
        79        2.0000           -0.4719597             -12.8427
        80        2.0000           -0.4684480             -12.7471
        81        2.0000           -0.4671347             -12.7114
        82        2.0000           -0.4634438             -12.6109
        83        2.0000           -0.4403133             -11.9815 (HOMO)
        84                         -0.3551487              -9.6641 (LUMO)
        85                         -0.3446240              -9.3777
        86                         -0.2868093              -7.8045
        87                         -0.2780217              -7.5654
        88                         -0.2314769              -6.2988
        89                         -0.2021247              -5.5001
        90                         -0.1552317              -4.2241
        91                         -0.1467768              -3.9940
        92                         -0.1373052              -3.7363
        93                         -0.1298785              -3.5342
        94                         -0.1083128              -2.9473
       ...                                ...                  ...
       162                          0.5986156              16.2892
      -------------------------------------------------------------
                  HL-Gap            0.0851647 Eh            2.3174 eV

     #   Z          covCN         q      C6AA      α(0)
     1   6 C        3.761    -0.112    22.691     6.791
     2   6 C        3.896     0.031    19.998     6.357
     3   6 C        3.813    -0.076    21.938     6.667
     4   6 C        3.901     0.024    20.122     6.376
     5   6 C        2.972     0.012    27.748     8.641
     6   6 C        2.927    -0.038    28.936     8.822
     7   6 C        2.920    -0.058    29.442     8.898
     8   6 C        2.863     0.130    25.154     8.221
     9   6 C        2.916    -0.068    29.688     8.935
    10   6 C        2.931    -0.033    28.834     8.806
    11   8 O        1.705    -0.305    19.072     5.896
    12   6 C        3.689     0.073    19.540     6.327
    13   6 C        3.695     0.065    19.655     6.342
    14   8 O        1.700    -0.321    19.360     5.941
    15   6 C        3.694     0.068    19.607     6.335
    16   6 C        3.761    -0.043    21.390     6.593
    17   7 N        3.621     0.132    18.992     6.473
    18   6 C        3.764    -0.042    21.374     6.590
    19   6 C        2.967    -0.008    28.209     8.712
    20   6 C        2.923    -0.040    28.984     8.829
    21   6 C        2.919    -0.022    28.560     8.764
    22   6 C        2.920    -0.018    28.467     8.749
    23   6 C        2.919    -0.022    28.562     8.764
    24   6 C        2.923    -0.039    28.964     8.826
    25   6 C        3.726    -0.094    22.397     6.757
    26   6 C        3.721    -0.096    22.458     6.768
    27   6 C        3.768    -0.108    22.599     6.775
    28   6 C        3.760    -0.108    22.608     6.778
    29   6 C        3.760    -0.106    22.579     6.774
    30   6 C        3.766    -0.111    22.657     6.784
    31   1 H        0.925     0.039     2.459     2.452
    32   1 H        0.925     0.034     2.524     2.484
    33   1 H        0.925     0.036     2.502     2.474
    34   1 H        0.924     0.038     2.472     2.459
    35   1 H        0.924     0.042     2.421     2.433
    36   1 H        0.926     0.047     2.362     2.404
    37   1 H        0.926     0.035     2.515     2.480
    38   1 H        0.926     0.029     2.600     2.522
    39   1 H        0.926     0.041     2.435     2.440
    40   1 H        0.923     0.042     2.418     2.432
    41   1 H        0.924     0.045     2.377     2.411
    42   1 H        0.924     0.069     2.096     2.264
    43   1 H        0.924     0.049     2.328     2.386
    44   1 H        0.923     0.039     2.456     2.451
    45   1 H        0.924     0.089     1.888     2.149
    46   1 H        0.924     0.092     1.861     2.133
    47   1 H        0.924     0.102     1.769     2.080
    48   1 H        0.924     0.085     1.927     2.171
    49   1 H        0.924     0.085     1.923     2.169
    50   1 H        0.926     0.040     2.451     2.448
    51   1 H        0.926     0.059     2.214     2.327
    52   1 H        0.926     0.062     2.175     2.306
    53   1 H        0.926     0.059     2.211     2.325
    54   1 H        0.926     0.042     2.427     2.436
    55   1 H        0.925     0.096     1.821     2.110
    56   1 H        0.925     0.097     1.809     2.103
    57   1 H        0.925     0.099     1.794     2.095
    58   1 H        0.925     0.106     1.729     2.056
    59   1 H        0.925     0.111     1.688     2.032
    60   1 H        0.925     0.091     1.866     2.136
    61   1 H        0.925     0.044     2.399     2.422
    62   1 H        0.925     0.036     2.508     2.476
    63   1 H        0.925     0.036     2.496     2.471
    64   1 H        0.925     0.045     2.385     2.415
    65   1 H        0.925     0.036     2.501     2.473
    66   1 H        0.925     0.036     2.502     2.474
    67   1 H        0.925     0.033     2.541     2.493
    68   1 H        0.925     0.028     2.618     2.530
    69   1 H        0.925     0.032     2.562     2.503
    70   1 H        0.925     0.036     2.500     2.473
    71   1 H        0.925     0.038     2.482     2.464
    72   1 H        0.925     0.030     2.586     2.515

Wiberg/Mayer (AO) data.
largest (>0.10) Wiberg bond orders for each atom

     #   Z sym  total        # sym  WBO       # sym  WBO       # sym  WBO
 ---------------------------------------------------------------------------
     1   6 C    3.996 --     2 C    1.000    33 H    0.985    32 H    0.985
                            31 H    0.980
     2   6 C    3.991 --    29 C    1.000     1 C    1.000    30 C    0.995
                             3 C    0.983
     3   6 C    3.991 --     2 C    0.983     4 C    0.974    35 H    0.972
                            34 H    0.969
     4   6 C    3.990 --    28 C    1.001     5 C    0.988    27 C    0.978
                             3 C    0.974
     5   6 C    3.986 --    10 C    1.410     6 C    1.399     4 C    0.988
     6   6 C    3.990 --     7 C    1.458     5 C    1.399    36 H    0.964
                             9 C    0.103
     7   6 C    3.987 --     6 C    1.458     8 C    1.367    37 H    0.969
                            10 C    0.110
     8   6 C    3.922 --     9 C    1.385     7 C    1.367    11 O    1.010
     9   6 C    3.988 --    10 C    1.441     8 C    1.385    38 H    0.966
                             6 C    0.103
    10   6 C    3.991 --     9 C    1.441     5 C    1.410    39 H    0.963
                             7 C    0.110
    11   8 O    2.183 --     8 C    1.010    12 C    0.980
    12   6 C    3.956 --    13 C    0.993    11 O    0.980    40 H    0.966
                            41 H    0.965
    13   6 C    3.946 --    12 C    0.993    14 O    0.975    42 H    0.967
                            43 H    0.967
    14   8 O    2.067 --    15 C    0.988    13 C    0.975
    15   6 C    3.953 --    16 C    1.006    14 O    0.988    44 H    0.957
                            45 H    0.949
    16   6 C    3.937 --    15 C    1.006    47 H    0.962    46 H    0.961
                            17 N    0.933
    17   7 N    3.810 --    25 C    0.960    26 C    0.957    16 C    0.933
                            18 C    0.912
    18   6 C    3.929 --    19 C    1.005    48 H    0.965    49 H    0.961
                            17 N    0.912
    19   6 C    3.979 --    24 C    1.408    20 C    1.407    18 C    1.005
                            22 C    0.109
    20   6 C    3.991 --    21 C    1.444    19 C    1.407    50 H    0.967
                            23 C    0.109
    21   6 C    3.990 --    20 C    1.444    22 C    1.438    51 H    0.969
                            24 C    0.109
    22   6 C    3.988 --    21 C    1.438    23 C    1.438    52 H    0.969
                            19 C    0.109
    23   6 C    3.990 --    24 C    1.445    22 C    1.438    53 H    0.969
                            20 C    0.109
    24   6 C    3.991 --    23 C    1.445    19 C    1.408    54 H    0.968
                            21 C    0.109
    25   6 C    3.929 --    55 H    0.975    56 H    0.974    57 H    0.972
                            17 N    0.960
    26   6 C    3.922 --    60 H    0.976    58 H    0.972    59 H    0.970
                            17 N    0.957
    27   6 C    3.993 --    62 H    0.986    63 H    0.984    61 H    0.983
                             4 C    0.978
    28   6 C    3.996 --     4 C    1.001    66 H    0.983    64 H    0.983
                            65 H    0.978
    29   6 C    3.997 --     2 C    1.000    67 H    0.985    68 H    0.985
                            69 H    0.982
    30   6 C    3.995 --     2 C    0.995    71 H    0.986    72 H    0.986
                            70 H    0.985
    31   1 H    0.998 --     1 C    0.980
    32   1 H    0.999 --     1 C    0.985
    33   1 H    0.999 --     1 C    0.985
    34   1 H    0.999 --     3 C    0.969
    35   1 H    0.998 --     3 C    0.972
    36   1 H    0.997 --     6 C    0.964
    37   1 H    0.998 --     7 C    0.969
    38   1 H    0.999 --     9 C    0.966
    39   1 H    0.998 --    10 C    0.963
    40   1 H    0.998 --    12 C    0.966
    41   1 H    0.998 --    12 C    0.965
    42   1 H    0.995 --    13 C    0.967
    43   1 H    0.998 --    13 C    0.967
    44   1 H    0.998 --    15 C    0.957
    45   1 H    0.992 --    15 C    0.949
    46   1 H    0.992 --    16 C    0.961
    47   1 H    0.990 --    16 C    0.962
    48   1 H    0.993 --    18 C    0.965
    49   1 H    0.992 --    18 C    0.961
    50   1 H    0.998 --    20 C    0.967
    51   1 H    0.996 --    21 C    0.969
    52   1 H    0.996 --    22 C    0.969
    53   1 H    0.996 --    23 C    0.969
    54   1 H    0.998 --    24 C    0.968
    55   1 H    0.991 --    25 C    0.975
    56   1 H    0.990 --    25 C    0.974
    57   1 H    0.990 --    25 C    0.972
    58   1 H    0.988 --    26 C    0.972
    59   1 H    0.988 --    26 C    0.970
    60   1 H    0.992 --    26 C    0.976
    61   1 H    0.997 --    27 C    0.983
    62   1 H    0.998 --    27 C    0.986
    63   1 H    0.999 --    27 C    0.984
    64   1 H    0.998 --    28 C    0.983
    65   1 H    0.999 --    28 C    0.978
    66   1 H    0.998 --    28 C    0.983
    67   1 H    0.999 --    29 C    0.985
    68   1 H    0.999 --    29 C    0.985
    69   1 H    0.999 --    29 C    0.982
    70   1 H    0.998 --    30 C    0.985
    71   1 H    0.999 --    30 C    0.986
    72   1 H    0.999 --    30 C    0.986
 ---------------------------------------------------------------------------

molecular dipole:
                 x           y           z       tot (Debye)
 q only:      -12.062       5.027      -0.933
   full:      -12.163       4.878      -0.796      33.371

           -------------------------------------------------
          | TOTAL ENERGY              -89.900391807100 Eh   |
          | GRADIENT NORM               0.000470675235 Eh/α |
          | HOMO-LUMO GAP               2.317448176621 eV   |
           -------------------------------------------------

 * finished run on 2024/12/20 at 07:10:29.186
