   * xtb version 6.7.1 (edcfbbe) compiled by 'conda@3ef47c1a292c' on 2024-11-25

   ID    Z sym.   atoms
    1    7 N      1, 6, 9
    2    6 C      2, 4, 5, 7, 8, 10-17, 19-24
    3    8 O      3, 18
    4    1 H      25-44

          program call               : xtb C1075.xyz --opt --namespace C1075 --charge +1
          :  Hamiltonian                  GFN2-xTB          :
 * total energy  :   -67.4262530 Eh     change       -0.8749907E-09 Eh
 * total energy  :   -67.4351412 Eh     change       -0.8888184E-02 Eh
 * total energy  :   -67.4372569 Eh     change       -0.2115676E-02 Eh
 * total energy  :   -67.4376954 Eh     change       -0.4385379E-03 Eh
 * total energy  :   -67.4381415 Eh     change       -0.4460707E-03 Eh
 * total energy  :   -67.4384236 Eh     change       -0.2821175E-03 Eh
 * total energy  :   -67.4388174 Eh     change       -0.3938043E-03 Eh
 * total energy  :   -67.4392194 Eh     change       -0.4019870E-03 Eh
 * total energy  :   -67.4395455 Eh     change       -0.3260404E-03 Eh
 * total energy  :   -67.4398086 Eh     change       -0.2631504E-03 Eh
 * total energy  :   -67.4418320 Eh     change       -0.6612962E-04 Eh
 * total energy  :   -67.4418387 Eh     change       -0.6736700E-05 Eh
 * total energy  :   -67.4418856 Eh     change       -0.4693287E-04 Eh
 * total energy  :   -67.4419126 Eh     change       -0.2693090E-04 Eh
 * total energy  :   -67.4419428 Eh     change       -0.3024888E-04 Eh
 * total energy  :   -67.4419544 Eh     change       -0.1154705E-04 Eh
 * total energy  :   -67.4419622 Eh     change       -0.7785917E-05 Eh
 * total energy  :   -67.4419662 Eh     change       -0.4042632E-05 Eh
 * total energy  :   -67.4419696 Eh     change       -0.3379779E-05 Eh
   *** GEOMETRY OPTIMIZATION CONVERGED AFTER 35 ITERATIONS ***

 final structure:
================
44
 xtb: 6.7.1 (edcfbbe)
N           -0.57773586981427        1.45649608927814       -0.87685324881165
C            0.23988745667179        0.98865731773799        0.07737473247417
O            0.49736959785688       -0.18921838179317        0.20898982454681
C            0.84512137555634        2.07238045402131        0.96949293999527
C            1.50808829348006        1.50222259485994        2.22998474912018
N            2.56554580924131        0.56683151787456        1.92187365501056
C            2.54153451068499       -0.76181650925383        2.09485598452445
C            1.43169055488408       -1.50485844639843        2.71373636052351
N            3.66171671753527       -1.30264772982661        1.59693443647876
C            4.43700924040686       -0.29136769480013        1.05681596640717
C            3.74192643313620        0.90762043858432        1.28422412472646
C            4.27162216571367        2.13256220201037        0.89899224010373
C            5.49124819760197        2.11647631835276        0.25311521826648
C            6.16304210116764        0.92184420625732       -0.01019979293174
C            5.65426460974243       -0.29846790402530        0.38671584233908
C            3.99420563725566       -2.70797097688627        1.57229263107334
C            4.13661197251233       -3.33429480106193        2.98670562977494
O            3.20159143446266       -3.95994549393943        3.43028215146061
C            5.40083671226691       -3.17174433792143        3.70902793246921
C            6.38013986541072       -2.23383765257714        3.37198850253894
C            7.54042344773944       -2.14917817263423        4.11673598000238
C            7.74762689635310       -2.99801094469088        5.19452644142466
C            6.78023190680949       -3.92912897033234        5.54125467300990
C            5.61344809055612       -4.01154421476979        4.80967019235339
H           -1.00387314305472        0.80280731941971       -1.51461135218989
H           -0.79679223097479        2.43140804737055       -0.98045694163765
H            1.57226952107015        2.62212959995277        0.36857089873340
H            0.06445943267100        2.76785583245459        1.27844853484611
H            1.93295221979409        2.32194124277169        2.81695301726609
H            0.75773256593871        0.98866240221200        2.83087815038040
H            1.15788608284644       -1.06999647236420        3.67354598855656
H            0.56831098130089       -1.44576529496763        2.04788349873266
H            1.68059212806539       -2.54934183520617        2.87041312084591
H            3.76380461397189        3.06147904207604        1.10035359163170
H            5.93473778585598        3.04727647004345       -0.06224021724945
H            7.10465800175364        0.95447425778033       -0.53431481785183
H            6.18688084998749       -1.21063402075402        0.16891943993413
H            3.19459333800644       -3.25714343636097        1.06410696559307
H            4.92140649942132       -2.83707037178640        1.01498338933271
H            6.23762867928049       -1.55128594056894        2.54955457296269
H            8.29104346497472       -1.41886775869063        3.85545632041083
H            8.66198870455110       -2.93030723242753        5.76351960992963
H            6.93720383125168       -4.58796489662472        6.38095096273027
H            4.84807951605969       -4.72983586238822        5.06197810016488

          :  Hamiltonian                  GFN2-xTB          :
         :: total energy             -67.441969584601 Eh    ::
         :: gradient norm              0.000572416018 Eh/a0 ::
         :: HOMO-LUMO gap              3.036421390972 eV    ::
         :: SCC energy               -68.490265433181 Eh    ::
         :: -> dispersion             -0.048635537716 Eh    ::
         :: repulsion energy           1.048295848579 Eh    ::

    * Orbital Energies and Occupations

         #    Occupation            Energy/Eh            Energy/eV
      -------------------------------------------------------------
         1        2.0000           -0.8588284             -23.3699
       ...           ...                  ...                  ...
        49        2.0000           -0.5835241             -15.8785
        50        2.0000           -0.5820333             -15.8379
        51        2.0000           -0.5709017             -15.5350
        52        2.0000           -0.5630950             -15.3226
        53        2.0000           -0.5433662             -14.7857
        54        2.0000           -0.5380521             -14.6411
        55        2.0000           -0.5340725             -14.5329
        56        2.0000           -0.5330015             -14.5037
        57        2.0000           -0.5271782             -14.3452
        58        2.0000           -0.5181011             -14.0982
        59        2.0000           -0.5172688             -14.0756
        60        2.0000           -0.5146408             -14.0041
        61        2.0000           -0.5096959             -13.8695 (HOMO)
        62                         -0.3981095             -10.8331 (LUMO)
        63                         -0.3926507             -10.6846
        64                         -0.3509238              -9.5491
        65                         -0.3414575              -9.2915
        66                         -0.3316095              -9.0236
        67                         -0.3246651              -8.8346
        68                         -0.3064440              -8.3388
        69                         -0.2264866              -6.1630
        70                         -0.1965095              -5.3473
        71                         -0.1617151              -4.4005
        72                         -0.1170812              -3.1859
       ...                                ...                  ...
       116                          0.5582028              15.1895
      -------------------------------------------------------------
                  HL-Gap            0.1115864 Eh            3.0364 eV

     #   Z          covCN         q      C6AA      α(0)
     1   7 N        2.639    -0.257    26.669     7.670
     2   6 C        2.742     0.287    22.131     7.703
     3   8 O        0.859    -0.447    22.644     6.380
     4   6 C        3.805    -0.102    22.444     6.744
     5   6 C        3.741    -0.008    20.803     6.507
     6   7 N        2.832     0.015    20.986     6.804
     7   6 C        3.066     0.141    24.871     8.178
     8   6 C        3.755    -0.148    23.421     6.901
     9   7 N        2.830     0.013    21.023     6.810
    10   6 C        3.092     0.039    27.022     8.520
    11   6 C        3.095     0.039    27.016     8.519
    12   6 C        2.910    -0.037    28.921     8.818
    13   6 C        2.925    -0.023    28.572     8.766
    14   6 C        2.925    -0.023    28.569     8.765
    15   6 C        2.910    -0.035    28.876     8.811
    16   6 C        3.738    -0.043    21.425     6.605
    17   6 C        2.819     0.224    23.298     7.909
    18   8 O        0.858    -0.340    20.526     6.074
    19   6 C        2.970    -0.017    28.439     8.747
    20   6 C        2.919    -0.030    28.761     8.794
    21   6 C        2.918    -0.023    28.576     8.766
    22   6 C        2.920    -0.010    28.265     8.718
    23   6 C        2.916    -0.018    28.470     8.750
    24   6 C        2.928    -0.011    28.288     8.722
    25   1 H        0.860     0.214     1.037     1.595
    26   1 H        0.860     0.196     1.126     1.662
    27   1 H        0.924     0.075     2.033     2.230
    28   1 H        0.924     0.078     1.995     2.209
    29   1 H        0.924     0.078     1.997     2.210
    30   1 H        0.925     0.088     1.900     2.156
    31   1 H        0.925     0.089     1.888     2.149
    32   1 H        0.924     0.133     1.509     1.921
    33   1 H        0.925     0.116     1.649     2.008
    34   1 H        0.926     0.062     2.177     2.307
    35   1 H        0.926     0.073     2.056     2.243
    36   1 H        0.926     0.073     2.048     2.238
    37   1 H        0.926     0.063     2.162     2.300
    38   1 H        0.924     0.100     1.787     2.091
    39   1 H        0.925     0.090     1.881     2.145
    40   1 H        0.926     0.035     2.512     2.478
    41   1 H        0.926     0.052     2.297     2.370
    42   1 H        0.926     0.062     2.175     2.306
    43   1 H        0.926     0.063     2.161     2.299
    44   1 H        0.926     0.075     2.035     2.231

Wiberg/Mayer (AO) data.
largest (>0.10) Wiberg bond orders for each atom

     #   Z sym  total        # sym  WBO       # sym  WBO       # sym  WBO
 ---------------------------------------------------------------------------
     1   7 N    3.405 --     2 C    1.293    26 H    0.943    25 H    0.933
                             3 O    0.204
     2   6 C    3.952 --     3 O    1.676     1 N    1.293     4 C    0.958
     3   8 O    1.994 --     2 C    1.676     1 N    0.204
     4   6 C    3.991 --     5 C    0.995    28 H    0.961     2 C    0.958
                            27 H    0.954
     5   6 C    3.953 --     4 C    0.995     6 N    0.978    30 H    0.964
                            29 H    0.962
     6   7 N    3.657 --     7 C    1.324    11 C    1.120     5 C    0.978
     7   6 C    3.950 --     9 N    1.326     6 N    1.324     8 C    1.056
     8   6 C    3.966 --     7 C    1.056    33 H    0.958    31 H    0.951
                            32 H    0.923
     9   7 N    3.656 --     7 C    1.326    10 C    1.113    16 C    0.977
    10   6 C    3.954 --    15 C    1.346    11 C    1.279     9 N    1.113
    11   6 C    3.955 --    12 C    1.346    10 C    1.279     6 N    1.120
    12   6 C    3.986 --    13 C    1.486    11 C    1.346    34 H    0.963
                            15 C    0.117
    13   6 C    3.985 --    12 C    1.486    14 C    1.387    35 H    0.967
    14   6 C    3.984 --    15 C    1.484    13 C    1.387    36 H    0.967
    15   6 C    3.985 --    14 C    1.484    10 C    1.346    37 H    0.960
                            12 C    0.117
    16   6 C    3.943 --     9 N    0.977    39 H    0.959    38 H    0.956
                            17 C    0.927
    17   6 C    3.928 --    18 O    1.824    19 C    1.071    16 C    0.927
    18   8 O    2.096 --    17 C    1.824
    19   6 C    3.986 --    20 C    1.362    24 C    1.354    17 C    1.071
    20   6 C    3.991 --    21 C    1.467    19 C    1.362    40 H    0.963
                            23 C    0.103
    21   6 C    3.991 --    20 C    1.467    22 C    1.422    41 H    0.969
                            24 C    0.101
    22   6 C    3.986 --    23 C    1.428    21 C    1.422    42 H    0.969
    23   6 C    3.989 --    24 C    1.463    22 C    1.428    43 H    0.967
                            20 C    0.103
    24   6 C    3.984 --    23 C    1.463    19 C    1.354    44 H    0.964
                            21 C    0.101
    25   1 H    0.954 --     1 N    0.933
    26   1 H    0.961 --     1 N    0.943
    27   1 H    0.994 --     4 C    0.954
    28   1 H    0.993 --     4 C    0.961
    29   1 H    0.993 --     5 C    0.962
    30   1 H    0.992 --     5 C    0.964
    31   1 H    0.990 --     8 C    0.951
    32   1 H    0.978 --     8 C    0.923
    33   1 H    0.986 --     8 C    0.958
    34   1 H    0.995 --    12 C    0.963
    35   1 H    0.994 --    13 C    0.967
    36   1 H    0.994 --    14 C    0.967
    37   1 H    0.995 --    15 C    0.960
    38   1 H    0.989 --    16 C    0.956
    39   1 H    0.991 --    16 C    0.959
    40   1 H    0.999 --    20 C    0.963
    41   1 H    0.997 --    21 C    0.969
    42   1 H    0.996 --    22 C    0.969
    43   1 H    0.995 --    23 C    0.967
    44   1 H    0.994 --    24 C    0.964
 ---------------------------------------------------------------------------

molecular dipole:
                 x           y           z       tot (Debye)
 q only:        6.489       0.795       3.131
   full:        6.424       1.144       2.925      18.176

           -------------------------------------------------
          | TOTAL ENERGY              -67.441969584601 Eh   |
          | GRADIENT NORM               0.000572416018 Eh/α |
          | HOMO-LUMO GAP               3.036421390972 eV   |
           -------------------------------------------------

 * finished run on 2024/12/20 at 07:10:33.934
