   * xtb version 6.7.1 (edcfbbe) compiled by 'conda@3ef47c1a292c' on 2024-11-25

   ID    Z sym.   atoms
    1    8 O      1
    2    6 C      2-5, 7-11
    3    7 N      6
    4    1 H      12-25

          program call               : xtb C1071.xyz --opt --namespace C1071 --charge +1
          :  Hamiltonian                  GFN2-xTB          :
 * total energy  :   -32.9910329 Eh     change       -0.1998615E-09 Eh
 * total energy  :   -32.9934752 Eh     change       -0.2442245E-02 Eh
 * total energy  :   -32.9938392 Eh     change       -0.3640486E-03 Eh
 * total energy  :   -32.9939121 Eh     change       -0.7290590E-04 Eh
 * total energy  :   -32.9940059 Eh     change       -0.9374084E-04 Eh
 * total energy  :   -32.9940956 Eh     change       -0.8970294E-04 Eh
 * total energy  :   -32.9942091 Eh     change       -0.1134741E-03 Eh
 * total energy  :   -32.9944074 Eh     change       -0.1983524E-03 Eh
 * total energy  :   -32.9947844 Eh     change       -0.3769904E-03 Eh
 * total energy  :   -32.9950829 Eh     change       -0.2984654E-03 Eh
 * total energy  :   -32.9982353 Eh     change       -0.5055203E-04 Eh
 * total energy  :   -32.9982467 Eh     change       -0.1138473E-04 Eh
 * total energy  :   -32.9982627 Eh     change       -0.1602458E-04 Eh
 * total energy  :   -32.9982719 Eh     change       -0.9200328E-05 Eh
 * total energy  :   -32.9982806 Eh     change       -0.8709905E-05 Eh
 * total energy  :   -32.9982881 Eh     change       -0.7470791E-05 Eh
 * total energy  :   -32.9982958 Eh     change       -0.7665592E-05 Eh
 * total energy  :   -32.9983034 Eh     change       -0.7610154E-05 Eh
 * total energy  :   -32.9983077 Eh     change       -0.4337322E-05 Eh
   *** GEOMETRY OPTIMIZATION CONVERGED AFTER 44 ITERATIONS ***

 final structure:
================
25
 xtb: 6.7.1 (edcfbbe)
O           -0.08633310699737       -0.09294609501875        0.26799041119132
C            0.73359999474239        0.44486122803347        1.26492280167537
C            1.17578162309770       -0.63525177320380        2.19691197683916
C            1.99974356501722       -0.36811645010664        3.29342350224528
C            2.37681879380210       -1.39188876955361        4.12812512126730
N            1.97412572572497       -2.65343853515312        3.92127396230353
C            1.18869551271600       -2.93496431092705        2.87542015098552
C            0.77471040461461       -1.95744988010585        2.00134145601125
C            2.40005016696751       -3.72093456171167        4.83906990365263
C            3.91368096317058       -3.89889221878460        4.76673568666706
C            1.92015368668860       -3.42526629026768        6.25688134447218
H           -0.36915161135760        0.60070378167342       -0.33736418501429
H            1.63026951686578        0.92263630836092        0.83722107891058
H            0.20490313017361        1.21368877953398        1.85213776518830
H            2.34356586374993        0.63435794555236        3.49391311628770
H            3.01077990578404       -1.20829081070956        4.98105046367543
H            0.88861311769721       -3.96390785828713        2.74197438481220
H            0.14039158186521       -2.19660530094254        1.16285578144798
H            1.92009469428949       -4.63993509007794        4.49053538523676
H            4.44064846540659       -3.03323589452159        5.15854254773653
H            4.19825644044570       -4.76183009179300        5.36157447727621
H            4.23565960028675       -4.07224972628174        3.74260848583404
H            0.85499026878692       -3.20693721070949        6.26853458416107
H            2.09193443017726       -4.29937989647512        6.87804013803571
H            2.45537726628447       -2.59117727852293        6.70170965910203

          :  Hamiltonian                  GFN2-xTB          :
         :: total energy             -32.998307723005 Eh    ::
         :: gradient norm              0.000336820673 Eh/a0 ::
         :: HOMO-LUMO gap              2.763806121433 eV    ::
         :: SCC energy               -33.491243152243 Eh    ::
         :: -> dispersion             -0.018565259618 Eh    ::
         :: repulsion energy           0.492935429238 Eh    ::

    * Orbital Energies and Occupations

         #    Occupation            Energy/Eh            Energy/eV
      -------------------------------------------------------------
         1        2.0000           -0.8682946             -23.6275
       ...           ...                  ...                  ...
        18        2.0000           -0.6649699             -18.0948
        19        2.0000           -0.6529273             -17.7671
        20        2.0000           -0.6375720             -17.3492
        21        2.0000           -0.6373179             -17.3423
        22        2.0000           -0.6156760             -16.7534
        23        2.0000           -0.6127490             -16.6738
        24        2.0000           -0.6075447             -16.5321
        25        2.0000           -0.6040221             -16.4363
        26        2.0000           -0.6015689             -16.3695
        27        2.0000           -0.5975327             -16.2597
        28        2.0000           -0.5921311             -16.1127
        29        2.0000           -0.5891811             -16.0324
        30        2.0000           -0.5481982             -14.9172 (HOMO)
        31                         -0.4466302             -12.1534 (LUMO)
        32                         -0.4174171             -11.3585
        33                         -0.2991139              -8.1393
        34                         -0.1795057              -4.8846
        35                         -0.0925360              -2.5180
        36                         -0.0737329              -2.0064
        37                         -0.0678576              -1.8465
        38                         -0.0428708              -1.1666
        39                         -0.0373552              -1.0165
        40                         -0.0209141              -0.5691
        41                         -0.0179505              -0.4885
       ...                                ...                  ...
        58                          0.4436890              12.0734
      -------------------------------------------------------------
                  HL-Gap            0.1015680 Eh            2.7638 eV

     #   Z          covCN         q      C6AA      α(0)
     1   8 O        1.657    -0.420    21.235     6.221
     2   6 C        3.680     0.075    19.536     6.331
     3   6 C        2.973     0.059    26.673     8.472
     4   6 C        2.918    -0.030    28.747     8.792
     5   6 C        2.890     0.034    27.232     8.556
     6   7 N        2.751     0.090    19.677     6.588
     7   6 C        2.889     0.032    27.290     8.565
     8   6 C        2.919    -0.016    28.421     8.742
     9   6 C        3.801     0.023    20.193     6.398
    10   6 C        3.755    -0.128    23.006     6.839
    11   6 C        3.754    -0.128    23.014     6.841
    12   1 H        0.805     0.316     0.675     1.290
    13   1 H        0.923     0.074     2.039     2.233
    14   1 H        0.923     0.074     2.040     2.234
    15   1 H        0.926     0.096     1.819     2.109
    16   1 H        0.926     0.109     1.705     2.042
    17   1 H        0.926     0.105     1.739     2.062
    18   1 H        0.926     0.128     1.547     1.945
    19   1 H        0.924     0.079     1.992     2.207
    20   1 H        0.925     0.065     2.143     2.289
    21   1 H        0.925     0.086     1.914     2.163
    22   1 H        0.925     0.062     2.178     2.308
    23   1 H        0.925     0.062     2.180     2.309
    24   1 H        0.925     0.086     1.919     2.166
    25   1 H        0.925     0.066     2.134     2.285

Wiberg/Mayer (AO) data.
largest (>0.10) Wiberg bond orders for each atom

     #   Z sym  total        # sym  WBO       # sym  WBO       # sym  WBO
 ---------------------------------------------------------------------------
     1   8 O    1.973 --     2 C    1.019    12 H    0.885
     2   6 C    3.966 --     3 C    1.033     1 O    1.019    14 H    0.932
                            13 H    0.931
     3   6 C    3.976 --     8 C    1.374     4 C    1.366     2 C    1.033
     4   6 C    3.985 --     5 C    1.497     3 C    1.366    15 H    0.960
     5   6 C    3.960 --     4 C    1.497     6 N    1.310    16 H    0.951
     6   7 N    3.751 --     7 C    1.324     5 C    1.310     9 C    0.932
     7   6 C    3.960 --     8 C    1.477     6 N    1.324    17 H    0.953
     8   6 C    3.977 --     7 C    1.477     3 C    1.374    18 H    0.950
     9   6 C    3.936 --    11 C    0.996    10 C    0.995    19 H    0.960
                             6 N    0.932
    10   6 C    3.981 --     9 C    0.995    22 H    0.983    20 H    0.980
                            21 H    0.975
    11   6 C    3.981 --     9 C    0.996    23 H    0.983    25 H    0.980
                            24 H    0.975
    12   1 H    0.900 --     1 O    0.885
    13   1 H    0.993 --     2 C    0.931
    14   1 H    0.994 --     2 C    0.932
    15   1 H    0.990 --     4 C    0.960
    16   1 H    0.988 --     5 C    0.951
    17   1 H    0.989 --     7 C    0.953
    18   1 H    0.983 --     8 C    0.950
    19   1 H    0.993 --     9 C    0.960
    20   1 H    0.996 --    10 C    0.980
    21   1 H    0.991 --    10 C    0.975
    22   1 H    0.996 --    10 C    0.983
    23   1 H    0.996 --    11 C    0.983
    24   1 H    0.992 --    11 C    0.975
    25   1 H    0.996 --    11 C    0.980
 ---------------------------------------------------------------------------

molecular dipole:
                 x           y           z       tot (Debye)
 q only:        3.474      -3.469       6.577
   full:        3.477      -3.212       6.507      20.451

           -------------------------------------------------
          | TOTAL ENERGY              -32.998307723005 Eh   |
          | GRADIENT NORM               0.000336820673 Eh/α |
          | HOMO-LUMO GAP               2.763806121433 eV   |
           -------------------------------------------------

 * finished run on 2024/12/20 at 07:10:29.939
