   * xtb version 6.7.1 (edcfbbe) compiled by 'conda@3ef47c1a292c' on 2024-11-25

   ID    Z sym.   atoms
    1    7 N      1, 6
    2    6 C      2-5, 7-10
    3    1 H      11-19

          program call               : xtb C1073.xyz --opt --namespace C1073 --charge +1
          :  Hamiltonian                  GFN2-xTB          :
 * total energy  :   -27.0958281 Eh     change       -0.6496848E-10 Eh
 * total energy  :   -27.0981523 Eh     change       -0.2324253E-02 Eh
 * total energy  :   -27.0984238 Eh     change       -0.2714662E-03 Eh
 * total energy  :   -27.0984058 Eh     change        0.1797164E-04 Eh
 * total energy  :   -27.0984817 Eh     change       -0.7584526E-04 Eh
 * total energy  :   -27.0984940 Eh     change       -0.1233908E-04 Eh
 * total energy  :   -27.0985130 Eh     change       -0.1901373E-04 Eh
 * total energy  :   -27.0985282 Eh     change       -0.1517943E-04 Eh
 * total energy  :   -27.0985381 Eh     change       -0.9854363E-05 Eh
 * total energy  :   -27.0985446 Eh     change       -0.6556193E-05 Eh
 * total energy  :   -27.0985521 Eh     change       -0.7521292E-05 Eh
 * total energy  :   -27.0985601 Eh     change       -0.7928890E-05 Eh
 * total energy  :   -27.0985647 Eh     change       -0.4622031E-05 Eh
   *** GEOMETRY OPTIMIZATION CONVERGED AFTER 13 ITERATIONS ***

 final structure:
================
19
 xtb: 6.7.1 (edcfbbe)
N            1.10388497633534       -0.05676962043077        0.27410197173037
C            2.23929551462641       -0.00606412857514        0.15503595923065
C            3.64960614034066        0.06262685366380        0.00048123532282
C            4.32093389316201        1.28482645501736        0.11096318480946
C            5.68870761803856        1.31047795256487       -0.04824885119981
N            6.38419837089981        0.19526484415658       -0.30101823161362
C            5.75972857874586       -0.98343184994134       -0.41349810405490
C            4.39464662599505       -1.09088663045323       -0.26736145388441
C            7.81957775584911        0.27588864625207       -0.52693972332136
C            8.10656547819409        0.52112444982635       -2.00660238111002
H            3.77888227154384        2.19455279057151        0.31860909256770
H            6.24329459179924        2.23465773371032        0.02935379767349
H            6.37001420446670       -1.85061609484947       -0.62125461786953
H            3.91018965505431       -2.05100860979923       -0.35716460456873
H            8.22677085302386        1.09141946183457        0.07361410488221
H            8.28113791304506       -0.65992965059589       -0.20637441004582
H            7.66297128433331        1.45529244419335       -2.34264548330877
H            9.18064474691163        0.58140616466370       -2.15445855516037
H            7.72303952763507       -0.29085121180949       -2.61981293007934

          :  Hamiltonian                  GFN2-xTB          :
         :: total energy             -27.098564700893 Eh    ::
         :: gradient norm              0.000756270064 Eh/a0 ::
         :: HOMO-LUMO gap              2.384142940935 eV    ::
         :: SCC energy               -27.599970317248 Eh    ::
         :: -> dispersion             -0.014062958079 Eh    ::
         :: repulsion energy           0.501405616355 Eh    ::

    * Orbital Energies and Occupations

         #    Occupation            Energy/Eh            Energy/eV
      -------------------------------------------------------------
         1        2.0000           -0.9015108             -24.5314
       ...           ...                  ...                  ...
        13        2.0000           -0.7033664             -19.1396
        14        2.0000           -0.7010369             -19.0762
        15        2.0000           -0.6833837             -18.5958
        16        2.0000           -0.6797219             -18.4962
        17        2.0000           -0.6673478             -18.1595
        18        2.0000           -0.6519285             -17.7399
        19        2.0000           -0.6477409             -17.6259
        20        2.0000           -0.6377438             -17.3539
        21        2.0000           -0.6297259             -17.1357
        22        2.0000           -0.6240050             -16.9800
        23        2.0000           -0.6206888             -16.8898
        24        2.0000           -0.6141384             -16.7116
        25        2.0000           -0.5787532             -15.7487 (HOMO)
        26                         -0.4911376             -13.3645 (LUMO)
        27                         -0.4500841             -12.2474
        28                         -0.3760009             -10.2315
        29                         -0.3678134             -10.0087
        30                         -0.2818834              -7.6704
        31                         -0.1923645              -5.2345
        32                         -0.0995766              -2.7096
        33                         -0.0661559              -1.8002
        34                         -0.0614900              -1.6732
        35                         -0.0545533              -1.4845
        36                         -0.0443049              -1.2056
       ...                                ...                  ...
        49                          1.0192341              27.7348
      -------------------------------------------------------------
                  HL-Gap            0.0876156 Eh            2.3841 eV

     #   Z          covCN         q      C6AA      α(0)
     1   7 N        0.911    -0.106    23.330     6.986
     2   6 C        1.907     0.118    28.200     8.576
     3   6 C        2.978     0.076    26.291     8.411
     4   6 C        2.920    -0.006    28.179     8.705
     5   6 C        2.890     0.036    27.200     8.551
     6   7 N        2.750     0.114    19.285     6.522
     7   6 C        2.890     0.036    27.201     8.551
     8   6 C        2.920    -0.006    28.179     8.705
     9   6 C        3.757    -0.032    21.201     6.565
    10   6 C        3.753    -0.125    22.954     6.832
    11   1 H        0.926     0.116     1.645     2.006
    12   1 H        0.926     0.117     1.638     2.001
    13   1 H        0.926     0.117     1.638     2.002
    14   1 H        0.926     0.116     1.645     2.006
    15   1 H        0.924     0.098     1.804     2.101
    16   1 H        0.924     0.098     1.804     2.101
    17   1 H        0.925     0.070     2.090     2.261
    18   1 H        0.925     0.095     1.831     2.116
    19   1 H        0.925     0.070     2.089     2.260

Wiberg/Mayer (AO) data.
largest (>0.10) Wiberg bond orders for each atom

     #   Z sym  total        # sym  WBO       # sym  WBO       # sym  WBO
 ---------------------------------------------------------------------------
     1   7 N    3.012 --     2 C    2.840
     2   6 C    3.957 --     1 N    2.840     3 C    1.082
     3   6 C    3.983 --     4 C    1.355     8 C    1.355     2 C    1.082
     4   6 C    3.979 --     5 C    1.474     3 C    1.355    11 H    0.957
     5   6 C    3.957 --     4 C    1.474     6 N    1.325    12 H    0.952
     6   7 N    3.748 --     5 C    1.325     7 C    1.324     9 C    0.958
     7   6 C    3.957 --     8 C    1.474     6 N    1.324    13 H    0.952
     8   6 C    3.979 --     7 C    1.474     3 C    1.355    14 H    0.957
     9   6 C    3.929 --    10 C    0.992    16 H    0.962    15 H    0.962
                             6 N    0.958
    10   6 C    3.974 --     9 C    0.992    19 H    0.983    17 H    0.983
                            18 H    0.972
    11   1 H    0.986 --     4 C    0.957
    12   1 H    0.985 --     5 C    0.952
    13   1 H    0.985 --     7 C    0.952
    14   1 H    0.986 --     8 C    0.957
    15   1 H    0.990 --     9 C    0.962
    16   1 H    0.990 --     9 C    0.962
    17   1 H    0.995 --    10 C    0.983
    18   1 H    0.989 --    10 C    0.972
    19   1 H    0.995 --    10 C    0.983
 ---------------------------------------------------------------------------

molecular dipole:
                 x           y           z       tot (Debye)
 q only:       11.661       0.395      -0.813
   full:       12.132       0.407      -0.806      30.921

           -------------------------------------------------
          | TOTAL ENERGY              -27.098564700893 Eh   |
          | GRADIENT NORM               0.000756270064 Eh/α |
          | HOMO-LUMO GAP               2.384142940935 eV   |
           -------------------------------------------------

 * finished run on 2024/12/20 at 07:10:31.256
