   * xtb version 6.7.1 (edcfbbe) compiled by 'conda@3ef47c1a292c' on 2024-11-25

   ID    Z sym.   atoms
    1    6 C      1-3, 5, 7-15, 17, 18
    2    7 N      4, 6
    3    8 O      16
    4    1 H      19-39

          program call               : xtb C1077.xyz --opt --namespace C1077 --charge +1
          :  Hamiltonian                  GFN2-xTB          :
 * total energy  :   -52.3534055 Eh     change       -0.3464962E-09 Eh
 * total energy  :   -52.3594187 Eh     change       -0.6013202E-02 Eh
 * total energy  :   -52.3604656 Eh     change       -0.1046937E-02 Eh
 * total energy  :   -52.3605988 Eh     change       -0.1331801E-03 Eh
 * total energy  :   -52.3606955 Eh     change       -0.9669875E-04 Eh
 * total energy  :   -52.3607448 Eh     change       -0.4927231E-04 Eh
 * total energy  :   -52.3607944 Eh     change       -0.4962054E-04 Eh
 * total energy  :   -52.3608641 Eh     change       -0.6972041E-04 Eh
 * total energy  :   -52.3609127 Eh     change       -0.4861606E-04 Eh
 * total energy  :   -52.3609950 Eh     change       -0.8225136E-04 Eh
 * total energy  :   -52.3694994 Eh     change       -0.4424443E-04 Eh
 * total energy  :   -52.3695396 Eh     change       -0.4012144E-04 Eh
 * total energy  :   -52.3695281 Eh     change        0.1147829E-04 Eh
 * total energy  :   -52.3695560 Eh     change       -0.2794656E-04 Eh
 * total energy  :   -52.3695667 Eh     change       -0.1064925E-04 Eh
 * total energy  :   -52.3695795 Eh     change       -0.1281223E-04 Eh
 * total energy  :   -52.3695888 Eh     change       -0.9298672E-05 Eh
 * total energy  :   -52.3695954 Eh     change       -0.6624928E-05 Eh
 * total energy  :   -52.3696000 Eh     change       -0.4596323E-05 Eh
   *** GEOMETRY OPTIMIZATION CONVERGED AFTER 82 ITERATIONS ***

 final structure:
================
39
 xtb: 6.7.1 (edcfbbe)
C            0.58222819260099        0.33934094812327       -0.64137582779783
C           -0.23547493249469        0.15847374981903        0.37684327775049
C           -1.65752197962738       -0.31561407449516        0.23544522254540
N           -1.91167883846147       -1.43481998744088        1.11571215195129
C           -2.59940298901958       -1.40764377990369        2.25134855781888
N           -2.60035075200945       -2.59716546588924        2.84362536535330
C           -1.84510418677332       -3.45380015930711        2.07005541194378
C           -1.40654945525161       -2.70976708953651        0.95890868369547
C           -0.61658680645167       -3.27803784035148       -0.03168881372542
C           -0.27034045275352       -4.61122344269455        0.10577453107098
C            0.57789992071072       -5.29225335197480       -0.91575659130392
C           -0.71682164039127       -5.34408294992233        1.22072353264324
C           -1.49911196681107       -4.79350841006229        2.21019252541131
C           -3.11300685455371       -2.84593827477068        4.16675692785850
C           -2.07465053028444       -2.38364246695318        5.19849926591955
O           -1.78270378296163       -1.03777725668771        4.90588094372585
C           -0.68673794764753       -0.49078508576960        5.62497351523666
C           -0.95241157282612       -0.30211414202553        7.11256977128613
H            0.27877616190562        0.15350836831349       -1.65855226184840
H            1.58480107056964        0.70253747836631       -0.50215229788239
H            0.07742785549097        0.36128767032396        1.39154964910600
H           -2.34691914529135        0.48953312423841        0.50520186745600
H           -1.85669071622452       -0.62089212060588       -0.79495428909826
H           -3.09085336426172       -0.54089857834792        2.65052288496535
H           -0.27731842821100       -2.69960684670720       -0.87518296988468
H            0.85034032958881       -4.61555741227376       -1.71985928027847
H            1.48810109419134       -5.67303938401218       -0.45566816228623
H            0.04642779613353       -6.14308634261753       -1.33875874450837
H           -0.42781784797734       -6.38085328383064        1.29718114790327
H           -1.82433217318689       -5.37901139848730        3.05448067210633
H           -4.03025559326904       -2.26940214869980        4.30026030040048
H           -3.32645653729949       -3.90795952108330        4.28470374724282
H           -2.49584354929531       -2.50038043116404        6.20390299241768
H           -1.16173752222520       -2.99481433897880        5.12346584985896
H            0.20064091279441       -1.12251425760198        5.47390774873002
H           -0.51552242447187        0.47811469017327        5.15053313381810
H           -1.02332990393339       -1.25648596448308        7.62802232882502
H           -0.13521859277646        0.26242276658304        7.55073057732849
H           -1.87686284725667        0.24997701073862        7.26021665425194

          :  Hamiltonian                  GFN2-xTB          :
         :: total energy             -52.369600007182 Eh    ::
         :: gradient norm              0.000405857366 Eh/a0 ::
         :: HOMO-LUMO gap              3.136380466203 eV    ::
         :: SCC energy               -53.176609046518 Eh    ::
         :: -> dispersion             -0.035076735671 Eh    ::
         :: repulsion energy           0.807009039336 Eh    ::

    * Orbital Energies and Occupations

         #    Occupation            Energy/Eh            Energy/eV
      -------------------------------------------------------------
         1        2.0000           -0.8690536             -23.6482
       ...           ...                  ...                  ...
        36        2.0000           -0.5881192             -16.0035
        37        2.0000           -0.5837526             -15.8847
        38        2.0000           -0.5768006             -15.6955
        39        2.0000           -0.5762354             -15.6802
        40        2.0000           -0.5711161             -15.5409
        41        2.0000           -0.5605613             -15.2536
        42        2.0000           -0.5583675             -15.1940
        43        2.0000           -0.5576139             -15.1734
        44        2.0000           -0.5406344             -14.7114
        45        2.0000           -0.5382861             -14.6475
        46        2.0000           -0.5364516             -14.5976
        47        2.0000           -0.5263969             -14.3240
        48        2.0000           -0.5181312             -14.0991 (HOMO)
        49                         -0.4028713             -10.9627 (LUMO)
        50                         -0.3538401              -9.6285
        51                         -0.3461369              -9.4189
        52                         -0.3337100              -9.0807
        53                         -0.2300389              -6.2597
        54                         -0.1635457              -4.4503
        55                         -0.1234091              -3.3581
        56                         -0.0963367              -2.6215
        57                         -0.0604314              -1.6444
        58                         -0.0415047              -1.1294
        59                         -0.0342853              -0.9330
       ...                                ...                  ...
        93                          0.5431819              14.7807
      -------------------------------------------------------------
                  HL-Gap            0.1152599 Eh            3.1364 eV

     #   Z          covCN         q      C6AA      α(0)
     1   6 C        2.837    -0.080    29.988     8.974
     2   6 C        2.887    -0.037    28.915     8.816
     3   6 C        3.745    -0.018    20.969     6.532
     4   7 N        2.831     0.034    20.650     6.749
     5   6 C        3.072     0.071    26.342     8.415
     6   7 N        2.832     0.040    20.550     6.733
     7   6 C        3.119     0.033    27.088     8.524
     8   6 C        3.117     0.038    26.978     8.508
     9   6 C        2.913    -0.047    29.160     8.855
    10   6 C        2.970     0.038    27.151     8.547
    11   6 C        3.760    -0.125    22.949     6.829
    12   6 C        2.931    -0.031    28.770     8.797
    13   6 C        2.907    -0.036    28.894     8.814
    14   6 C        3.743    -0.023    21.059     6.547
    15   6 C        3.695     0.078    19.441     6.307
    16   8 O        1.700    -0.330    19.531     5.967
    17   6 C        3.692     0.079    19.442     6.309
    18   6 C        3.750    -0.123    22.916     6.827
    19   1 H        0.926     0.063     2.162     2.299
    20   1 H        0.926     0.075     2.032     2.229
    21   1 H        0.926     0.054     2.267     2.355
    22   1 H        0.924     0.083     1.947     2.182
    23   1 H        0.924     0.089     1.889     2.149
    24   1 H        0.926     0.114     1.659     2.014
    25   1 H        0.926     0.068     2.105     2.269
    26   1 H        0.925     0.064     2.155     2.295
    27   1 H        0.925     0.076     2.018     2.221
    28   1 H        0.925     0.077     2.010     2.217
    29   1 H        0.926     0.077     2.015     2.220
    30   1 H        0.926     0.065     2.140     2.288
    31   1 H        0.924     0.094     1.845     2.124
    32   1 H        0.925     0.089     1.888     2.149
    33   1 H        0.924     0.061     2.189     2.314
    34   1 H        0.923     0.039     2.461     2.453
    35   1 H        0.923     0.026     2.642     2.542
    36   1 H        0.924     0.058     2.227     2.334
    37   1 H        0.925     0.048     2.350     2.397
    38   1 H        0.925     0.059     2.206     2.323
    39   1 H        0.925     0.060     2.201     2.320

Wiberg/Mayer (AO) data.
largest (>0.10) Wiberg bond orders for each atom

     #   Z sym  total        # sym  WBO       # sym  WBO       # sym  WBO
 ---------------------------------------------------------------------------
     1   6 C    3.984 --     2 C    1.988    19 H    0.972    20 H    0.971
     2   6 C    3.982 --     1 C    1.988     3 C    0.997    21 H    0.964
     3   6 C    3.943 --     2 C    0.997     4 N    0.965    23 H    0.958
                            22 H    0.955
     4   7 N    3.680 --     5 C    1.370     8 C    1.124     3 C    0.965
                             6 N    0.100
     5   6 C    3.948 --     4 N    1.370     6 N    1.364    24 H    0.951
     6   7 N    3.679 --     5 C    1.364     7 C    1.124    14 C    0.980
                             4 N    0.100
     7   6 C    3.950 --    13 C    1.328     8 C    1.274     6 N    1.124
     8   6 C    3.952 --     9 C    1.341     7 C    1.274     4 N    1.124
     9   6 C    3.984 --    10 C    1.460     8 C    1.341    25 H    0.962
                            13 C    0.111
    10   6 C    3.985 --     9 C    1.460    12 C    1.334    11 C    1.039
    11   6 C    3.989 --    10 C    1.039    26 H    0.983    27 H    0.961
                            28 H    0.961
    12   6 C    3.986 --    13 C    1.514    10 C    1.334    29 H    0.965
    13   6 C    3.987 --    12 C    1.514     7 C    1.328    30 H    0.963
                             9 C    0.111
    14   6 C    3.950 --     6 N    0.980    15 C    0.980    32 H    0.965
                            31 H    0.963
    15   6 C    3.958 --    16 O    0.996    14 C    0.980    34 H    0.965
                            33 H    0.960
    16   8 O    2.067 --    15 C    0.996    17 C    0.961
    17   6 C    3.940 --    18 C    1.014    36 H    0.970    35 H    0.969
                            16 O    0.961
    18   6 C    3.992 --    17 C    1.014    37 H    0.985    39 H    0.985
                            38 H    0.982
    19   1 H    0.996 --     1 C    0.972
    20   1 H    0.993 --     1 C    0.971
    21   1 H    0.997 --     2 C    0.964
    22   1 H    0.993 --     3 C    0.955
    23   1 H    0.992 --     3 C    0.958
    24   1 H    0.986 --     5 C    0.951
    25   1 H    0.995 --     9 C    0.962
    26   1 H    0.996 --    11 C    0.983
    27   1 H    0.992 --    11 C    0.961
    28   1 H    0.992 --    11 C    0.961
    29   1 H    0.994 --    12 C    0.965
    30   1 H    0.995 --    13 C    0.963
    31   1 H    0.990 --    14 C    0.963
    32   1 H    0.992 --    14 C    0.965
    33   1 H    0.996 --    15 C    0.960
    34   1 H    0.998 --    15 C    0.965
    35   1 H    0.999 --    17 C    0.969
    36   1 H    0.997 --    17 C    0.970
    37   1 H    0.998 --    18 C    0.985
    38   1 H    0.996 --    18 C    0.982
    39   1 H    0.996 --    18 C    0.985
 ---------------------------------------------------------------------------

molecular dipole:
                 x           y           z       tot (Debye)
 q only:       -2.888      -4.492       3.700
   full:       -3.006      -4.444       3.933      16.909

           -------------------------------------------------
          | TOTAL ENERGY              -52.369600007182 Eh   |
          | GRADIENT NORM               0.000405857366 Eh/α |
          | HOMO-LUMO GAP               3.136380466203 eV   |
           -------------------------------------------------

 * finished run on 2024/12/20 at 07:10:36.662
