   * xtb version 6.7.1 (edcfbbe) compiled by 'conda@3ef47c1a292c' on 2024-11-25

   ID    Z sym.   atoms
    1    6 C      1-3, 5-7, 9-11
    2    7 N      4, 8
    3    1 H      12-30

          program call               : xtb C1074.xyz --opt --namespace C1074 --charge +1
          :  Hamiltonian                  GFN2-xTB          :
 * total energy  :   -34.3608357 Eh     change       -0.1269527E-09 Eh
 * total energy  :   -34.3657337 Eh     change       -0.4898009E-02 Eh
 * total energy  :   -34.3668645 Eh     change       -0.1130778E-02 Eh
 * total energy  :   -34.3672519 Eh     change       -0.3874099E-03 Eh
 * total energy  :   -34.3675024 Eh     change       -0.2505396E-03 Eh
 * total energy  :   -34.3676475 Eh     change       -0.1451037E-03 Eh
 * total energy  :   -34.3678015 Eh     change       -0.1539929E-03 Eh
 * total energy  :   -34.3679973 Eh     change       -0.1958038E-03 Eh
 * total energy  :   -34.3682220 Eh     change       -0.2246866E-03 Eh
 * total energy  :   -34.3684298 Eh     change       -0.2077362E-03 Eh
 * total energy  :   -34.3690525 Eh     change       -0.5243371E-04 Eh
 * total energy  :   -34.3690893 Eh     change       -0.3673823E-04 Eh
 * total energy  :   -34.3691286 Eh     change       -0.3935904E-04 Eh
 * total energy  :   -34.3691421 Eh     change       -0.1346058E-04 Eh
 * total energy  :   -34.3691569 Eh     change       -0.1486656E-04 Eh
 * total energy  :   -34.3691638 Eh     change       -0.6836970E-05 Eh
 * total energy  :   -34.3691730 Eh     change       -0.9197834E-05 Eh
 * total energy  :   -34.3691791 Eh     change       -0.6097302E-05 Eh
 * total energy  :   -34.3691840 Eh     change       -0.4955218E-05 Eh
   *** GEOMETRY OPTIMIZATION CONVERGED AFTER 25 ITERATIONS ***

 final structure:
================
30
 xtb: 6.7.1 (edcfbbe)
C            1.83956491803730        1.13562503192932       -1.04905058992382
C            0.59884053021892        0.26211542731783       -1.20458121998279
C            0.99600557739838       -1.20452247973388       -1.32362732664473
N           -0.19142465370984       -2.10412044578003       -1.48608300656457
C           -0.55185345385555       -2.81339836108600       -0.23580630637960
C           -0.25767552089775       -4.09330076611940       -0.37863797546798
C            0.28955564411494       -4.38204000440224       -1.74755136624710
N            0.06874083362019       -3.11545143353092       -2.48209267277282
C           -0.94750874549820       -3.09992155108880       -3.51228037732710
C           -0.31766562242766       -5.63153099932223       -2.37059522001324
C           -1.13116153093601       -2.03232982264801        0.87847883845577
H            2.38637151985068        0.87273105727981       -0.14756283344908
H            1.55181110448937        2.18018549888790       -0.98040817468128
H            2.50234590551022        1.01911406732407       -1.90200391910520
H           -0.05417437486133        0.41440654354430       -0.34339600557688
H            0.05716743429705        0.56782203251235       -2.10308993892628
H            1.62060152475910       -1.35124284430841       -2.20707812722113
H            1.55970449073989       -1.53212416920532       -0.44843272316999
H           -0.97230336179254       -1.50821561518370       -1.79655385496111
H           -0.38691404724744       -4.86111794368496        0.35824618325131
H            1.37787920471255       -4.52391669756875       -1.68331510957918
H           -1.95868669633951       -3.29862162082254       -3.13782846781442
H           -0.92357244439097       -2.12844200835081       -4.00646452633125
H           -0.69282123742237       -3.84820840605707       -4.25603964464159
H            0.09517875882280       -5.81111145303571       -3.35847589202814
H           -0.06723283934533       -6.48378687887626       -1.74466265848117
H           -1.39991695660951       -5.56519999356218       -2.43699091791698
H           -0.41109895375152       -1.32165290120735        1.28236415045346
H           -2.01287268497594       -1.47955632084286        0.55442288666023
H           -1.42249432250982       -2.70794694237676        1.67734679638457

          :  Hamiltonian                  GFN2-xTB          :
         :: total energy             -34.369184035310 Eh    ::
         :: gradient norm              0.000331506226 Eh/a0 ::
         :: HOMO-LUMO gap              4.157557036135 eV    ::
         :: SCC energy               -34.864222994048 Eh    ::
         :: -> dispersion             -0.022271905012 Eh    ::
         :: repulsion energy           0.495038958738 Eh    ::

    * Orbital Energies and Occupations

         #    Occupation            Energy/Eh            Energy/eV
      -------------------------------------------------------------
         1        2.0000           -0.8748546             -23.8060
       ...           ...                  ...                  ...
        20        2.0000           -0.6376539             -17.3514
        21        2.0000           -0.6330147             -17.2252
        22        2.0000           -0.6271575             -17.0658
        23        2.0000           -0.6217185             -16.9178
        24        2.0000           -0.6177413             -16.8096
        25        2.0000           -0.6084336             -16.5563
        26        2.0000           -0.6018176             -16.3763
        27        2.0000           -0.5947794             -16.1848
        28        2.0000           -0.5885821             -16.0161
        29        2.0000           -0.5768302             -15.6963
        30        2.0000           -0.5704956             -15.5240
        31        2.0000           -0.5635383             -15.3347
        32        2.0000           -0.5321874             -14.4816 (HOMO)
        33                         -0.3794000             -10.3240 (LUMO)
        34                         -0.2559540              -6.9649
        35                         -0.2006785              -5.4607
        36                         -0.1519906              -4.1359
        37                         -0.1349887              -3.6732
        38                         -0.1136759              -3.0933
        39                         -0.0727387              -1.9793
        40                         -0.0486304              -1.3233
        41                         -0.0350041              -0.9525
        42                         -0.0171615              -0.4670
        43                         -0.0058136              -0.1582
       ...                                ...                  ...
        63                          0.4971408              13.5279
      -------------------------------------------------------------
                  HL-Gap            0.1527874 Eh            4.1576 eV

     #   Z          covCN         q      C6AA      α(0)
     1   6 C        3.754    -0.119    22.828     6.813
     2   6 C        3.800    -0.067    21.792     6.647
     3   6 C        3.741    -0.043    21.412     6.602
     4   7 N        3.699     0.105    19.424     6.546
     5   6 C        2.919     0.031    27.303     8.569
     6   6 C        2.935    -0.048    29.204     8.863
     7   6 C        3.835     0.036    19.950     6.355
     8   7 N        2.820    -0.125    23.700     7.230
     9   6 C        3.692    -0.064    21.916     6.698
    10   6 C        3.754    -0.123    22.922     6.827
    11   6 C        3.754    -0.132    23.086     6.851
    12   1 H        0.925     0.056     2.251     2.346
    13   1 H        0.925     0.070     2.080     2.255
    14   1 H        0.925     0.058     2.226     2.333
    15   1 H        0.924     0.056     2.248     2.345
    16   1 H        0.924     0.053     2.288     2.365
    17   1 H        0.924     0.106     1.732     2.058
    18   1 H        0.924     0.091     1.873     2.140
    19   1 H        0.859     0.210     1.055     1.609
    20   1 H        0.926     0.096     1.823     2.112
    21   1 H        0.923     0.080     1.980     2.201
    22   1 H        0.924     0.044     2.393     2.419
    23   1 H        0.924     0.066     2.134     2.284
    24   1 H        0.925     0.100     1.787     2.090
    25   1 H        0.925     0.070     2.082     2.256
    26   1 H        0.925     0.076     2.020     2.223
    27   1 H        0.925     0.062     2.176     2.307
    28   1 H        0.925     0.085     1.926     2.170
    29   1 H        0.925     0.076     2.023     2.224
    30   1 H        0.925     0.094     1.841     2.122

Wiberg/Mayer (AO) data.
largest (>0.10) Wiberg bond orders for each atom

     #   Z sym  total        # sym  WBO       # sym  WBO       # sym  WBO
 ---------------------------------------------------------------------------
     1   6 C    3.986 --     2 C    1.011    12 H    0.986    14 H    0.986
                            13 H    0.982
     2   6 C    3.987 --     1 C    1.011     3 C    1.007    16 H    0.973
                            15 H    0.973
     3   6 C    3.917 --     2 C    1.007    18 H    0.968    17 H    0.962
                             4 N    0.912
     4   7 N    3.792 --     8 N    0.958     3 C    0.912    19 H    0.906
                             5 C    0.906
     5   6 C    3.922 --     6 C    1.871    11 C    1.041     4 N    0.906
     6   6 C    3.983 --     5 C    1.871     7 C    1.008    20 H    0.959
     7   6 C    3.969 --     6 C    1.008    10 C    0.999     8 N    0.959
                            21 H    0.939
     8   7 N    3.053 --     9 C    1.008     7 C    0.959     4 N    0.958
     9   6 C    3.963 --     8 N    1.008    23 H    0.976    22 H    0.974
                            24 H    0.965
    10   6 C    3.983 --     7 C    0.999    27 H    0.983    25 H    0.979
                            26 H    0.977
    11   6 C    3.983 --     5 C    1.041    30 H    0.971    29 H    0.963
                            28 H    0.955
    12   1 H    0.997 --     1 C    0.986
    13   1 H    0.994 --     1 C    0.982
    14   1 H    0.997 --     1 C    0.986
    15   1 H    0.997 --     2 C    0.973
    16   1 H    0.997 --     2 C    0.973
    17   1 H    0.989 --     3 C    0.962
    18   1 H    0.992 --     3 C    0.968
    19   1 H    0.956 --     4 N    0.906
    20   1 H    0.991 --     6 C    0.959
    21   1 H    0.994 --     7 C    0.939
    22   1 H    0.998 --     9 C    0.974
    23   1 H    0.996 --     9 C    0.976
    24   1 H    0.990 --     9 C    0.965
    25   1 H    0.994 --    10 C    0.979
    26   1 H    0.994 --    10 C    0.977
    27   1 H    0.996 --    10 C    0.983
    28   1 H    0.992 --    11 C    0.955
    29   1 H    0.993 --    11 C    0.963
    30   1 H    0.991 --    11 C    0.971
 ---------------------------------------------------------------------------

molecular dipole:
                 x           y           z       tot (Debye)
 q only:       -0.246      -4.401      -2.538
   full:       -0.606      -4.383      -2.492      12.907

           -------------------------------------------------
          | TOTAL ENERGY              -34.369184035310 Eh   |
          | GRADIENT NORM               0.000331506226 Eh/α |
          | HOMO-LUMO GAP               4.157557036135 eV   |
           -------------------------------------------------

 * finished run on 2024/12/20 at 07:10:32.024
