   * xtb version 6.7.1 (edcfbbe) compiled by 'conda@3ef47c1a292c' on 2024-11-25

   ID    Z sym.   atoms
    1    6 C      1, 3-17
    2    7 N      2
    3    1 H      18-37

          program call               : xtb C1072.xyz --opt --namespace C1072 --charge +1
          :  Hamiltonian                  GFN2-xTB          :
 * total energy  :   -46.9556680 Eh     change       -0.2954863E-09 Eh
 * total energy  :   -46.9626100 Eh     change       -0.6941960E-02 Eh
 * total energy  :   -46.9645290 Eh     change       -0.1918991E-02 Eh
 * total energy  :   -46.9648810 Eh     change       -0.3520196E-03 Eh
 * total energy  :   -46.9650967 Eh     change       -0.2157038E-03 Eh
 * total energy  :   -46.9651903 Eh     change       -0.9363506E-04 Eh
 * total energy  :   -46.9652873 Eh     change       -0.9693764E-04 Eh
 * total energy  :   -46.9653241 Eh     change       -0.3685318E-04 Eh
 * total energy  :   -46.9653342 Eh     change       -0.1010524E-04 Eh
 * total energy  :   -46.9653374 Eh     change       -0.3183314E-05 Eh
   *** GEOMETRY OPTIMIZATION CONVERGED AFTER 10 ITERATIONS ***

 final structure:
================
37
 xtb: 6.7.1 (edcfbbe)
C            1.25954264257100        0.06346175288601        0.06774557468174
N            0.65193593176168        0.99236429108131       -0.89812052681721
C            0.99103155995186        0.57213360998467       -2.30112091431162
C            0.52453377796966       -0.81114060739600       -2.67370489160086
C           -0.72193146639850       -1.00339576315751       -3.26225786362569
C           -1.13671251120604       -2.27245571651770       -3.62636857386264
C           -0.30916247704456       -3.36224062482174       -3.41296002875184
C            0.94034392505086       -3.17797991870070       -2.84473522587414
C            1.35645393073403       -1.90994709338998       -2.47916490746161
C           -0.83977558466530        1.00893710372371       -0.72768991984544
C           -1.30029893126134        1.46353101511725        0.63254004715466
C           -1.57121543195483        2.80762655803229        0.87191392413014
C           -2.00423468325537        3.22468664665926        2.11823640609469
C           -2.17644576443150        2.30326005193134        3.13765903825142
C           -1.93084567361989        0.96074157581107        2.90205609041294
C           -1.49849748583342        0.54159761949235        1.65596666748379
C            1.20091633779164        2.34020540116320       -0.67402943606161
H            0.88164507290276       -0.94391602472568       -0.09732123971199
H            1.01685488686251        0.37543148105013        1.08205080083161
H            2.34150249441061        0.05879126358543       -0.05114306184186
H            0.54452686647615        1.30356768186634       -2.97828639245400
H            2.07746256557985        0.62736028836832       -2.40024227706027
H           -1.36609081816759       -0.15836618744415       -3.45812963596240
H           -2.10299402006912       -2.40718056816078       -4.08614620854447
H           -0.63089744405494       -4.34995490965897       -3.70226461319469
H            1.59732815673951       -4.02001236242604       -2.69429419440134
H            2.34338532772381       -1.77556136140902       -2.06059778584906
H           -1.24573473111699        1.67587102678114       -1.49127717318123
H           -1.19707885001795       -0.00470660850026       -0.92031342744446
H           -1.46318944000594        3.53247759645158        0.07798496703879
H           -2.21393348392407        4.26870099620615        2.28954313982419
H           -2.51491890519202        2.62862422829101        4.10836581270813
H           -2.08335579132433        0.23626387845750        3.68637663436247
H           -1.33437359888893       -0.51103082825479        1.47563450278480
H            0.95944025522672        2.67608577201810        0.33284451250144
H            2.28289613506988        2.32858885230157       -0.79144945439350
H            0.77996722561043        3.04307988330286       -1.39046036600820

          :  Hamiltonian                  GFN2-xTB          :
         :: total energy             -46.965337405029 Eh    ::
         :: gradient norm              0.000377850558 Eh/a0 ::
         :: HOMO-LUMO gap              4.543787168061 eV    ::
         :: SCC energy               -47.793850556144 Eh    ::
         :: -> dispersion             -0.036279084206 Eh    ::
         :: repulsion energy           0.828513151115 Eh    ::

    * Orbital Energies and Occupations

         #    Occupation            Energy/Eh            Energy/eV
      -------------------------------------------------------------
         1        2.0000           -0.8549847             -23.2653
       ...           ...                  ...                  ...
        32        2.0000           -0.6001268             -16.3303
        33        2.0000           -0.5987537             -16.2929
        34        2.0000           -0.5982693             -16.2797
        35        2.0000           -0.5969360             -16.2435
        36        2.0000           -0.5958335             -16.2135
        37        2.0000           -0.5472900             -14.8925
        38        2.0000           -0.5459156             -14.8551
        39        2.0000           -0.5419411             -14.7470
        40        2.0000           -0.5414166             -14.7327
        41        2.0000           -0.5295034             -14.4085
        42        2.0000           -0.5272822             -14.3481
        43        2.0000           -0.5268313             -14.3358
        44        2.0000           -0.5261118             -14.3162 (HOMO)
        45                         -0.3591307              -9.7724 (LUMO)
        46                         -0.3528069              -9.6004
        47                         -0.3455334              -9.4024
        48                         -0.3451416              -9.3918
        49                         -0.2367905              -6.4434
        50                         -0.2224958              -6.0544
        51                         -0.1899102              -5.1677
        52                         -0.1397111              -3.8017
        53                         -0.1368723              -3.7245
        54                         -0.1308390              -3.5603
        55                         -0.0519808              -1.4145
       ...                                ...                  ...
        88                          0.5401066              14.6970
      -------------------------------------------------------------
                  HL-Gap            0.1669811 Eh            4.5438 eV

     #   Z          covCN         q      C6AA      α(0)
     1   6 C        3.718    -0.089    22.330     6.750
     2   7 N        3.620     0.127    19.067     6.485
     3   6 C        3.766    -0.040    21.333     6.583
     4   6 C        2.967    -0.007    28.203     8.711
     5   6 C        2.923    -0.038    28.949     8.823
     6   6 C        2.919    -0.022    28.552     8.762
     7   6 C        2.920    -0.018    28.460     8.748
     8   6 C        2.918    -0.022    28.560     8.764
     9   6 C        2.923    -0.038    28.957     8.825
    10   6 C        3.763    -0.039    21.319     6.582
    11   6 C        2.967    -0.008    28.204     8.711
    12   6 C        2.923    -0.039    28.969     8.826
    13   6 C        2.918    -0.022    28.566     8.765
    14   6 C        2.920    -0.018    28.469     8.750
    15   6 C        2.919    -0.022    28.563     8.764
    16   6 C        2.923    -0.039    28.968     8.826
    17   6 C        3.722    -0.091    22.347     6.751
    18   1 H        0.925     0.098     1.803     2.100
    19   1 H        0.925     0.098     1.802     2.099
    20   1 H        0.925     0.092     1.862     2.134
    21   1 H        0.924     0.081     1.964     2.191
    22   1 H        0.924     0.083     1.947     2.182
    23   1 H        0.926     0.040     2.446     2.446
    24   1 H        0.926     0.059     2.213     2.327
    25   1 H        0.926     0.062     2.177     2.307
    26   1 H        0.926     0.059     2.216     2.328
    27   1 H        0.926     0.041     2.435     2.440
    28   1 H        0.924     0.081     1.969     2.194
    29   1 H        0.924     0.088     1.902     2.157
    30   1 H        0.926     0.041     2.439     2.442
    31   1 H        0.926     0.058     2.218     2.329
    32   1 H        0.926     0.062     2.181     2.309
    33   1 H        0.926     0.058     2.223     2.332
    34   1 H        0.926     0.040     2.445     2.445
    35   1 H        0.925     0.101     1.778     2.085
    36   1 H        0.925     0.093     1.854     2.129
    37   1 H        0.925     0.093     1.848     2.126

Wiberg/Mayer (AO) data.
largest (>0.10) Wiberg bond orders for each atom

     #   Z sym  total        # sym  WBO       # sym  WBO       # sym  WBO
 ---------------------------------------------------------------------------
     1   6 C    3.930 --    20 H    0.975    18 H    0.971    19 H    0.970
                             2 N    0.962
     2   7 N    3.808 --    17 C    0.962     1 C    0.962    10 C    0.913
                             3 C    0.912
     3   6 C    3.930 --     4 C    1.005    21 H    0.966    22 H    0.965
                             2 N    0.912
     4   6 C    3.978 --     5 C    1.408     9 C    1.407     3 C    1.005
                             7 C    0.109
     5   6 C    3.991 --     6 C    1.445     4 C    1.408    23 H    0.968
                             8 C    0.109
     6   6 C    3.990 --     5 C    1.445     7 C    1.438    24 H    0.969
                             9 C    0.109
     7   6 C    3.988 --     6 C    1.438     8 C    1.437    25 H    0.969
                             4 C    0.109
     8   6 C    3.990 --     9 C    1.445     7 C    1.437    26 H    0.969
                             5 C    0.109
     9   6 C    3.991 --     8 C    1.445     4 C    1.407    27 H    0.968
                             6 C    0.109
    10   6 C    3.929 --    11 C    1.004    28 H    0.966    29 H    0.961
                             2 N    0.913
    11   6 C    3.979 --    16 C    1.408    12 C    1.408    10 C    1.004
                            14 C    0.109
    12   6 C    3.991 --    13 C    1.445    11 C    1.408    30 H    0.968
                            15 C    0.109
    13   6 C    3.990 --    12 C    1.445    14 C    1.438    31 H    0.969
                            16 C    0.109
    14   6 C    3.988 --    15 C    1.438    13 C    1.438    32 H    0.969
                            11 C    0.109
    15   6 C    3.990 --    16 C    1.445    14 C    1.438    33 H    0.969
                            12 C    0.109
    16   6 C    3.991 --    15 C    1.445    11 C    1.408    34 H    0.968
                            13 C    0.109
    17   6 C    3.931 --    37 H    0.976    36 H    0.975    35 H    0.970
                             2 N    0.962
    18   1 H    0.990 --     1 C    0.971
    19   1 H    0.990 --     1 C    0.970
    20   1 H    0.991 --     1 C    0.975
    21   1 H    0.993 --     3 C    0.966
    22   1 H    0.992 --     3 C    0.965
    23   1 H    0.998 --     5 C    0.968
    24   1 H    0.996 --     6 C    0.969
    25   1 H    0.996 --     7 C    0.969
    26   1 H    0.996 --     8 C    0.969
    27   1 H    0.998 --     9 C    0.968
    28   1 H    0.993 --    10 C    0.966
    29   1 H    0.992 --    10 C    0.961
    30   1 H    0.998 --    12 C    0.968
    31   1 H    0.996 --    13 C    0.969
    32   1 H    0.996 --    14 C    0.969
    33   1 H    0.996 --    15 C    0.969
    34   1 H    0.998 --    16 C    0.968
    35   1 H    0.989 --    17 C    0.970
    36   1 H    0.991 --    17 C    0.975
    37   1 H    0.991 --    17 C    0.976
 ---------------------------------------------------------------------------

molecular dipole:
                 x           y           z       tot (Debye)
 q only:        0.644       1.326      -1.278
   full:        0.681       1.387      -1.381       5.268

           -------------------------------------------------
          | TOTAL ENERGY              -46.965337405029 Eh   |
          | GRADIENT NORM               0.000377850558 Eh/α |
          | HOMO-LUMO GAP               4.543787168061 eV   |
           -------------------------------------------------

 * finished run on 2024/12/20 at 07:10:30.923
