   * xtb version 6.7.1 (edcfbbe) compiled by 'conda@3ef47c1a292c' on 2024-11-25

   ID    Z sym.   atoms
    1    6 C      1-3, 6, 7, 9-16, 18
    2    8 O      4, 17, 19
    3    7 N      5, 8
    4    1 H      20-34

          program call               : xtb C1078.xyz --opt --namespace C1078 --charge +1
          :  Hamiltonian                  GFN2-xTB          :
 * total energy  :   -55.2031669 Eh     change       -0.2366889E-08 Eh
 * total energy  :   -55.2145454 Eh     change       -0.1137853E-01 Eh
 * total energy  :   -55.2171116 Eh     change       -0.2566130E-02 Eh
 * total energy  :   -55.2174585 Eh     change       -0.3469260E-03 Eh
 * total energy  :   -55.2177094 Eh     change       -0.2509116E-03 Eh
 * total energy  :   -55.2178785 Eh     change       -0.1691344E-03 Eh
 * total energy  :   -55.2180928 Eh     change       -0.2142318E-03 Eh
 * total energy  :   -55.2183238 Eh     change       -0.2310763E-03 Eh
 * total energy  :   -55.2184785 Eh     change       -0.1546534E-03 Eh
 * total energy  :   -55.2185711 Eh     change       -0.9257984E-04 Eh
 * total energy  :   -55.2194113 Eh     change       -0.3134596E-04 Eh
 * total energy  :   -55.2194491 Eh     change       -0.3774604E-04 Eh
 * total energy  :   -55.2194666 Eh     change       -0.1750551E-04 Eh
 * total energy  :   -55.2194803 Eh     change       -0.1374833E-04 Eh
 * total energy  :   -55.2194983 Eh     change       -0.1793630E-04 Eh
 * total energy  :   -55.2195034 Eh     change       -0.5167294E-05 Eh
 * total energy  :   -55.2195107 Eh     change       -0.7304386E-05 Eh
 * total energy  :   -55.2195158 Eh     change       -0.5030359E-05 Eh
 * total energy  :   -55.2195195 Eh     change       -0.3744777E-05 Eh
   *** GEOMETRY OPTIMIZATION CONVERGED AFTER 51 ITERATIONS ***

 final structure:
================
34
 xtb: 6.7.1 (edcfbbe)
C            1.47320450586353       -0.73143038514708        0.61069349492910
C            0.34991978543582       -1.40676027140855        0.76747249522638
C           -0.98363476376179       -0.92573943958020        0.27537657337630
O           -1.81219283373909       -1.96280872327772       -0.26592671733465
N           -1.46551297590995       -2.43505843047743       -1.48829296211487
C           -0.27104587629934       -2.36276868817241       -2.13017455250892
C           -0.44071848637263       -3.00596780843635       -3.32362955265706
N           -1.72056151544658       -3.44752912309463       -3.38256275099817
C           -2.33378095131933       -3.09216709035568       -2.25410140258943
C           -2.32144957000324       -4.22271370583665       -4.45458821347107
C           -2.64331255914380       -5.62143834679474       -3.98430778312869
C           -3.95499468202134       -5.99922754247279       -3.75169168126671
C           -4.28162335579899       -7.28410374168035       -3.32161484820061
C           -3.24399592357936       -8.16338410705251       -3.12852894194265
C           -1.91258460006346       -7.78241126171334       -3.35215679617654
C           -1.58744589879873       -6.51961824490395       -3.77667770839538
O           -1.09250913103808       -8.82993423881462       -3.08408178945098
C           -1.93755046821057       -9.90792146535109       -2.72124088243630
O           -3.27750827874270       -9.45451737253783       -2.72157562820785
H            1.50493888861079        0.21435320365283        0.09377674419909
H            2.40477366319423       -1.08610873318602        1.01369079881494
H            0.32396701235068       -2.34531461149546        1.30290417164107
H           -1.58714816831836       -0.57954298176738        1.12041111741735
H           -0.88060434153265       -0.10681792251894       -0.44565899859203
H            0.59445278439661       -1.89074276467267       -1.71121269130884
H            0.26522641203816       -3.16125631072361       -4.11424894302304
H           -3.34913668129413       -3.30539409617031       -1.98467940237430
H           -3.23247773563646       -3.71856992567993       -4.78456317552150
H           -1.61040145290122       -4.24876059610033       -5.28226041869047
H           -4.75398960804624       -5.29506575555767       -3.92547211812186
H           -5.30235164357031       -7.58047929044563       -3.15410997601464
H           -0.56144366601447       -6.24474933274162       -3.95710710250325
H           -1.82383170221866      -10.72667201703983       -3.44777485813062
H           -1.66800618209940      -10.26701887845053       -1.71796550042920

          :  Hamiltonian                  GFN2-xTB          :
         :: total energy             -55.219519509144 Eh    ::
         :: gradient norm              0.000445948341 Eh/a0 ::
         :: HOMO-LUMO gap              1.984849657512 eV    ::
         :: SCC energy               -55.970610727099 Eh    ::
         :: -> dispersion             -0.031139629093 Eh    ::
         :: repulsion energy           0.751091217955 Eh    ::

    * Orbital Energies and Occupations

         #    Occupation            Energy/Eh            Energy/eV
      -------------------------------------------------------------
         1        2.0000           -0.9146926             -24.8901
       ...           ...                  ...                  ...
        37        2.0000           -0.6068732             -16.5139
        38        2.0000           -0.6044763             -16.4486
        39        2.0000           -0.5979406             -16.2708
        40        2.0000           -0.5943230             -16.1724
        41        2.0000           -0.5902014             -16.0602
        42        2.0000           -0.5814860             -15.8230
        43        2.0000           -0.5730247             -15.5928
        44        2.0000           -0.5581482             -15.1880
        45        2.0000           -0.5572717             -15.1641
        46        2.0000           -0.5466527             -14.8752
        47        2.0000           -0.5413553             -14.7310
        48        2.0000           -0.5179997             -14.0955
        49        2.0000           -0.4767903             -12.9741 (HOMO)
        50                         -0.4038485             -10.9893 (LUMO)
        51                         -0.3717271             -10.1152
        52                         -0.3427973              -9.3280
        53                         -0.3419612              -9.3052
        54                         -0.3353884              -9.1264
        55                         -0.2478926              -6.7455
        56                         -0.2120155              -5.7692
        57                         -0.1375088              -3.7418
        58                         -0.1164767              -3.1695
        59                         -0.1078590              -2.9350
        60                         -0.0507415              -1.3807
       ...                                ...                  ...
        91                          0.5746137              15.6360
      -------------------------------------------------------------
                  HL-Gap            0.0729419 Eh            1.9848 eV

     #   Z          covCN         q      C6AA      α(0)
     1   6 C        2.837    -0.086    30.136     8.996
     2   6 C        2.883    -0.050    29.240     8.865
     3   6 C        3.686     0.057    19.812     6.372
     4   8 O        1.768    -0.204    17.379     5.629
     5   7 N        2.906     0.212    17.760     6.259
     6   6 C        3.044    -0.030    28.711     8.788
     7   6 C        3.086    -0.008    28.118     8.692
     8   7 N        2.870     0.073    19.961     6.636
     9   6 C        3.078     0.028    27.305     8.567
    10   6 C        3.748    -0.032    21.216     6.570
    11   6 C        2.977    -0.014    28.364     8.736
    12   6 C        2.928    -0.049    29.227     8.866
    13   6 C        2.911    -0.055    29.369     8.886
    14   6 C        2.983     0.136    25.034     8.207
    15   6 C        2.982     0.133    25.095     8.217
    16   6 C        2.915    -0.072    29.793     8.951
    17   8 O        1.710    -0.262    18.345     5.783
    18   6 C        3.790     0.211    17.306     5.925
    19   8 O        1.711    -0.253    18.197     5.760
    20   1 H        0.926     0.061     2.190     2.314
    21   1 H        0.926     0.076     2.018     2.222
    22   1 H        0.926     0.067     2.115     2.274
    23   1 H        0.924     0.113     1.674     2.023
    24   1 H        0.924     0.066     2.130     2.282
    25   1 H        0.926     0.118     1.630     1.997
    26   1 H        0.926     0.114     1.660     2.015
    27   1 H        0.926     0.131     1.528     1.933
    28   1 H        0.924     0.094     1.839     2.121
    29   1 H        0.924     0.098     1.807     2.102
    30   1 H        0.926     0.056     2.243     2.342
    31   1 H        0.926     0.080     1.983     2.202
    32   1 H        0.926     0.059     2.215     2.327
    33   1 H        0.923     0.067     2.114     2.274
    34   1 H        0.923     0.068     2.108     2.270

Wiberg/Mayer (AO) data.
largest (>0.10) Wiberg bond orders for each atom

     #   Z sym  total        # sym  WBO       # sym  WBO       # sym  WBO
 ---------------------------------------------------------------------------
     1   6 C    3.985 --     2 C    1.980    20 H    0.972    21 H    0.972
     2   6 C    3.983 --     1 C    1.980     3 C    1.012    22 H    0.961
     3   6 C    3.896 --     2 C    1.012    24 H    0.964    23 H    0.936
                             4 O    0.924
     4   8 O    2.144 --     5 N    1.015     3 C    0.924
     5   7 N    3.736 --     9 C    1.337     6 C    1.218     4 O    1.015
     6   6 C    3.935 --     7 C    1.556     5 N    1.218    25 H    0.953
     7   6 C    3.947 --     6 C    1.556     8 N    1.250    26 H    0.959
     8   7 N    3.716 --     9 C    1.345     7 C    1.250    10 C    0.952
     9   6 C    3.933 --     8 N    1.345     5 N    1.337    27 H    0.951
    10   6 C    3.931 --    11 C    0.985    29 H    0.961    28 H    0.957
                             8 N    0.952
    11   6 C    3.974 --    12 C    1.449    16 C    1.354    10 C    0.985
    12   6 C    3.988 --    11 C    1.449    13 C    1.393    30 H    0.967
    13   6 C    3.982 --    14 C    1.418    12 C    1.393    31 H    0.964
    14   6 C    3.933 --    13 C    1.418    15 C    1.263    19 O    1.067
    15   6 C    3.934 --    16 C    1.430    14 C    1.263    17 O    1.060
    16   6 C    3.982 --    15 C    1.430    11 C    1.354    32 H    0.966
    17   8 O    2.236 --    15 C    1.060    18 C    0.971
    18   6 C    3.906 --    19 O    0.973    17 O    0.971    34 H    0.960
                            33 H    0.959
    19   8 O    2.248 --    14 C    1.067    18 C    0.973
    20   1 H    0.996 --     1 C    0.972
    21   1 H    0.994 --     1 C    0.972
    22   1 H    0.995 --     2 C    0.961
    23   1 H    0.986 --     3 C    0.936
    24   1 H    0.996 --     3 C    0.964
    25   1 H    0.986 --     6 C    0.953
    26   1 H    0.987 --     7 C    0.959
    27   1 H    0.983 --     9 C    0.951
    28   1 H    0.991 --    10 C    0.957
    29   1 H    0.989 --    10 C    0.961
    30   1 H    0.996 --    12 C    0.967
    31   1 H    0.993 --    13 C    0.964
    32   1 H    0.997 --    16 C    0.966
    33   1 H    0.995 --    18 C    0.959
    34   1 H    0.995 --    18 C    0.960
 ---------------------------------------------------------------------------

molecular dipole:
                 x           y           z       tot (Debye)
 q only:       -2.542      -6.012      -4.426
   full:       -2.507      -6.027      -4.424      20.043

           -------------------------------------------------
          | TOTAL ENERGY              -55.219519509144 Eh   |
          | GRADIENT NORM               0.000445948341 Eh/α |
          | HOMO-LUMO GAP               1.984849657512 eV   |
           -------------------------------------------------

 * finished run on 2024/12/20 at 07:10:38.089
