   * xtb version 6.7.1 (edcfbbe) compiled by 'conda@3ef47c1a292c' on 2024-11-25

   ID    Z sym.   atoms
    1    7 N      1, 5, 9
    2    6 C      2, 4, 6-8, 10
    3   16 S      3
    4    1 H      11-18

          program call               : xtb C1079.xyz --opt --namespace C1079 --charge +1
          :  Hamiltonian                  GFN2-xTB          :
 * total energy  :   -28.4950514 Eh     change       -0.9967138E-10 Eh
 * total energy  :   -28.4982837 Eh     change       -0.3232281E-02 Eh
 * total energy  :   -28.4984793 Eh     change       -0.1956058E-03 Eh
 * total energy  :   -28.4991657 Eh     change       -0.6864505E-03 Eh
 * total energy  :   -28.4993087 Eh     change       -0.1429685E-03 Eh
 * total energy  :   -28.4993571 Eh     change       -0.4842258E-04 Eh
 * total energy  :   -28.4993899 Eh     change       -0.3283710E-04 Eh
 * total energy  :   -28.4994073 Eh     change       -0.1738497E-04 Eh
 * total energy  :   -28.4994781 Eh     change       -0.7074875E-04 Eh
 * total energy  :   -28.4994916 Eh     change       -0.1357306E-04 Eh
 * total energy  :   -28.4995448 Eh     change       -0.6054101E-05 Eh
 * total energy  :   -28.4995544 Eh     change       -0.9569392E-05 Eh
 * total energy  :   -28.4995634 Eh     change       -0.9014031E-05 Eh
 * total energy  :   -28.4995808 Eh     change       -0.1738348E-04 Eh
 * total energy  :   -28.4995816 Eh     change       -0.8340120E-06 Eh
 * total energy  :   -28.4996033 Eh     change       -0.2165227E-04 Eh
 * total energy  :   -28.4996092 Eh     change       -0.5884843E-05 Eh
 * total energy  :   -28.4996133 Eh     change       -0.4098563E-05 Eh
 * total energy  :   -28.4996150 Eh     change       -0.1765395E-05 Eh
   *** GEOMETRY OPTIMIZATION CONVERGED AFTER 22 ITERATIONS ***

 final structure:
================
18
 xtb: 6.7.1 (edcfbbe)
N            1.47678376429107        0.57555506847776       -0.36836990018545
C            2.57135367988685        0.30407858890466       -0.19088784162077
S            4.19801930036857       -0.07316881822009        0.11486432109809
C            4.53758823667185        1.34905858565877        1.09229536350376
N            4.25512698845799        2.63183126185034        0.81220783317145
C            3.58104529365633        3.14010433307795       -0.35299844408652
C            4.72906132730555        3.39521698922005        1.83763030516112
C            5.32302458804766        2.56243517190823        2.73519802172858
N            5.19667630005937        1.29257715205387        2.26067011621552
C            5.69943538894514        0.09870950343889        2.88647383748672
H            3.85988470781149        2.56337270286426       -1.23468551350645
H            2.49675666287235        3.08716703031632       -0.23125090751359
H            3.86789828646473        4.17914505083928       -0.50252095778682
H            4.61249183190345        4.45976814253877        1.85794015741911
H            5.81812056819413        2.78459049793602        3.65867332640471
H            4.97149147200423       -0.70786959471499        2.79785971699958
H            6.63140374445564       -0.21889571541978        2.41541396041665
H            5.88796785860369        0.29663404926959        3.93900660509428

          :  Hamiltonian                  GFN2-xTB          :
         :: total energy             -28.499615035263 Eh    ::
         :: gradient norm              0.000619582981 Eh/a0 ::
         :: HOMO-LUMO gap              3.479540641632 eV    ::
         :: SCC energy               -28.930625048986 Eh    ::
         :: -> dispersion             -0.015866811405 Eh    ::
         :: repulsion energy           0.431010013722 Eh    ::

    * Orbital Energies and Occupations

         #    Occupation            Energy/Eh            Energy/eV
      -------------------------------------------------------------
         1        2.0000           -0.9235178             -25.1302
       ...           ...                  ...                  ...
        14        2.0000           -0.7095190             -19.3070
        15        2.0000           -0.6939818             -18.8842
        16        2.0000           -0.6887972             -18.7431
        17        2.0000           -0.6785044             -18.4630
        18        2.0000           -0.6653101             -18.1040
        19        2.0000           -0.6565247             -17.8649
        20        2.0000           -0.6542674             -17.8035
        21        2.0000           -0.6511449             -17.7186
        22        2.0000           -0.6416256             -17.4595
        23        2.0000           -0.6171891             -16.7946
        24        2.0000           -0.6150286             -16.7358
        25        2.0000           -0.5908508             -16.0779
        26        2.0000           -0.5669997             -15.4288 (HOMO)
        27                         -0.4391290             -11.9493 (LUMO)
        28                         -0.4194443             -11.4137
        29                         -0.3880348             -10.5590
        30                         -0.3794188             -10.3245
        31                         -0.3560495              -9.6886
        32                         -0.3104038              -8.4465
        33                         -0.1995446              -5.4299
        34                         -0.1981639              -5.3923
        35                         -0.1346381              -3.6637
        36                         -0.1207070              -3.2846
        37                         -0.1036398              -2.8202
       ...                                ...                  ...
        53                          0.9883745              26.8950
      -------------------------------------------------------------
                  HL-Gap            0.1278708 Eh            3.4795 eV

     #   Z          covCN         q      C6AA      α(0)
     1   7 N        0.917    -0.141    24.024     7.086
     2   6 C        1.887     0.129    27.951     8.539
     3  16 S        1.989     0.080   137.813    19.758
     4   6 C        3.119     0.105    25.513     8.273
     5   7 N        2.865     0.053    20.306     6.693
     6   6 C        3.691    -0.084    22.300     6.758
     7   6 C        3.060    -0.004    28.060     8.687
     8   6 C        3.053    -0.003    28.060     8.687
     9   7 N        2.880     0.054    20.298     6.691
    10   6 C        3.692    -0.084    22.294     6.757
    11   1 H        0.925     0.101     1.774     2.083
    12   1 H        0.924     0.113     1.671     2.021
    13   1 H        0.925     0.114     1.662     2.016
    14   1 H        0.926     0.120     1.613     1.986
    15   1 H        0.926     0.120     1.615     1.987
    16   1 H        0.925     0.106     1.736     2.060
    17   1 H        0.924     0.108     1.713     2.047
    18   1 H        0.925     0.112     1.677     2.025

Wiberg/Mayer (AO) data.
largest (>0.10) Wiberg bond orders for each atom

     #   Z sym  total        # sym  WBO       # sym  WBO       # sym  WBO
 ---------------------------------------------------------------------------
     1   7 N    3.072 --     2 C    2.833     3 S    0.189
     2   6 C    3.940 --     1 N    2.833     3 S    1.072
     3  16 S    2.461 --     2 C    1.072     4 C    1.044     1 N    0.189
     4   6 C    3.947 --     5 N    1.308     9 N    1.307     3 S    1.044
     5   7 N    3.700 --     4 C    1.308     7 C    1.219     6 C    0.989
     6   6 C    3.926 --     5 N    0.989    13 H    0.968    11 H    0.967
                            12 H    0.953
     7   6 C    3.945 --     8 C    1.586     5 N    1.219    14 H    0.957
     8   6 C    3.942 --     7 C    1.586     9 N    1.222    15 H    0.957
     9   7 N    3.701 --     4 C    1.307     8 C    1.222    10 C    0.988
    10   6 C    3.927 --     9 N    0.988    18 H    0.971    16 H    0.964
                            17 H    0.958
    11   1 H    0.990 --     6 C    0.967
    12   1 H    0.987 --     6 C    0.953
    13   1 H    0.987 --     6 C    0.968
    14   1 H    0.985 --     7 C    0.957
    15   1 H    0.985 --     8 C    0.957
    16   1 H    0.989 --    10 C    0.964
    17   1 H    0.987 --    10 C    0.958
    18   1 H    0.987 --    10 C    0.971
 ---------------------------------------------------------------------------

molecular dipole:
                 x           y           z       tot (Debye)
 q only:        9.256       3.589       2.909
   full:        9.610       3.494       2.946      27.048

           -------------------------------------------------
          | TOTAL ENERGY              -28.499615035263 Eh   |
          | GRADIENT NORM               0.000619582981 Eh/α |
          | HOMO-LUMO GAP               3.479540641632 eV   |
           -------------------------------------------------

 * finished run on 2024/12/20 at 07:10:38.305
