   * xtb version 6.7.1 (edcfbbe) compiled by 'conda@3ef47c1a292c' on 2024-11-25

   ID    Z sym.   atoms
    1    6 C      1, 2, 4-7
    2    7 N      3
    3    8 O      8
    4    1 H      9-24

          program call               : xtb C1076.xyz --opt --namespace C1076 --charge +1
          :  Hamiltonian                  GFN2-xTB          :
 * total energy  :   -27.5724355 Eh     change       -0.5289280E-10 Eh
 * total energy  :   -27.5795060 Eh     change       -0.7070549E-02 Eh
 * total energy  :   -27.5812051 Eh     change       -0.1699078E-02 Eh
 * total energy  :   -27.5812974 Eh     change       -0.9232461E-04 Eh
 * total energy  :   -27.5813643 Eh     change       -0.6688392E-04 Eh
 * total energy  :   -27.5813987 Eh     change       -0.3436519E-04 Eh
 * total energy  :   -27.5814372 Eh     change       -0.3852926E-04 Eh
 * total energy  :   -27.5814530 Eh     change       -0.1580908E-04 Eh
 * total energy  :   -27.5814605 Eh     change       -0.7512802E-05 Eh
 * total energy  :   -27.5814639 Eh     change       -0.3407630E-05 Eh
   *** GEOMETRY OPTIMIZATION CONVERGED AFTER 10 ITERATIONS ***

 final structure:
================
24
 xtb: 6.7.1 (edcfbbe)
C            1.05074654297049        0.09124574115367        0.00039295216299
C            0.19959385160873        0.37006464276036       -1.22731711113223
N            0.47600273096304       -0.85439381584458        1.02388076644931
C            1.02365531366346       -0.46998214876578        2.34277586902583
C           -0.99207574978828       -0.75640278502920        1.09602173158208
C            0.89214173183091       -2.27033725784415        0.78941919554634
C            0.61246870157511       -2.87533715790558       -0.58680529972565
O            1.53446327602094       -2.35011541893668       -1.50981603924473
H            1.23436839322738        1.04040708246480        0.50607198836345
H            2.00455383337511       -0.32639888341449       -0.32223174121241
H           -0.00458836235298       -0.52546469885449       -1.80149494279745
H           -0.73096803464583        0.87471557865877       -0.98651254916197
H            0.77438098735247        1.03434358709198       -1.86775189369489
H            0.66001657146802        0.51628858754940        2.62641241294158
H            0.71497651759814       -1.18303534140007        3.10556025498677
H            2.11136860776523       -0.44524475867671        2.30770468325986
H           -1.44912211683030       -1.09351287249132        0.17011758174963
H           -1.36307900577018       -1.37260302347206        1.91360673681246
H           -1.28564200273066        0.27551238350353        1.27814250610789
H            1.97286834196826       -2.32569626594154        0.94000593100220
H            0.39923104786475       -2.88576806723920        1.54385187509953
H            0.74311910065147       -3.95929886843772       -0.47926911918734
H           -0.42175694622056       -2.69541780602285       -0.91075524100812
H            1.56632666843539       -2.89670843290610       -2.30139054792530

          :  Hamiltonian                  GFN2-xTB          :
         :: total energy             -27.581463933836 Eh    ::
         :: gradient norm              0.000584665776 Eh/a0 ::
         :: HOMO-LUMO gap              8.827709795742 eV    ::
         :: SCC energy               -27.921335894292 Eh    ::
         :: -> dispersion             -0.015657552376 Eh    ::
         :: repulsion energy           0.339871960455 Eh    ::

    * Orbital Energies and Occupations

         #    Occupation            Energy/Eh            Energy/eV
      -------------------------------------------------------------
         1        2.0000           -0.8655006             -23.5515
       ...           ...                  ...                  ...
        13        2.0000           -0.6833907             -18.5960
        14        2.0000           -0.6687675             -18.1981
        15        2.0000           -0.6637596             -18.0618
        16        2.0000           -0.6581308             -17.9087
        17        2.0000           -0.6510703             -17.7165
        18        2.0000           -0.6489567             -17.6590
        19        2.0000           -0.6435841             -17.5128
        20        2.0000           -0.6369391             -17.3320
        21        2.0000           -0.6236485             -16.9703
        22        2.0000           -0.6115786             -16.6419
        23        2.0000           -0.6010881             -16.3564
        24        2.0000           -0.5897049             -16.0467
        25        2.0000           -0.5614300             -15.2773 (HOMO)
        26                         -0.2370176              -6.4496 (LUMO)
        27                         -0.1724225              -4.6919
        28                         -0.1579880              -4.2991
        29                         -0.1489852              -4.0541
        30                         -0.1048764              -2.8538
        31                         -0.0598363              -1.6282
        32                         -0.0548052              -1.4913
        33                         -0.0376889              -1.0256
        34                         -0.0109796              -0.2988
        35                          0.0031338               0.0853
        36                          0.0145384               0.3956
       ...                                ...                  ...
        48                          0.1510425               4.1101
      -------------------------------------------------------------
                  HL-Gap            0.3244124 Eh            8.8277 eV

     #   Z          covCN         q      C6AA      α(0)
     1   6 C        3.753    -0.038    21.307     6.582
     2   6 C        3.751    -0.130    23.052     6.847
     3   7 N        3.619     0.132    18.985     6.471
     4   6 C        3.735    -0.098    22.470     6.765
     5   6 C        3.716    -0.096    22.457     6.770
     6   6 C        3.764    -0.042    21.376     6.590
     7   6 C        3.672     0.075    19.551     6.337
     8   8 O        1.656    -0.434    21.523     6.263
     9   1 H        0.924     0.084     1.938     2.177
    10   1 H        0.925     0.108     1.712     2.046
    11   1 H        0.925     0.077     2.015     2.220
    12   1 H        0.925     0.063     2.159     2.298
    13   1 H        0.925     0.086     1.922     2.168
    14   1 H        0.925     0.102     1.770     2.080
    15   1 H        0.925     0.097     1.809     2.103
    16   1 H        0.925     0.100     1.785     2.089
    17   1 H        0.925     0.105     1.741     2.063
    18   1 H        0.925     0.094     1.839     2.121
    19   1 H        0.925     0.101     1.773     2.082
    20   1 H        0.924     0.106     1.733     2.059
    21   1 H        0.924     0.086     1.917     2.165
    22   1 H        0.924     0.062     2.179     2.308
    23   1 H        0.923     0.046     2.367     2.406
    24   1 H        0.805     0.313     0.682     1.298

Wiberg/Mayer (AO) data.
largest (>0.10) Wiberg bond orders for each atom

     #   Z sym  total        # sym  WBO       # sym  WBO       # sym  WBO
 ---------------------------------------------------------------------------
     1   6 C    3.921 --     2 C    1.025     9 H    0.969    10 H    0.963
                             3 N    0.911
     2   6 C    3.980 --     1 C    1.025    12 H    0.982    11 H    0.977
                            13 H    0.971
     3   7 N    3.809 --     5 C    0.961     4 C    0.959     6 C    0.937
                             1 C    0.911
     4   6 C    3.928 --    16 H    0.975    15 H    0.974    14 H    0.974
                             3 N    0.959
     5   6 C    3.929 --    18 H    0.975    19 H    0.974    17 H    0.969
                             3 N    0.961
     6   6 C    3.939 --     7 C    1.005    21 H    0.967    20 H    0.963
                             3 N    0.937
     7   6 C    3.961 --     8 O    1.009     6 C    1.005    22 H    0.963
                            23 H    0.959
     8   8 O    1.959 --     7 C    1.009    24 H    0.887
     9   1 H    0.993 --     1 C    0.969
    10   1 H    0.988 --     1 C    0.963
    11   1 H    0.994 --     2 C    0.977
    12   1 H    0.996 --     2 C    0.982
    13   1 H    0.992 --     2 C    0.971
    14   1 H    0.989 --     4 C    0.974
    15   1 H    0.990 --     4 C    0.974
    16   1 H    0.990 --     4 C    0.975
    17   1 H    0.989 --     5 C    0.969
    18   1 H    0.991 --     5 C    0.975
    19   1 H    0.990 --     5 C    0.974
    20   1 H    0.989 --     6 C    0.963
    21   1 H    0.993 --     6 C    0.967
    22   1 H    0.996 --     7 C    0.963
    23   1 H    0.998 --     7 C    0.959
    24   1 H    0.902 --     8 O    0.887
 ---------------------------------------------------------------------------

molecular dipole:
                 x           y           z       tot (Debye)
 q only:        0.702      -2.049       1.420
   full:        0.627      -2.267       1.422       6.985

           -------------------------------------------------
          | TOTAL ENERGY              -27.581463933836 Eh   |
          | GRADIENT NORM               0.000584665776 Eh/α |
          | HOMO-LUMO GAP               8.827709795742 eV   |
           -------------------------------------------------

 * finished run on 2024/12/20 at 07:10:34.405
