   * xtb version 6.7.1 (edcfbbe) compiled by 'conda@3ef47c1a292c' on 2024-11-25

   ID    Z sym.   atoms
    1    6 C      1, 6, 7
    2    7 N      2-5, 8
    3    1 H      9-18

          program call               : xtb C1088.xyz --opt --namespace C1088 --charge +1
          :  Hamiltonian                  GFN2-xTB          :
 * total energy  :   -25.6137402 Eh     change       -0.3919709E-10 Eh
 * total energy  :   -25.6255592 Eh     change       -0.1181898E-01 Eh
 * total energy  :   -25.6296267 Eh     change       -0.4067514E-02 Eh
 * total energy  :   -25.6313210 Eh     change       -0.1694291E-02 Eh
 * total energy  :   -25.6331368 Eh     change       -0.1815824E-02 Eh
 * total energy  :   -25.6350596 Eh     change       -0.1922739E-02 Eh
 * total energy  :   -25.6364988 Eh     change       -0.1439196E-02 Eh
 * total energy  :   -25.6373489 Eh     change       -0.8501412E-03 Eh
 * total energy  :   -25.6377081 Eh     change       -0.3591747E-03 Eh
 * total energy  :   -25.6381109 Eh     change       -0.4027940E-03 Eh
 * total energy  :   -25.6422108 Eh     change       -0.2281633E-04 Eh
 * total energy  :   -25.6422248 Eh     change       -0.1395629E-04 Eh
 * total energy  :   -25.6422435 Eh     change       -0.1873567E-04 Eh
 * total energy  :   -25.6422614 Eh     change       -0.1784603E-04 Eh
 * total energy  :   -25.6422778 Eh     change       -0.1639572E-04 Eh
 * total energy  :   -25.6422833 Eh     change       -0.5503567E-05 Eh
 * total energy  :   -25.6422940 Eh     change       -0.1070016E-04 Eh
 * total energy  :   -25.6422993 Eh     change       -0.5310647E-05 Eh
 * total energy  :   -25.6423040 Eh     change       -0.4712081E-05 Eh
   *** GEOMETRY OPTIMIZATION CONVERGED AFTER 45 ITERATIONS ***

 final structure:
================
18
 xtb: 6.7.1 (edcfbbe)
C            0.58973770510684        0.10541791136639        0.07205630290694
N            0.62534332794955        1.44493023350141       -0.43904312027130
N           -0.18130112656409        1.79120134910445       -1.55426678345732
N           -0.17011466160611        3.22887225514392       -1.62354563232360
N            0.93781026138210        3.55263767118991       -0.76052083433794
C            1.27394198612685        2.50905673218585       -0.00831573180203
C            2.22228489241938        2.53588377655403        1.11514074515632
N           -1.30808530148443        3.83235334853011       -1.13731051621495
H           -0.40735287660421       -0.29972443628688       -0.09392904416554
H            0.80679129439660        0.10448206955374        1.13781085746903
H            1.31485428090391       -0.52456750065441       -0.44737765770920
H            0.21004682635269        1.40531510038165       -2.41734865259092
H            1.19862050843989        4.51934264751656       -0.65636459113627
H            2.78540281668630        3.46496645172027        1.11543754189597
H            1.68271358519303        2.46390388802596        2.06047723304815
H            2.91197173611652        1.69599093453592        1.05948665819405
H           -1.94873925201487        4.05013801145359       -1.88789350149849
H           -1.77644600279984        3.35834955617752       -0.36905327316270

          :  Hamiltonian                  GFN2-xTB          :
         :: total energy             -25.642303982312 Eh    ::
         :: gradient norm              0.000582425995 Eh/a0 ::
         :: HOMO-LUMO gap              3.016722193102 eV    ::
         :: SCC energy               -25.933131275298 Eh    ::
         :: -> dispersion             -0.011337497364 Eh    ::
         :: repulsion energy           0.290827292986 Eh    ::

    * Orbital Energies and Occupations

         #    Occupation            Energy/Eh            Energy/eV
      -------------------------------------------------------------
         1        2.0000           -0.9231484             -25.1201
       ...           ...                  ...                  ...
        11        2.0000           -0.7143350             -19.4380
        12        2.0000           -0.7119841             -19.3741
        13        2.0000           -0.7057463             -19.2043
        14        2.0000           -0.6951379             -18.9157
        15        2.0000           -0.6869940             -18.6941
        16        2.0000           -0.6722671             -18.2933
        17        2.0000           -0.6544622             -17.8088
        18        2.0000           -0.6513406             -17.7239
        19        2.0000           -0.6456402             -17.5688
        20        2.0000           -0.6223378             -16.9347
        21        2.0000           -0.5943258             -16.1724
        22        2.0000           -0.5554399             -15.1143
        23        2.0000           -0.5363024             -14.5935 (HOMO)
        24                         -0.4254399             -11.5768 (LUMO)
        25                         -0.2691004              -7.3226
        26                         -0.2453398              -6.6760
        27                         -0.1902325              -5.1765
        28                         -0.1514156              -4.1202
        29                         -0.1287424              -3.5033
        30                         -0.0474198              -1.2904
        31                         -0.0344656              -0.9379
        32                         -0.0216172              -0.5882
        33                         -0.0127253              -0.3463
        34                         -0.0095915              -0.2610
       ...                                ...                  ...
        42                          0.3412126               9.2849
      -------------------------------------------------------------
                  HL-Gap            0.1108625 Eh            3.0167 eV

     #   Z          covCN         q      C6AA      α(0)
     1   6 C        3.688    -0.087    22.371     6.770
     2   7 N        2.881     0.058    20.223     6.679
     3   7 N        2.895    -0.141    24.052     7.284
     4   7 N        2.974     0.043    20.488     6.723
     5   7 N        2.857    -0.072    22.627     7.065
     6   6 C        2.883     0.154    24.662     8.141
     7   6 C        3.756    -0.148    23.410     6.899
     8   7 N        2.715    -0.262    26.779     7.686
     9   1 H        0.925     0.116     1.650     2.009
    10   1 H        0.925     0.103     1.757     2.073
    11   1 H        0.924     0.101     1.780     2.087
    12   1 H        0.859     0.198     1.115     1.654
    13   1 H        0.860     0.230     0.964     1.538
    14   1 H        0.925     0.109     1.708     2.044
    15   1 H        0.924     0.121     1.607     1.982
    16   1 H        0.925     0.114     1.663     2.017
    17   1 H        0.860     0.196     1.126     1.662
    18   1 H        0.860     0.167     1.289     1.779

Wiberg/Mayer (AO) data.
largest (>0.10) Wiberg bond orders for each atom

     #   Z sym  total        # sym  WBO       # sym  WBO       # sym  WBO
 ---------------------------------------------------------------------------
     1   6 C    3.931 --     2 N    0.990    10 H    0.967     9 H    0.966
                            11 H    0.960
     2   7 N    3.616 --     6 C    1.402     1 C    0.990     3 N    0.983
                             5 N    0.144
     3   7 N    3.069 --     2 N    0.983     4 N    0.978    12 H    0.925
     4   7 N    3.093 --     8 N    1.066     3 N    0.978     5 N    0.950
     5   7 N    3.517 --     6 C    1.349     4 N    0.950    13 H    0.919
                             2 N    0.144
     6   6 C    3.957 --     2 N    1.402     5 N    1.349     7 C    1.045
     7   6 C    3.970 --     6 C    1.045    14 H    0.969    16 H    0.954
                            15 H    0.933
     8   7 N    3.085 --     4 N    1.066    18 H    0.946    17 H    0.941
     9   1 H    0.987 --     1 C    0.966
    10   1 H    0.989 --     1 C    0.967
    11   1 H    0.990 --     1 C    0.960
    12   1 H    0.961 --     3 N    0.925
    13   1 H    0.947 --     5 N    0.919
    14   1 H    0.988 --     7 C    0.969
    15   1 H    0.985 --     7 C    0.933
    16   1 H    0.987 --     7 C    0.954
    17   1 H    0.961 --     8 N    0.941
    18   1 H    0.972 --     8 N    0.946
 ---------------------------------------------------------------------------

molecular dipole:
                 x           y           z       tot (Debye)
 q only:        1.493       4.122      -0.389
   full:        1.576       4.009      -0.272      10.970

           -------------------------------------------------
          | TOTAL ENERGY              -25.642303982312 Eh   |
          | GRADIENT NORM               0.000582425995 Eh/α |
          | HOMO-LUMO GAP               3.016722193102 eV   |
           -------------------------------------------------

 * finished run on 2024/12/20 at 07:10:43.098
