   * xtb version 6.7.1 (edcfbbe) compiled by 'conda@3ef47c1a292c' on 2024-11-25

   ID    Z sym.   atoms
    1    7 N      1-3, 6, 8, 10, 11
    2    6 C      4, 5, 7, 9
    3    1 H      12-19

          program call               : xtb C1080.xyz --opt --namespace C1080 --charge +1
          :  Hamiltonian                  GFN2-xTB          :
 * total energy  :   -32.5868635 Eh     change       -0.1539107E-09 Eh
 * total energy  :   -32.5997083 Eh     change       -0.1284476E-01 Eh
 * total energy  :   -32.5979902 Eh     change        0.1718052E-02 Eh
 * total energy  :   -32.6041900 Eh     change       -0.6199805E-02 Eh
 * total energy  :   -32.6048330 Eh     change       -0.6429722E-03 Eh
 * total energy  :   -32.6055542 Eh     change       -0.7212059E-03 Eh
 * total energy  :   -32.6061168 Eh     change       -0.5626224E-03 Eh
 * total energy  :   -32.6065339 Eh     change       -0.4170959E-03 Eh
 * total energy  :   -32.6068019 Eh     change       -0.2679625E-03 Eh
 * total energy  :   -32.6069731 Eh     change       -0.1712209E-03 Eh
 * total energy  :   -32.6071149 Eh     change       -0.2759963E-04 Eh
 * total energy  :   -32.6072127 Eh     change       -0.9780225E-04 Eh
 * total energy  :   -32.6072594 Eh     change       -0.4670254E-04 Eh
 * total energy  :   -32.6073026 Eh     change       -0.4318795E-04 Eh
 * total energy  :   -32.6073154 Eh     change       -0.1285280E-04 Eh
 * total energy  :   -32.6073205 Eh     change       -0.5057412E-05 Eh
 * total energy  :   -32.6073206 Eh     change       -0.1151606E-06 Eh
 * total energy  :   -32.6073225 Eh     change       -0.1873021E-05 Eh
 * total energy  :   -32.6073228 Eh     change       -0.3325839E-06 Eh
   *** GEOMETRY OPTIMIZATION CONVERGED AFTER 20 ITERATIONS ***

 final structure:
================
19
 xtb: 6.7.1 (edcfbbe)
N            1.13748464351429       -0.03544233923466        0.31514373873306
N            2.24270550808638       -0.12817928502989        0.13333727716347
N            3.41181244845201       -0.32052822635413        0.08235995631517
C            4.26839265704755       -0.04900990377340       -1.02414174372732
C            3.92130215935111       -0.92435476257656       -2.25266511668715
N            2.50806770440397       -0.87942048715904       -2.53206199894497
C            1.74833550752260        0.15613993096897       -2.90211179412535
N            0.47499889542463       -0.25845310366014       -2.86833515526716
C            0.52162210774702       -1.56581639935472       -2.47551130082773
N            1.75033700816977       -1.92939229497527       -2.27234356127149
N           -0.62347141195221        0.42678433479782       -3.25327729855619
H            4.22380579506740        1.01478579793485       -1.29274350889786
H            5.28466401760931       -0.28285723876674       -0.70393543302231
H            4.49384244790255       -0.58450242197531       -3.11739024705090
H            4.14992981970309       -1.97170123769737       -2.04486825656128
H            2.08966620054365        1.13274490614474       -3.18226969021086
H           -0.32934152289736       -2.20341706831365       -2.34827798896842
H           -0.55367963955199        1.43346021737851       -3.17134469372101
H           -1.49089434614311        0.04565958164572       -2.89567318437089

          :  Hamiltonian                  GFN2-xTB          :
         :: total energy             -32.607322791108 Eh    ::
         :: gradient norm              0.000771054942 Eh/a0 ::
         :: HOMO-LUMO gap              2.714454770843 eV    ::
         :: SCC energy               -33.033853378859 Eh    ::
         :: -> dispersion             -0.015934480588 Eh    ::
         :: repulsion energy           0.426530587751 Eh    ::

    * Orbital Energies and Occupations

         #    Occupation            Energy/Eh            Energy/eV
      -------------------------------------------------------------
         1        2.0000           -0.9406888             -25.5974
       ...           ...                  ...                  ...
        17        2.0000           -0.7207906             -19.6137
        18        2.0000           -0.7064904             -19.2246
        19        2.0000           -0.7010748             -19.0772
        20        2.0000           -0.6945634             -18.9000
        21        2.0000           -0.6712353             -18.2652
        22        2.0000           -0.6529668             -17.7681
        23        2.0000           -0.6372351             -17.3401
        24        2.0000           -0.6324361             -17.2095
        25        2.0000           -0.6093991             -16.5826
        26        2.0000           -0.6071205             -16.5206
        27        2.0000           -0.5895237             -16.0418
        28        2.0000           -0.5549949             -15.1022
        29        2.0000           -0.5399340             -14.6924 (HOMO)
        30                         -0.4401796             -11.9779 (LUMO)
        31                         -0.4111287             -11.1874
        32                         -0.3877762             -10.5519
        33                         -0.3521669              -9.5829
        34                         -0.2411752              -6.5627
        35                         -0.1807815              -4.9193
        36                         -0.1127783              -3.0689
        37                         -0.1009834              -2.7479
        38                         -0.0846562              -2.3036
        39                         -0.0790727              -2.1517
        40                         -0.0609356              -1.6581
       ...                                ...                  ...
        52                          0.9618833              26.1742
      -------------------------------------------------------------
                  HL-Gap            0.0997544 Eh            2.7145 eV

     #   Z          covCN         q      C6AA      α(0)
     1   7 N        0.991    -0.244    25.911     7.317
     2   7 N        1.977     0.298    17.049     6.123
     3   7 N        1.902    -0.165    25.358     7.466
     4   6 C        3.747     0.003    20.599     6.474
     5   6 C        3.742    -0.045    21.448     6.607
     6   7 N        3.053     0.143    18.814     6.442
     7   6 C        3.048     0.020    27.521     8.604
     8   7 N        2.922     0.156    18.603     6.406
     9   6 C        3.130     0.067    26.301     8.396
    10   7 N        2.042    -0.134    24.593     7.356
    11   7 N        2.709    -0.213    25.644     7.521
    12   1 H        0.923     0.065     2.138     2.287
    13   1 H        0.924     0.112     1.680     2.027
    14   1 H        0.924     0.106     1.729     2.056
    15   1 H        0.924     0.130     1.536     1.938
    16   1 H        0.926     0.124     1.581     1.966
    17   1 H        0.926     0.131     1.525     1.931
    18   1 H        0.860     0.219     1.015     1.578
    19   1 H        0.860     0.226     0.982     1.552

Wiberg/Mayer (AO) data.
largest (>0.10) Wiberg bond orders for each atom

     #   Z sym  total        # sym  WBO       # sym  WBO       # sym  WBO
 ---------------------------------------------------------------------------
     1   7 N    2.938 --     2 N    2.184     3 N    0.658
     2   7 N    3.827 --     1 N    2.184     3 N    1.604
     3   7 N    3.283 --     2 N    1.604     4 C    0.994     1 N    0.658
     4   6 C    3.965 --     3 N    0.994     5 C    0.961    12 H    0.959
                            13 H    0.958
     5   6 C    3.928 --     6 N    0.973     4 C    0.961    15 H    0.958
                            14 H    0.953
     6   7 N    3.733 --     7 C    1.343    10 N    1.228     5 C    0.973
     7   6 C    3.935 --     6 N    1.343     8 N    1.314    16 H    0.952
                            10 N    0.112    11 N    0.107
     8   7 N    3.749 --     7 C    1.314     9 C    1.203    11 N    1.094
     9   6 C    3.937 --    10 N    1.570     8 N    1.203    17 H    0.951
    10   7 N    3.035 --     9 C    1.570     6 N    1.228     7 C    0.112
    11   7 N    3.185 --     8 N    1.094    18 H    0.932    19 H    0.929
                             7 C    0.107
    12   1 H    0.996 --     4 C    0.959
    13   1 H    0.987 --     4 C    0.958
    14   1 H    0.989 --     5 C    0.953
    15   1 H    0.983 --     5 C    0.958
    16   1 H    0.985 --     7 C    0.952
    17   1 H    0.983 --     9 C    0.951
    18   1 H    0.952 --    11 N    0.932
    19   1 H    0.948 --    11 N    0.929
 ---------------------------------------------------------------------------

molecular dipole:
                 x           y           z       tot (Debye)
 q only:        3.227      -0.274      -5.296
   full:        3.130       0.231      -5.413      15.904

           -------------------------------------------------
          | TOTAL ENERGY              -32.607322791108 Eh   |
          | GRADIENT NORM               0.000771054942 Eh/α |
          | HOMO-LUMO GAP               2.714454770843 eV   |
           -------------------------------------------------

 * finished run on 2024/12/20 at 07:10:38.723
