   * xtb version 6.7.1 (edcfbbe) compiled by 'conda@3ef47c1a292c' on 2024-11-25

   ID    Z sym.   atoms
    1    6 C      1, 3, 5
    2    8 O      2, 4
    3    7 N      6
    4    1 H      7-14

          program call               : xtb C1089.xyz --opt --namespace C1089 --charge +1
          :  Hamiltonian                  GFN2-xTB          :
 * total energy  :   -21.1022892 Eh     change       -0.2221867E-10 Eh
 * total energy  :   -21.1061767 Eh     change       -0.3887507E-02 Eh
 * total energy  :   -21.1066818 Eh     change       -0.5050523E-03 Eh
 * total energy  :   -21.1068038 Eh     change       -0.1220562E-03 Eh
 * total energy  :   -21.1068308 Eh     change       -0.2695248E-04 Eh
 * total energy  :   -21.1068404 Eh     change       -0.9593554E-05 Eh
 * total energy  :   -21.1068474 Eh     change       -0.6998257E-05 Eh
 * total energy  :   -21.1068599 Eh     change       -0.1253312E-04 Eh
 * total energy  :   -21.1068645 Eh     change       -0.4595014E-05 Eh
   *** GEOMETRY OPTIMIZATION CONVERGED AFTER 9 ITERATIONS ***

 final structure:
================
14
 xtb: 6.7.1 (edcfbbe)
C            1.16903935479525       -0.02948558326137       -0.20207894895822
O            0.93933667507371       -0.24182681536991       -1.60413233690391
C            0.89689192524580        0.84687857021780       -2.36931801449466
O            1.03595339571054        1.97298207939169       -2.02083790953644
C            0.60021247865513        0.44563705351947       -3.83328404385954
N            0.79047927956473       -1.01119286961039       -4.04626071704873
H            1.05672249057937       -1.00097798557906        0.27042174320146
H            0.44350192302861        0.68072010042004        0.19341457911574
H            2.17396421320749        0.36196768031919       -0.04500293254572
H           -0.43619238292888        0.72316183778881       -4.04267659945558
H            1.24556364376686        1.02850802278532       -4.49303022536284
H            0.34341948251713       -1.51365296829724       -3.26190653425860
H            0.38667517982630       -1.32144224970333       -4.93971490093038
H            1.79175234095795       -1.24935687262107       -4.03218315896258

          :  Hamiltonian                  GFN2-xTB          :
         :: total energy             -21.106864503476 Eh    ::
         :: gradient norm              0.000745386883 Eh/a0 ::
         :: HOMO-LUMO gap              5.291691760228 eV    ::
         :: SCC energy               -21.323366898385 Eh    ::
         :: -> dispersion             -0.006122321581 Eh    ::
         :: repulsion energy           0.216502394909 Eh    ::

    * Orbital Energies and Occupations

         #    Occupation            Energy/Eh            Energy/eV
      -------------------------------------------------------------
         1        2.0000           -0.9266818             -25.2163
       ...           ...                  ...                  ...
         6        2.0000           -0.8181524             -22.2631
         7        2.0000           -0.8099878             -22.0409
         8        2.0000           -0.7885012             -21.4562
         9        2.0000           -0.7683753             -20.9086
        10        2.0000           -0.7603012             -20.6888
        11        2.0000           -0.7246980             -19.7200
        12        2.0000           -0.7070045             -19.2386
        13        2.0000           -0.6937525             -18.8780
        14        2.0000           -0.6727859             -18.3074
        15        2.0000           -0.6631576             -18.0454
        16        2.0000           -0.6239131             -16.9775
        17        2.0000           -0.6017311             -16.3739
        18        2.0000           -0.5944870             -16.1768 (HOMO)
        19                         -0.4000209             -10.8851 (LUMO)
        20                         -0.2783770              -7.5750
        21                         -0.1842120              -5.0127
        22                         -0.1628917              -4.4325
        23                         -0.1156464              -3.1469
        24                         -0.0982483              -2.6735
        25                         -0.0555951              -1.5128
        26                         -0.0208100              -0.5663
        27                          0.0047995               0.1306
        28                          0.0207678               0.5651
        29                          0.0452949               1.2325
       ...                                ...                  ...
        32                          0.5308951              14.4464
      -------------------------------------------------------------
                  HL-Gap            0.1944661 Eh            5.2917 eV

     #   Z          covCN         q      C6AA      α(0)
     1   6 C        3.651     0.011    20.705     6.535
     2   8 O        1.703    -0.264    18.378     5.788
     3   6 C        2.714     0.353    21.010     7.503
     4   8 O        0.856    -0.321    20.171     6.021
     5   6 C        3.728    -0.071    21.966     6.691
     6   7 N        3.483    -0.122    23.651     7.223
     7   1 H        0.925     0.096     1.819     2.109
     8   1 H        0.925     0.093     1.848     2.126
     9   1 H        0.925     0.090     1.876     2.142
    10   1 H        0.924     0.140     1.463     1.892
    11   1 H        0.924     0.141     1.455     1.887
    12   1 H        0.859     0.293     0.734     1.343
    13   1 H        0.859     0.281     0.774     1.378
    14   1 H        0.859     0.281     0.772     1.377

Wiberg/Mayer (AO) data.
largest (>0.10) Wiberg bond orders for each atom

     #   Z sym  total        # sym  WBO       # sym  WBO       # sym  WBO
 ---------------------------------------------------------------------------
     1   6 C    3.886 --     7 H    0.977     8 H    0.974     9 H    0.974
                             2 O    0.924
     2   8 O    2.316 --     3 C    1.147     1 C    0.924     4 O    0.193
     3   6 C    3.945 --     4 O    1.820     2 O    1.147     5 C    0.930
     4   8 O    2.132 --     3 C    1.820     2 O    0.193
     5   6 C    3.897 --     6 N    0.955    11 H    0.954    10 H    0.947
                             3 C    0.930
     6   7 N    3.678 --     5 C    0.955    13 H    0.907    14 H    0.907
                            12 H    0.891
     7   1 H    0.991 --     1 C    0.977
     8   1 H    0.991 --     1 C    0.974
     9   1 H    0.992 --     1 C    0.974
    10   1 H    0.980 --     5 C    0.947
    11   1 H    0.980 --     5 C    0.954
    12   1 H    0.914 --     6 N    0.891
    13   1 H    0.921 --     6 N    0.907
    14   1 H    0.921 --     6 N    0.907
 ---------------------------------------------------------------------------

molecular dipole:
                 x           y           z       tot (Debye)
 q only:        1.466      -2.078      -6.861
   full:        1.463      -2.354      -6.989      19.111

           -------------------------------------------------
          | TOTAL ENERGY              -21.106864503476 Eh   |
          | GRADIENT NORM               0.000745386883 Eh/α |
          | HOMO-LUMO GAP               5.291691760228 eV   |
           -------------------------------------------------

 * finished run on 2024/12/20 at 07:10:43.291
