   * xtb version 6.7.1 (edcfbbe) compiled by 'conda@3ef47c1a292c' on 2024-11-25

   ID    Z sym.   atoms
    1    8 O      1
    2    6 C      2-7, 9
    3    7 N      8
    4    1 H      10-19

          program call               : xtb C1085.xyz --opt --namespace C1085 --charge +1
          :  Hamiltonian                  GFN2-xTB          :
 * total energy  :   -26.6516507 Eh     change       -0.9832135E-10 Eh
 * total energy  :   -26.6550801 Eh     change       -0.3429391E-02 Eh
 * total energy  :   -26.6556761 Eh     change       -0.5960351E-03 Eh
 * total energy  :   -26.6557829 Eh     change       -0.1067559E-03 Eh
 * total energy  :   -26.6559143 Eh     change       -0.1314371E-03 Eh
 * total energy  :   -26.6560108 Eh     change       -0.9649384E-04 Eh
 * total energy  :   -26.6561178 Eh     change       -0.1069968E-03 Eh
 * total energy  :   -26.6562124 Eh     change       -0.9460816E-04 Eh
 * total energy  :   -26.6562711 Eh     change       -0.5867508E-04 Eh
 * total energy  :   -26.6563123 Eh     change       -0.4116606E-04 Eh
 * total energy  :   -26.6563532 Eh     change       -0.4089058E-04 Eh
 * total energy  :   -26.6562612 Eh     change        0.9197705E-04 Eh
 * total energy  :   -26.6563952 Eh     change       -0.1340219E-03 Eh
 * total energy  :   -26.6564097 Eh     change       -0.1449817E-04 Eh
 * total energy  :   -26.6564308 Eh     change       -0.2107606E-04 Eh
 * total energy  :   -26.6564531 Eh     change       -0.2231090E-04 Eh
 * total energy  :   -26.6564651 Eh     change       -0.1204603E-04 Eh
 * total energy  :   -26.6564815 Eh     change       -0.1640035E-04 Eh
 * total energy  :   -26.6564862 Eh     change       -0.4673967E-05 Eh
   *** GEOMETRY OPTIMIZATION CONVERGED AFTER 19 ITERATIONS ***

 final structure:
================
19
 xtb: 6.7.1 (edcfbbe)
O            0.46380093952457       -0.18539735342912       -0.18260099840347
C            0.89346490700212       -0.90924326760616        0.94740139167546
C            1.13264489663836       -2.34284843625566        0.54725599502343
C            0.42478543872416       -3.37436855855403        1.14666188603297
C            0.63068486521890       -4.68813937166214        0.75697155605974
C            1.55521212859669       -4.94594091809559       -0.24633461235988
C            2.23579030281337       -3.88849129652832       -0.80846101789444
N            2.03013205150608       -2.62502566347857       -0.41675955838512
C            2.79090689382362       -1.56426036348474       -1.03685974169359
H            0.10745916757065        0.66649567056863        0.09044084181580
H            1.82767465462870       -0.48493194378925        1.35234660550929
H            0.14016538111034       -0.88939175562512        1.74154599429092
H           -0.29539498731558       -3.14199282922799        1.91489077675962
H            0.07685281889934       -5.49029873807378        1.21840354114493
H            1.74515310530489       -5.94979332744989       -0.58979954902588
H            2.96325712320492       -4.04776104904859       -1.59068837689325
H            2.11372057786648       -0.80605421219057       -1.43121812141772
H            3.44069421270285       -1.09014899925138       -0.29984690042789
H            3.40364552217938       -1.95900758681765       -1.84235971181098

          :  Hamiltonian                  GFN2-xTB          :
         :: total energy             -26.656486216001 Eh    ::
         :: gradient norm              0.000857370011 Eh/a0 ::
         :: HOMO-LUMO gap              3.042326773722 eV    ::
         :: SCC energy               -27.052196249964 Eh    ::
         :: -> dispersion             -0.013439950195 Eh    ::
         :: repulsion energy           0.395710033963 Eh    ::

    * Orbital Energies and Occupations

         #    Occupation            Energy/Eh            Energy/eV
      -------------------------------------------------------------
         1        2.0000           -0.8810629             -23.9749
       ...           ...                  ...                  ...
        12        2.0000           -0.7188304             -19.5604
        13        2.0000           -0.6984868             -19.0068
        14        2.0000           -0.6879741             -18.7207
        15        2.0000           -0.6823984             -18.5690
        16        2.0000           -0.6802904             -18.5116
        17        2.0000           -0.6568652             -17.8742
        18        2.0000           -0.6457410             -17.5715
        19        2.0000           -0.6374097             -17.3448
        20        2.0000           -0.6237213             -16.9723
        21        2.0000           -0.6200500             -16.8724
        22        2.0000           -0.6149242             -16.7329
        23        2.0000           -0.6085136             -16.5585
        24        2.0000           -0.5701308             -15.5140 (HOMO)
        25                         -0.4583274             -12.4717 (LUMO)
        26                         -0.4289237             -11.6716
        27                         -0.3094532              -8.4207
        28                         -0.1695516              -4.6137
        29                         -0.1085643              -2.9542
        30                         -0.0919805              -2.5029
        31                         -0.0514445              -1.3999
        32                         -0.0455930              -1.2406
        33                         -0.0347056              -0.9444
        34                         -0.0119479              -0.3251
        35                         -0.0054900              -0.1494
       ...                                ...                  ...
        46                          0.4414603              12.0127
      -------------------------------------------------------------
                  HL-Gap            0.1118035 Eh            3.0423 eV

     #   Z          covCN         q      C6AA      α(0)
     1   8 O        1.656    -0.426    21.362     6.239
     2   6 C        3.678     0.067    19.660     6.352
     3   6 C        2.933     0.079    26.245     8.402
     4   6 C        2.920    -0.021    28.527     8.759
     5   6 C        2.923     0.012    27.754     8.639
     6   6 C        2.916    -0.012    28.324     8.727
     7   6 C        2.892     0.030    27.338     8.572
     8   7 N        2.749     0.121    19.169     6.503
     9   6 C        3.710    -0.102    22.585     6.792
    10   1 H        0.805     0.322     0.658     1.274
    11   1 H        0.923     0.070     2.090     2.261
    12   1 H        0.924     0.070     2.089     2.260
    13   1 H        0.926     0.105     1.738     2.062
    14   1 H        0.926     0.109     1.702     2.040
    15   1 H        0.926     0.111     1.688     2.032
    16   1 H        0.926     0.112     1.677     2.025
    17   1 H        0.924     0.141     1.454     1.886
    18   1 H        0.924     0.109     1.704     2.041
    19   1 H        0.925     0.103     1.761     2.075

Wiberg/Mayer (AO) data.
largest (>0.10) Wiberg bond orders for each atom

     #   Z sym  total        # sym  WBO       # sym  WBO       # sym  WBO
 ---------------------------------------------------------------------------
     1   8 O    1.962 --     2 C    1.004    10 H    0.880
     2   6 C    3.959 --     3 C    1.005     1 O    1.004    12 H    0.965
                            11 H    0.940
     3   6 C    3.963 --     4 C    1.427     8 N    1.302     2 C    1.005
     4   6 C    3.982 --     5 C    1.436     3 C    1.427    13 H    0.958
     5   6 C    3.971 --     4 C    1.436     6 C    1.413    14 H    0.960
     6   6 C    3.981 --     7 C    1.467     5 C    1.413    15 H    0.958
     7   6 C    3.957 --     6 C    1.467     8 N    1.325    16 H    0.952
     8   7 N    3.770 --     7 C    1.325     3 C    1.302     9 C    0.987
     9   6 C    3.923 --     8 N    0.987    19 H    0.973    18 H    0.951
                            17 H    0.943
    10   1 H    0.895 --     1 O    0.880
    11   1 H    0.995 --     2 C    0.940
    12   1 H    0.995 --     2 C    0.965
    13   1 H    0.989 --     4 C    0.958
    14   1 H    0.988 --     5 C    0.960
    15   1 H    0.987 --     6 C    0.958
    16   1 H    0.987 --     7 C    0.952
    17   1 H    0.980 --     9 C    0.943
    18   1 H    0.988 --     9 C    0.951
    19   1 H    0.989 --     9 C    0.973
 ---------------------------------------------------------------------------

molecular dipole:
                 x           y           z       tot (Debye)
 q only:        3.134      -5.149       0.218
   full:        3.111      -5.042       0.411      15.095

           -------------------------------------------------
          | TOTAL ENERGY              -26.656486216001 Eh   |
          | GRADIENT NORM               0.000857370011 Eh/α |
          | HOMO-LUMO GAP               3.042326773722 eV   |
           -------------------------------------------------

 * finished run on 2024/12/20 at 07:10:42.119
