   * xtb version 6.7.1 (edcfbbe) compiled by 'conda@3ef47c1a292c' on 2024-11-25

   ID    Z sym.   atoms
    1    6 C      1-8, 10
    2   16 S      9
    3    7 N      11, 12
    4    1 H      13-33

          program call               : xtb C1082.xyz --opt --namespace C1082 --charge +1
          :  Hamiltonian                  GFN2-xTB          :
 * total energy  :   -38.6574303 Eh     change       -0.8937917E-10 Eh
 * total energy  :   -38.6608142 Eh     change       -0.3383907E-02 Eh
 * total energy  :   -38.6620085 Eh     change       -0.1194224E-02 Eh
 * total energy  :   -38.6626813 Eh     change       -0.6728270E-03 Eh
 * total energy  :   -38.6634122 Eh     change       -0.7308922E-03 Eh
 * total energy  :   -38.6640648 Eh     change       -0.6525797E-03 Eh
 * total energy  :   -38.6645187 Eh     change       -0.4538881E-03 Eh
 * total energy  :   -38.6648603 Eh     change       -0.3416827E-03 Eh
 * total energy  :   -38.6651397 Eh     change       -0.2793572E-03 Eh
 * total energy  :   -38.6653651 Eh     change       -0.2254454E-03 Eh
 * total energy  :   -38.6671168 Eh     change       -0.6253057E-04 Eh
 * total energy  :   -38.6671815 Eh     change       -0.6476775E-04 Eh
 * total energy  :   -38.6672355 Eh     change       -0.5396457E-04 Eh
 * total energy  :   -38.6672722 Eh     change       -0.3667092E-04 Eh
 * total energy  :   -38.6672959 Eh     change       -0.2372274E-04 Eh
 * total energy  :   -38.6673111 Eh     change       -0.1518306E-04 Eh
 * total energy  :   -38.6673345 Eh     change       -0.2346770E-04 Eh
 * total energy  :   -38.6673438 Eh     change       -0.9227258E-05 Eh
 * total energy  :   -38.6673480 Eh     change       -0.4275655E-05 Eh
   *** GEOMETRY OPTIMIZATION CONVERGED AFTER 33 ITERATIONS ***

 final structure:
================
33
 xtb: 6.7.1 (edcfbbe)
C            1.35423284431524        0.09893578388429       -0.02321489077100
C            0.37985316002959        0.12786441690206        1.14683220619078
C            0.58790645639884        1.24364695638546        2.17466081045892
C           -0.09431115801649        2.56896837834737        1.81616050037911
C           -1.60100854500722        2.56368670709395        2.09472425549912
C           -1.97737596168922        2.62694872491233        3.57661392825911
C           -1.59274356299718        3.92531438311691        4.28899203123966
C           -2.28887873145693        5.15704378041755        3.72211377658586
S            1.02359146487798        1.30327755673938       -1.37299237954671
C            2.02434914605830        2.67782332484448       -1.06699037729033
N            2.72379069976823        2.83202837298799        0.04363141129104
N            2.07304462151018        3.58487956414974       -2.03198129575118
H            1.25078619432988       -0.85055921913477       -0.55134638375012
H            2.39468007842551        0.20257262880553        0.28192074178046
H           -0.64069366917487        0.16833383061938        0.76456380316906
H            0.49538420868358       -0.83449599722247        1.65071637846391
H            0.17807632142414        0.90439645263186        3.12584492973876
H            1.66067694850446        1.38862534337603        2.34725898921849
H            0.36508908671389        3.37347153314364        2.39157131071768
H            0.05189054374725        2.79665008834376        0.75774468762734
H           -2.05003905417391        3.41485465847688        1.58220289689079
H           -2.04371447174440        1.66218272089423        1.66583658192810
H           -3.05949134553767        2.50363789059203        3.64997035433545
H           -1.52256765104817        1.78881790151258        4.10910076897432
H           -1.86931549912900        3.82146179926780        5.33983106243391
H           -0.51045717415129        4.06977308140624        4.25711194417632
H           -3.36651081161842        5.01299748918129        3.71303921587716
H           -2.06714212151558        6.02695324669241        4.33508785874272
H           -1.96076181191414        5.36976361972006        2.70719610814168
H            3.29974476222148        3.64865399997598        0.18588570295124
H            2.58518935993437        2.21544047323540        0.83229096356568
H            1.56559321545479        3.44086264390754       -2.89122674239739
H            2.61258245677759        4.43288786479468       -1.94283114913497

          :  Hamiltonian                  GFN2-xTB          :
         :: total energy             -38.667348030568 Eh    ::
         :: gradient norm              0.000518376196 Eh/a0 ::
         :: HOMO-LUMO gap              2.210454789197 eV    ::
         :: SCC energy               -39.200094510269 Eh    ::
         :: -> dispersion             -0.025709736313 Eh    ::
         :: repulsion energy           0.532746479702 Eh    ::

    * Orbital Energies and Occupations

         #    Occupation            Energy/Eh            Energy/eV
      -------------------------------------------------------------
         1        2.0000           -0.9061902             -24.6587
       ...           ...                  ...                  ...
        24        2.0000           -0.5946374             -16.1809
        25        2.0000           -0.5909302             -16.0800
        26        2.0000           -0.5823511             -15.8466
        27        2.0000           -0.5717302             -15.5576
        28        2.0000           -0.5676619             -15.4469
        29        2.0000           -0.5622303             -15.2991
        30        2.0000           -0.5519389             -15.0190
        31        2.0000           -0.5438846             -14.7999
        32        2.0000           -0.5389588             -14.6658
        33        2.0000           -0.5318215             -14.4716
        34        2.0000           -0.5106754             -13.8962
        35        2.0000           -0.5070160             -13.7966
        36        2.0000           -0.5028281             -13.6827 (HOMO)
        37                         -0.4215954             -11.4722 (LUMO)
        38                         -0.3655917              -9.9483
        39                         -0.3265525              -8.8859
        40                         -0.1909285              -5.1954
        41                         -0.1850011              -5.0341
        42                         -0.1679036              -4.5689
        43                         -0.1288591              -3.5064
        44                         -0.1031299              -2.8063
        45                         -0.0627630              -1.7079
        46                         -0.0433308              -1.1791
        47                         -0.0384009              -1.0449
       ...                                ...                  ...
        74                          0.3570275               9.7152
      -------------------------------------------------------------
                  HL-Gap            0.0812327 Eh            2.2105 eV

     #   Z          covCN         q      C6AA      α(0)
     1   6 C        3.792    -0.032    21.162     6.551
     2   6 C        3.812    -0.072    21.860     6.655
     3   6 C        3.799    -0.067    21.781     6.645
     4   6 C        3.800    -0.064    21.737     6.638
     5   6 C        3.800    -0.062    21.696     6.632
     6   6 C        3.801    -0.062    21.696     6.632
     7   6 C        3.799    -0.055    21.555     6.610
     8   6 C        3.751    -0.105    22.573     6.776
     9  16 S        2.074     0.023   140.111    19.922
    10   6 C        2.795     0.193    23.881     8.005
    11   7 N        2.677    -0.210    25.570     7.510
    12   7 N        2.725    -0.204    25.438     7.491
    13   1 H        0.925     0.094     1.844     2.124
    14   1 H        0.925     0.071     2.071     2.251
    15   1 H        0.924     0.072     2.059     2.244
    16   1 H        0.924     0.071     2.073     2.252
    17   1 H        0.925     0.068     2.112     2.273
    18   1 H        0.924     0.020     2.738     2.587
    19   1 H        0.924     0.042     2.425     2.435
    20   1 H        0.924     0.012     2.851     2.641
    21   1 H        0.924     0.044     2.402     2.424
    22   1 H        0.924     0.033     2.544     2.494
    23   1 H        0.924     0.043     2.404     2.425
    24   1 H        0.924     0.030     2.584     2.514
    25   1 H        0.924     0.039     2.461     2.453
    26   1 H        0.924     0.025     2.664     2.552
    27   1 H        0.925     0.042     2.429     2.437
    28   1 H        0.925     0.040     2.454     2.450
    29   1 H        0.925     0.029     2.601     2.522
    30   1 H        0.860     0.227     0.976     1.548
    31   1 H        0.860     0.243     0.911     1.495
    32   1 H        0.860     0.241     0.920     1.503
    33   1 H        0.860     0.232     0.955     1.531

Wiberg/Mayer (AO) data.
largest (>0.10) Wiberg bond orders for each atom

     #   Z sym  total        # sym  WBO       # sym  WBO       # sym  WBO
 ---------------------------------------------------------------------------
     1   6 C    3.945 --     2 C    1.012    14 H    0.961     9 S    0.959
                            13 H    0.958
     2   6 C    3.984 --     1 C    1.012     3 C    1.007    15 H    0.966
                            16 H    0.959
     3   6 C    3.992 --     2 C    1.007     4 C    1.006    17 H    0.966
                            18 H    0.963
     4   6 C    3.996 --     5 C    1.006     3 C    1.006    20 H    0.975
                            19 H    0.972
     5   6 C    3.995 --     6 C    1.008     4 C    1.006    22 H    0.974
                            21 H    0.974
     6   6 C    3.996 --     5 C    1.008     7 C    1.008    23 H    0.975
                            24 H    0.973
     7   6 C    3.997 --     8 C    1.020     6 C    1.008    25 H    0.977
                            26 H    0.975
     8   6 C    3.996 --     7 C    1.020    27 H    0.987    28 H    0.987
                            29 H    0.986
     9  16 S    2.470 --    10 C    1.205     1 C    0.959
    10   6 C    3.971 --    11 N    1.372    12 N    1.366     9 S    1.205
    11   7 N    3.449 --    10 C    1.372    30 H    0.921    31 H    0.897
                            12 N    0.124
    12   7 N    3.454 --    10 C    1.366    32 H    0.924    33 H    0.921
                            11 N    0.124
    13   1 H    0.991 --     1 C    0.958
    14   1 H    0.995 --     1 C    0.961
    15   1 H    0.995 --     2 C    0.966
    16   1 H    0.994 --     2 C    0.959
    17   1 H    0.995 --     3 C    0.966
    18   1 H    1.000 --     3 C    0.963
    19   1 H    0.998 --     4 C    0.972
    20   1 H    1.000 --     4 C    0.975
    21   1 H    0.998 --     5 C    0.974
    22   1 H    0.999 --     5 C    0.974
    23   1 H    0.998 --     6 C    0.975
    24   1 H    0.999 --     6 C    0.973
    25   1 H    0.998 --     7 C    0.977
    26   1 H    0.999 --     7 C    0.975
    27   1 H    0.998 --     8 C    0.987
    28   1 H    0.998 --     8 C    0.987
    29   1 H    0.999 --     8 C    0.986
    30   1 H    0.948 --    11 N    0.921
    31   1 H    0.941 --    11 N    0.897
    32   1 H    0.942 --    12 N    0.924
    33   1 H    0.945 --    12 N    0.921
 ---------------------------------------------------------------------------

molecular dipole:
                 x           y           z       tot (Debye)
 q only:        3.524       4.679      -0.801
   full:        3.748       4.706      -0.677      15.389

           -------------------------------------------------
          | TOTAL ENERGY              -38.667348030568 Eh   |
          | GRADIENT NORM               0.000518376196 Eh/α |
          | HOMO-LUMO GAP               2.210454789197 eV   |
           -------------------------------------------------

 * finished run on 2024/12/20 at 07:10:40.823
