   * xtb version 6.7.1 (edcfbbe) compiled by 'conda@3ef47c1a292c' on 2024-11-25

   ID    Z sym.   atoms
    1    6 C      1, 3, 5, 6, 9, 10
    2    7 N      2, 4, 7, 8
    3    1 H      11-23

          program call               : xtb C1083.xyz --opt --namespace C1083 --charge +1
          :  Hamiltonian                  GFN2-xTB          :
 * total energy  :   -30.7804772 Eh     change       -0.2021139E-10 Eh
 * total energy  :   -30.7901749 Eh     change       -0.9697688E-02 Eh
 * total energy  :   -30.7922848 Eh     change       -0.2109894E-02 Eh
 * total energy  :   -30.7926033 Eh     change       -0.3185621E-03 Eh
 * total energy  :   -30.7929544 Eh     change       -0.3511180E-03 Eh
 * total energy  :   -30.7930783 Eh     change       -0.1238748E-03 Eh
 * total energy  :   -30.7932607 Eh     change       -0.1824354E-03 Eh
 * total energy  :   -30.7934074 Eh     change       -0.1466679E-03 Eh
 * total energy  :   -30.7934980 Eh     change       -0.9062916E-04 Eh
 * total energy  :   -30.7935479 Eh     change       -0.4986821E-04 Eh
 * total energy  :   -30.7935705 Eh     change       -0.2256911E-04 Eh
 * total energy  :   -30.7935828 Eh     change       -0.1228981E-04 Eh
 * total energy  :   -30.7935960 Eh     change       -0.1322191E-04 Eh
 * total energy  :   -30.7936074 Eh     change       -0.1141220E-04 Eh
 * total energy  :   -30.7936102 Eh     change       -0.2787508E-05 Eh
   *** GEOMETRY OPTIMIZATION CONVERGED AFTER 15 ITERATIONS ***

 final structure:
================
23
 xtb: 6.7.1 (edcfbbe)
C            0.64346816359507       -0.09786556489352       -0.46656844939569
N            0.58291129642455       -1.19679653843660        0.47983675784645
C           -0.11332431304680       -1.13029838262107        1.61438588944258
N           -0.71477115243146       -2.16775010129685        2.26775507385431
C           -0.84083665094352       -3.55024339769891        1.87613621042956
C           -1.30969468963303       -1.62010615492676        3.37178851776759
N           -1.12590148630189       -0.35008151969316        3.42062598982048
N           -0.38291913197220       -0.02770166050404        2.34880437079146
C            0.04400698947072        1.34027674100426        2.20730850450515
C            1.39982206192628       -2.34204043251504        0.12013629916568
H           -0.18853240812515        0.58376936530514       -0.32385627500417
H            0.56785950581765       -0.51631790190534       -1.47123789819761
H            1.58753484976712        0.44575850398117       -0.39493090340190
H           -0.93657555451399       -3.63075573374159        0.79565887944608
H            0.01119222422385       -4.14063628384344        2.21605407695443
H           -1.74063957449335       -3.95360586037191        2.33749579672816
H           -1.86052395490718       -2.18053459781005        4.09814289458954
H           -0.58925830130146        1.89014501489729        1.51088274328336
H           -0.05694410917851        1.79677349188850        3.19062194623526
H            1.08268162430013        1.38925630461031        1.89015316217396
H            0.94618925909999       -2.91805319247070       -0.68771284058356
H            2.36568557364571       -1.97370054758434       -0.22743154479286
H            1.57624977857759       -2.98290155137336        0.97750079834170

          :  Hamiltonian                  GFN2-xTB          :
         :: total energy             -30.793610186971 Eh    ::
         :: gradient norm              0.000849794759 Eh/a0 ::
         :: HOMO-LUMO gap              3.975714739927 eV    ::
         :: SCC energy               -31.206894374352 Eh    ::
         :: -> dispersion             -0.017113242187 Eh    ::
         :: repulsion energy           0.413284187381 Eh    ::

    * Orbital Energies and Occupations

         #    Occupation            Energy/Eh            Energy/eV
      -------------------------------------------------------------
         1        2.0000           -0.9045511             -24.6141
       ...           ...                  ...                  ...
        16        2.0000           -0.6921831             -18.8353
        17        2.0000           -0.6786985             -18.4683
        18        2.0000           -0.6684425             -18.1892
        19        2.0000           -0.6516756             -17.7330
        20        2.0000           -0.6482727             -17.6404
        21        2.0000           -0.6389023             -17.3854
        22        2.0000           -0.6373226             -17.3424
        23        2.0000           -0.6268899             -17.0585
        24        2.0000           -0.6211767             -16.9031
        25        2.0000           -0.6170693             -16.7913
        26        2.0000           -0.5993137             -16.3082
        27        2.0000           -0.5784825             -15.7413
        28        2.0000           -0.5379852             -14.6393 (HOMO)
        29                         -0.3918804             -10.6636 (LUMO)
        30                         -0.3816759             -10.3859
        31                         -0.2170721              -5.9068
        32                         -0.1597648              -4.3474
        33                         -0.1516320              -4.1261
        34                         -0.0894750              -2.4347
        35                         -0.0787993              -2.1442
        36                         -0.0357934              -0.9740
        37                         -0.0305503              -0.8313
        38                         -0.0196216              -0.5339
        39                          0.0048896               0.1331
       ...                                ...                  ...
        53                          0.3910239              10.6403
      -------------------------------------------------------------
                  HL-Gap            0.1461048 Eh            3.9757 eV

     #   Z          covCN         q      C6AA      α(0)
     1   6 C        3.700    -0.073    22.071     6.719
     2   7 N        2.728    -0.058    22.362     7.023
     3   6 C        2.983     0.161    24.518     8.122
     4   7 N        2.837    -0.011    21.466     6.881
     5   6 C        3.689    -0.072    22.086     6.726
     6   6 C        3.089     0.086    25.988     8.356
     7   7 N        2.011    -0.160    25.190     7.444
     8   7 N        3.035     0.080    19.852     6.617
     9   6 C        3.691    -0.084    22.303     6.758
    10   6 C        3.700    -0.071    22.024     6.712
    11   1 H        0.925     0.078     2.004     2.214
    12   1 H        0.924     0.092     1.855     2.130
    13   1 H        0.924     0.078     2.004     2.214
    14   1 H        0.925     0.094     1.840     2.121
    15   1 H        0.924     0.091     1.865     2.136
    16   1 H        0.925     0.102     1.770     2.081
    17   1 H        0.927     0.110     1.698     2.038
    18   1 H        0.925     0.096     1.823     2.112
    19   1 H        0.925     0.124     1.580     1.966
    20   1 H        0.925     0.094     1.841     2.122
    21   1 H        0.924     0.078     2.003     2.213
    22   1 H        0.924     0.091     1.871     2.139
    23   1 H        0.925     0.076     2.023     2.224

Wiberg/Mayer (AO) data.
largest (>0.10) Wiberg bond orders for each atom

     #   Z sym  total        # sym  WBO       # sym  WBO       # sym  WBO
 ---------------------------------------------------------------------------
     1   6 C    3.947 --     2 N    0.981    11 H    0.978    13 H    0.973
                            12 H    0.970
     2   7 N    3.481 --     3 C    1.272     1 C    0.981    10 C    0.980
     3   6 C    3.967 --     2 N    1.272     8 N    1.266     4 N    1.212
     4   7 N    3.636 --     3 C    1.212     6 C    1.194     5 C    0.986
     5   6 C    3.937 --     4 N    0.986    14 H    0.972    16 H    0.971
                            15 H    0.965
     6   6 C    3.950 --     7 N    1.646     4 N    1.194    17 H    0.954
     7   7 N    3.019 --     6 C    1.646     8 N    1.151
     8   7 N    3.658 --     3 C    1.266     7 N    1.151     9 C    0.984
     9   6 C    3.930 --     8 N    0.984    20 H    0.970    19 H    0.966
                            18 H    0.962
    10   6 C    3.948 --     2 N    0.980    23 H    0.978    21 H    0.973
                            22 H    0.970
    11   1 H    0.994 --     1 C    0.978
    12   1 H    0.991 --     1 C    0.970
    13   1 H    0.994 --     1 C    0.973
    14   1 H    0.991 --     5 C    0.972
    15   1 H    0.991 --     5 C    0.965
    16   1 H    0.989 --     5 C    0.971
    17   1 H    0.987 --     6 C    0.954
    18   1 H    0.990 --     9 C    0.962
    19   1 H    0.984 --     9 C    0.966
    20   1 H    0.991 --     9 C    0.970
    21   1 H    0.994 --    10 C    0.973
    22   1 H    0.991 --    10 C    0.970
    23   1 H    0.994 --    10 C    0.978
 ---------------------------------------------------------------------------

molecular dipole:
                 x           y           z       tot (Debye)
 q only:        0.080      -2.425       2.520
   full:        0.138      -2.748       2.348       9.193

           -------------------------------------------------
          | TOTAL ENERGY              -30.793610186971 Eh   |
          | GRADIENT NORM               0.000849794759 Eh/α |
          | HOMO-LUMO GAP               3.975714739927 eV   |
           -------------------------------------------------

 * finished run on 2024/12/20 at 07:10:41.190
