   * xtb version 6.7.1 (edcfbbe) compiled by 'conda@3ef47c1a292c' on 2024-11-25

   ID    Z sym.   atoms
    1    7 N      1
    2    6 C      2-5
    3    1 H      6-17

          program call               : xtb C1086.xyz --opt --namespace C1086 --charge +1
          :  Hamiltonian                  GFN2-xTB          :
 * total energy  :   -17.1712042 Eh     change       -0.7933210E-11 Eh
 * total energy  :   -17.1725067 Eh     change       -0.1302423E-02 Eh
 * total energy  :   -17.1727016 Eh     change       -0.1949160E-03 Eh
 * total energy  :   -17.1727581 Eh     change       -0.5657269E-04 Eh
 * total energy  :   -17.1727932 Eh     change       -0.3502152E-04 Eh
 * total energy  :   -17.1728398 Eh     change       -0.4663848E-04 Eh
 * total energy  :   -17.1728634 Eh     change       -0.2362203E-04 Eh
 * total energy  :   -17.1728858 Eh     change       -0.2239262E-04 Eh
 * total energy  :   -17.1728900 Eh     change       -0.4167521E-05 Eh
   *** GEOMETRY OPTIMIZATION CONVERGED AFTER 9 ITERATIONS ***

 final structure:
================
17
 xtb: 6.7.1 (edcfbbe)
N            0.96071396965835       -0.00967346032628       -0.15057209700886
C            0.48199176734682       -1.39205511833009        0.15809281030564
C            0.97325118734674       -1.84519788716107        1.53486481844001
C            0.46448827353828       -0.91264652163537        2.63274130876529
C            0.48740422268325       -3.27291542627796        1.77546980120673
H            0.65727328484349        0.61295077461089        0.61217553789130
H            0.58582617974510        0.33342623771030       -1.04246643207764
H            1.98785295314140        0.00682306717832       -0.19237754736985
H           -0.60930612552830       -1.38870192520602        0.13832655469458
H            0.84232815751853       -2.06868126872967       -0.61767684315092
H            2.06833612564262       -1.84641274882202        1.54020795575727
H           -0.61835157157740       -0.81994719168816        2.59079987998103
H            0.71859150391707       -1.32655691473669        3.60397572145493
H            0.91392814390417        0.07914716796053        2.58876452719443
H            0.83989995014663       -3.94227319550504        0.99586936527582
H            0.86103874166612       -3.63787839642274        2.72673994713225
H           -0.59815676399286       -3.31009719261891        1.80081469150799

          :  Hamiltonian                  GFN2-xTB          :
         :: total energy             -17.172889987394 Eh    ::
         :: gradient norm              0.000558224422 Eh/a0 ::
         :: HOMO-LUMO gap              8.686100375580 eV    ::
         :: SCC energy               -17.424294614840 Eh    ::
         :: -> dispersion             -0.007747031314 Eh    ::
         :: repulsion energy           0.251404627445 Eh    ::

    * Orbital Energies and Occupations

         #    Occupation            Energy/Eh            Energy/eV
      -------------------------------------------------------------
         1        2.0000           -0.8946544             -24.3448
       ...           ...                  ...                  ...
         4        2.0000           -0.8009651             -21.7954
         5        2.0000           -0.7813438             -21.2614
         6        2.0000           -0.7464798             -20.3127
         7        2.0000           -0.7249282             -19.7263
         8        2.0000           -0.7110013             -19.3473
         9        2.0000           -0.6854831             -18.6529
        10        2.0000           -0.6596660             -17.9504
        11        2.0000           -0.6420361             -17.4707
        12        2.0000           -0.6210545             -16.8998
        13        2.0000           -0.6032797             -16.4161
        14        2.0000           -0.5959237             -16.2159
        15        2.0000           -0.5868089             -15.9679
        16        2.0000           -0.5813792             -15.8201 (HOMO)
        17                         -0.2621709              -7.1340 (LUMO)
        18                         -0.1610879              -4.3834
        19                         -0.1072545              -2.9185
        20                         -0.0999989              -2.7211
        21                         -0.0686302              -1.8675
        22                         -0.0633087              -1.7227
        23                         -0.0173230              -0.4714
        24                         -0.0155790              -0.4239
        25                          0.0172106               0.4683
        26                          0.0513607               1.3976
        27                          0.0659086               1.7935
       ...                                ...                  ...
        32                          0.1459790               3.9723
      -------------------------------------------------------------
                  HL-Gap            0.3192083 Eh            8.6861 eV

     #   Z          covCN         q      C6AA      α(0)
     1   7 N        3.483    -0.129    23.796     7.245
     2   6 C        3.736    -0.040    21.374     6.598
     3   6 C        3.850    -0.021    20.922     6.506
     4   6 C        3.755    -0.133    23.118     6.856
     5   6 C        3.758    -0.128    23.008     6.839
     6   1 H        0.859     0.276     0.788     1.390
     7   1 H        0.859     0.268     0.817     1.416
     8   1 H        0.859     0.269     0.814     1.413
     9   1 H        0.924     0.107     1.721     2.051
    10   1 H        0.924     0.104     1.751     2.070
    11   1 H        0.924     0.057     2.240     2.340
    12   1 H        0.925     0.059     2.214     2.327
    13   1 H        0.925     0.082     1.959     2.189
    14   1 H        0.925     0.034     2.523     2.484
    15   1 H        0.925     0.058     2.224     2.332
    16   1 H        0.925     0.077     2.015     2.220
    17   1 H        0.925     0.062     2.180     2.309

Wiberg/Mayer (AO) data.
largest (>0.10) Wiberg bond orders for each atom

     #   Z sym  total        # sym  WBO       # sym  WBO       # sym  WBO
 ---------------------------------------------------------------------------
     1   7 N    3.675 --     2 C    0.923     7 H    0.914     8 H    0.912
                             6 H    0.896
     2   6 C    3.884 --     3 C    0.991    10 H    0.968     9 H    0.965
                             1 N    0.923
     3   6 C    3.983 --     4 C    1.009     5 C    1.001     2 C    0.991
                            11 H    0.965
     4   6 C    3.989 --     3 C    1.009    12 H    0.984    13 H    0.978
                            14 H    0.977
     5   6 C    3.985 --     3 C    1.001    17 H    0.984    15 H    0.983
                            16 H    0.980
     6   1 H    0.924 --     1 N    0.896
     7   1 H    0.928 --     1 N    0.914
     8   1 H    0.928 --     1 N    0.912
     9   1 H    0.989 --     2 C    0.965
    10   1 H    0.989 --     2 C    0.968
    11   1 H    0.997 --     3 C    0.965
    12   1 H    0.997 --     4 C    0.984
    13   1 H    0.993 --     4 C    0.978
    14   1 H    0.999 --     4 C    0.977
    15   1 H    0.997 --     5 C    0.983
    16   1 H    0.994 --     5 C    0.980
    17   1 H    0.996 --     5 C    0.984
 ---------------------------------------------------------------------------

molecular dipole:
                 x           y           z       tot (Debye)
 q only:        1.617      -0.822       0.363
   full:        1.692      -0.558       0.215       4.562

           -------------------------------------------------
          | TOTAL ENERGY              -17.172889987394 Eh   |
          | GRADIENT NORM               0.000558224422 Eh/α |
          | HOMO-LUMO GAP               8.686100375580 eV   |
           -------------------------------------------------

 * finished run on 2024/12/20 at 07:10:42.269
