   * xtb version 6.7.1 (edcfbbe) compiled by 'conda@3ef47c1a292c' on 2024-11-25

   ID    Z sym.   atoms
    1    6 C      1, 2, 4, 5, 7-9
    2    7 N      3, 6
    3    1 H      10-24

          program call               : xtb C1084.xyz --opt --namespace C1084 --charge +1
          :  Hamiltonian                  GFN2-xTB          :
 * total energy  :   -28.1262423 Eh     change       -0.2268052E-10 Eh
 * total energy  :   -28.1280857 Eh     change       -0.1843405E-02 Eh
 * total energy  :   -28.1283775 Eh     change       -0.2917150E-03 Eh
 * total energy  :   -28.1284097 Eh     change       -0.3225953E-04 Eh
 * total energy  :   -28.1284462 Eh     change       -0.3653244E-04 Eh
 * total energy  :   -28.1284695 Eh     change       -0.2327940E-04 Eh
 * total energy  :   -28.1285518 Eh     change       -0.8230900E-04 Eh
 * total energy  :   -28.1285769 Eh     change       -0.2511321E-04 Eh
 * total energy  :   -28.1286083 Eh     change       -0.3133117E-04 Eh
 * total energy  :   -28.1286505 Eh     change       -0.4217553E-04 Eh
 * total energy  :   -28.1286405 Eh     change        0.3873929E-04 Eh
 * total energy  :   -28.1285703 Eh     change        0.7013843E-04 Eh
 * total energy  :   -28.1287049 Eh     change       -0.1345433E-03 Eh
 * total energy  :   -28.1287278 Eh     change       -0.2295012E-04 Eh
 * total energy  :   -28.1287355 Eh     change       -0.7664037E-05 Eh
 * total energy  :   -28.1287422 Eh     change       -0.6661559E-05 Eh
 * total energy  :   -28.1287591 Eh     change       -0.1695940E-04 Eh
 * total energy  :   -28.1287641 Eh     change       -0.5003267E-05 Eh
 * total energy  :   -28.1287671 Eh     change       -0.2976620E-05 Eh
   *** GEOMETRY OPTIMIZATION CONVERGED AFTER 20 ITERATIONS ***

 final structure:
================
24
 xtb: 6.7.1 (edcfbbe)
C            1.30250610151779       -0.31422835398744        0.17731016632842
C            0.30635891955632       -0.17570536852095        1.32463608137829
N            0.67716935047182        0.88279355589085        2.23825111553198
C            0.43850506535359        2.17634254675492        2.13374240965674
C           -0.36511784166403        2.82060885702195        1.07460112454721
N            1.00818226135277        2.86556066884091        3.10573931095540
C            0.89351913162258        4.27891621537751        3.34361056395460
C            1.72068445291472        1.98971254407355        4.02553352347988
C            1.52417702345861        0.60401192600672        3.39299135632249
H            1.36117866016903        0.60349262792370       -0.40192956696388
H            0.98382268519614       -1.11595591687983       -0.48155413959540
H            2.29408875109883       -0.55604262856169        0.54968008329783
H           -0.69513558527178        0.01830175448530        0.93545449516936
H            0.26915203997496       -1.10249329048234        1.90024701217844
H            0.27420778103559        3.45175976430956        0.45683963403687
H           -0.84683582781757        2.09051918706615        0.43274074128049
H           -1.12626908969082        3.46055134620440        1.51912130103514
H            0.96602132878388        4.83312910728278        2.40900382962687
H           -0.05637250617641        4.52123236430636        3.82643465175721
H            1.70356890465609        4.59290362380058        3.99832672593329
H            1.28639555753777        2.06145555234170        5.02644960267794
H            2.77209521971161        2.28270551981930        4.08350144898364
H            2.46568004871994        0.15412603074626        3.06790888489968
H            1.01991756748858       -0.09791763382047        4.06182964352766

          :  Hamiltonian                  GFN2-xTB          :
         :: total energy             -28.128767095050 Eh    ::
         :: gradient norm              0.000325940260 Eh/a0 ::
         :: HOMO-LUMO gap              3.911757971290 eV    ::
         :: SCC energy               -28.532522736139 Eh    ::
         :: -> dispersion             -0.016059742914 Eh    ::
         :: repulsion energy           0.403755641089 Eh    ::

    * Orbital Energies and Occupations

         #    Occupation            Energy/Eh            Energy/eV
      -------------------------------------------------------------
         1        2.0000           -0.8745994             -23.7991
       ...           ...                  ...                  ...
        14        2.0000           -0.6731202             -18.3165
        15        2.0000           -0.6706980             -18.2506
        16        2.0000           -0.6669537             -18.1487
        17        2.0000           -0.6464587             -17.5910
        18        2.0000           -0.6429697             -17.4961
        19        2.0000           -0.6400175             -17.4158
        20        2.0000           -0.6347863             -17.2734
        21        2.0000           -0.6274699             -17.0743
        22        2.0000           -0.6229733             -16.9520
        23        2.0000           -0.6072109             -16.5230
        24        2.0000           -0.5963058             -16.2263
        25        2.0000           -0.5851425             -15.9225
        26        2.0000           -0.5416604             -14.7393 (HOMO)
        27                         -0.3979060             -10.8276 (LUMO)
        28                         -0.2076910              -5.6516
        29                         -0.1406394              -3.8270
        30                         -0.1164177              -3.1679
        31                         -0.1107969              -3.0149
        32                         -0.0550048              -1.4968
        33                         -0.0362709              -0.9870
        34                         -0.0296041              -0.8056
        35                         -0.0186467              -0.5074
        36                         -0.0091426              -0.2488
        37                          0.0106430               0.2896
       ...                                ...                  ...
        51                          0.3487908               9.4911
      -------------------------------------------------------------
                  HL-Gap            0.1437545 Eh            3.9118 eV

     #   Z          covCN         q      C6AA      α(0)
     1   6 C        3.752    -0.124    22.948     6.831
     2   6 C        3.738    -0.015    20.930     6.528
     3   7 N        2.789    -0.022    21.664     6.913
     4   6 C        2.930     0.149    24.759     8.160
     5   6 C        3.756    -0.141    23.265     6.877
     6   7 N        2.791    -0.015    21.548     6.894
     7   6 C        3.690    -0.076    22.150     6.735
     8   6 C        3.804    -0.024    21.005     6.525
     9   6 C        3.809    -0.023    20.977     6.520
    10   1 H        0.925     0.058     2.218     2.329
    11   1 H        0.925     0.078     1.998     2.211
    12   1 H        0.925     0.061     2.186     2.312
    13   1 H        0.924     0.076     2.023     2.224
    14   1 H        0.924     0.081     1.965     2.192
    15   1 H        0.924     0.106     1.729     2.057
    16   1 H        0.925     0.097     1.809     2.104
    17   1 H        0.925     0.104     1.749     2.068
    18   1 H        0.925     0.090     1.876     2.142
    19   1 H        0.924     0.087     1.912     2.163
    20   1 H        0.925     0.095     1.834     2.118
    21   1 H        0.924     0.089     1.886     2.148
    22   1 H        0.924     0.090     1.884     2.146
    23   1 H        0.924     0.090     1.878     2.143
    24   1 H        0.924     0.089     1.892     2.151

Wiberg/Mayer (AO) data.
largest (>0.10) Wiberg bond orders for each atom

     #   Z sym  total        # sym  WBO       # sym  WBO       # sym  WBO
 ---------------------------------------------------------------------------
     1   6 C    3.984 --     2 C    1.004    10 H    0.985    12 H    0.984
                            11 H    0.978
     2   6 C    3.948 --     1 C    1.004     3 N    0.974    14 H    0.967
                            13 H    0.961
     3   7 N    3.592 --     4 C    1.387     9 C    0.974     2 C    0.974
                             6 N    0.152
     4   6 C    3.961 --     3 N    1.387     6 N    1.380     5 C    1.044
     5   6 C    3.977 --     4 C    1.044    16 H    0.969    17 H    0.953
                            15 H    0.942
     6   7 N    3.590 --     4 C    1.380     7 C    0.996     8 C    0.975
                             3 N    0.152
     7   6 C    3.945 --     6 N    0.996    20 H    0.975    18 H    0.970
                            19 H    0.964
     8   6 C    3.960 --     9 C    1.003     6 N    0.975    22 H    0.965
                            21 H    0.964
     9   6 C    3.961 --     8 C    1.003     3 N    0.974    24 H    0.965
                            23 H    0.964
    10   1 H    0.997 --     1 C    0.985
    11   1 H    0.993 --     1 C    0.978
    12   1 H    0.996 --     1 C    0.984
    13   1 H    0.994 --     2 C    0.961
    14   1 H    0.993 --     2 C    0.967
    15   1 H    0.989 --     5 C    0.942
    16   1 H    0.991 --     5 C    0.969
    17   1 H    0.989 --     5 C    0.953
    18   1 H    0.992 --     7 C    0.970
    19   1 H    0.992 --     7 C    0.964
    20   1 H    0.991 --     7 C    0.975
    21   1 H    0.992 --     8 C    0.964
    22   1 H    0.992 --     8 C    0.965
    23   1 H    0.992 --     9 C    0.964
    24   1 H    0.992 --     9 C    0.965
 ---------------------------------------------------------------------------

molecular dipole:
                 x           y           z       tot (Debye)
 q only:        1.492       3.650       4.580
   full:        1.466       3.676       4.624      15.469

           -------------------------------------------------
          | TOTAL ENERGY              -28.128767095050 Eh   |
          | GRADIENT NORM               0.000325940260 Eh/α |
          | HOMO-LUMO GAP               3.911757971290 eV   |
           -------------------------------------------------

 * finished run on 2024/12/20 at 07:10:41.706
