   * xtb version 6.7.1 (edcfbbe) compiled by 'conda@3ef47c1a292c' on 2024-11-25

   ID    Z sym.   atoms
    1    6 C      1, 2, 4, 5, 7-9
    2    7 N      3, 6
    3    1 H      10-20

          program call               : xtb C1087.xyz --opt --namespace C1087 --charge +1
          :  Hamiltonian                  GFN2-xTB          :
 * total energy  :   -26.0365972 Eh     change       -0.1111289E-10 Eh
 * total energy  :   -26.0393924 Eh     change       -0.2795197E-02 Eh
 * total energy  :   -26.0400026 Eh     change       -0.6101465E-03 Eh
 * total energy  :   -26.0400935 Eh     change       -0.9093866E-04 Eh
 * total energy  :   -26.0401362 Eh     change       -0.4268460E-04 Eh
 * total energy  :   -26.0401528 Eh     change       -0.1661027E-04 Eh
 * total energy  :   -26.0401538 Eh     change       -0.1034120E-05 Eh
 * total energy  :   -26.0401693 Eh     change       -0.1541884E-04 Eh
 * total energy  :   -26.0401905 Eh     change       -0.2128020E-04 Eh
 * total energy  :   -26.0402081 Eh     change       -0.1752222E-04 Eh
 * total energy  :   -26.0402420 Eh     change       -0.1627536E-04 Eh
 * total energy  :   -26.0402588 Eh     change       -0.1679363E-04 Eh
 * total energy  :   -26.0402783 Eh     change       -0.1950914E-04 Eh
 * total energy  :   -26.0403028 Eh     change       -0.2444639E-04 Eh
 * total energy  :   -26.0403266 Eh     change       -0.2389467E-04 Eh
 * total energy  :   -26.0403469 Eh     change       -0.2022273E-04 Eh
 * total energy  :   -26.0403597 Eh     change       -0.1278535E-04 Eh
 * total energy  :   -26.0403657 Eh     change       -0.6028229E-05 Eh
 * total energy  :   -26.0403687 Eh     change       -0.3033814E-05 Eh
   *** GEOMETRY OPTIMIZATION CONVERGED AFTER 20 ITERATIONS ***

 final structure:
================
20
 xtb: 6.7.1 (edcfbbe)
C            0.97246150765261        0.13176190422027       -0.39412343081688
C            0.23062232844064       -0.96175594626218       -0.42919937550079
N           -1.16275006635152       -0.97714904785845       -0.61452932916246
C           -1.98668945481102        0.08099439881917       -0.88137523899508
C           -3.25378266507153       -0.40615174258716       -0.97041014233637
N           -3.19426495283880       -1.74958203565349       -0.75249307488664
C           -1.92287212445428       -2.07431926346506       -0.54624442690520
C           -4.31567078736221       -2.66234065422543       -0.81151231983147
C           -4.60219704366069       -3.07414391909550       -2.25240179855087
H            0.57627261248354        1.12601298764743       -0.50268031391849
H            2.03447734250929        0.05622418868088       -0.24741329978115
H            0.65187813546368       -1.94906563821399       -0.30883182643197
H           -1.63500697373598        1.08491098228207       -0.99376806192824
H           -4.17420595430241        0.10621054372771       -1.16490283312245
H           -1.56179365015717       -3.06504343577780       -0.34619147777191
H           -4.08013901139177       -3.53984030588858       -0.20622336509649
H           -5.18598839619498       -2.16066055291114       -0.38298063005216
H           -3.74848431584392       -3.58782663093534       -2.68791539918403
H           -5.45237723569633       -3.74899524666786       -2.26901440914146
H           -4.84077929467753       -2.20791058583544       -2.86452924658592

          :  Hamiltonian                  GFN2-xTB          :
         :: total energy             -26.040368720693 Eh    ::
         :: gradient norm              0.000545126634 Eh/a0 ::
         :: HOMO-LUMO gap              3.949502590615 eV    ::
         :: SCC energy               -26.469609318481 Eh    ::
         :: -> dispersion             -0.013396457205 Eh    ::
         :: repulsion energy           0.429240597787 Eh    ::

    * Orbital Energies and Occupations

         #    Occupation            Energy/Eh            Energy/eV
      -------------------------------------------------------------
         1        2.0000           -0.9011613             -24.5218
       ...           ...                  ...                  ...
        12        2.0000           -0.6995915             -19.0369
        13        2.0000           -0.6895607             -18.7639
        14        2.0000           -0.6808776             -18.5276
        15        2.0000           -0.6773771             -18.4324
        16        2.0000           -0.6633028             -18.0494
        17        2.0000           -0.6557950             -17.8451
        18        2.0000           -0.6412925             -17.4505
        19        2.0000           -0.6231253             -16.9561
        20        2.0000           -0.6082958             -16.5526
        21        2.0000           -0.6057034             -16.4820
        22        2.0000           -0.5962943             -16.2260
        23        2.0000           -0.5928891             -16.1333
        24        2.0000           -0.5756631             -15.6646 (HOMO)
        25                         -0.4305215             -11.7151 (LUMO)
        26                         -0.3841689             -10.4538
        27                         -0.3388271              -9.2200
        28                         -0.1837736              -5.0007
        29                         -0.1313575              -3.5744
        30                         -0.0659989              -1.7959
        31                         -0.0498987              -1.3578
        32                         -0.0376435              -1.0243
        33                         -0.0327306              -0.8906
        34                         -0.0191317              -0.5206
        35                          0.0088611               0.2411
       ...                                ...                  ...
        47                          0.4860421              13.2259
      -------------------------------------------------------------
                  HL-Gap            0.1451415 Eh            3.9495 eV

     #   Z          covCN         q      C6AA      α(0)
     1   6 C        2.838    -0.073    29.821     8.949
     2   6 C        2.831     0.006    27.875     8.652
     3   7 N        2.867     0.082    19.817     6.612
     4   6 C        3.064    -0.005    28.084     8.690
     5   6 C        3.072    -0.004    28.046     8.683
     6   7 N        2.864     0.071    20.007     6.643
     7   6 C        3.100     0.046    26.839     8.490
     8   6 C        3.741    -0.023    21.066     6.549
     9   6 C        3.753    -0.125    22.954     6.832
    10   1 H        0.926     0.091     1.868     2.137
    11   1 H        0.926     0.108     1.717     2.049
    12   1 H        0.926     0.088     1.896     2.153
    13   1 H        0.927     0.112     1.682     2.028
    14   1 H        0.926     0.111     1.687     2.031
    15   1 H        0.926     0.114     1.660     2.015
    16   1 H        0.924     0.087     1.908     2.160
    17   1 H        0.924     0.094     1.838     2.120
    18   1 H        0.925     0.065     2.147     2.291
    19   1 H        0.925     0.087     1.907     2.159
    20   1 H        0.925     0.068     2.105     2.269

Wiberg/Mayer (AO) data.
largest (>0.10) Wiberg bond orders for each atom

     #   Z sym  total        # sym  WBO       # sym  WBO       # sym  WBO
 ---------------------------------------------------------------------------
     1   6 C    3.972 --     2 C    1.911    10 H    0.965    11 H    0.965
     2   6 C    3.942 --     1 C    1.911     3 N    1.033    12 H    0.955
     3   7 N    3.731 --     7 C    1.330     4 C    1.204     2 C    1.033
     4   6 C    3.948 --     5 C    1.602     3 N    1.204    13 H    0.959
     5   6 C    3.950 --     4 C    1.602     6 N    1.222    14 H    0.960
     6   7 N    3.721 --     7 C    1.372     5 C    1.222     8 C    0.965
     7   6 C    3.946 --     6 N    1.372     3 N    1.330    15 H    0.953
     8   6 C    3.936 --     9 C    0.999    16 H    0.966     6 N    0.965
                            17 H    0.962
     9   6 C    3.978 --     8 C    0.999    18 H    0.984    20 H    0.984
                            19 H    0.975
    10   1 H    0.992 --     1 C    0.965
    11   1 H    0.988 --     1 C    0.965
    12   1 H    0.992 --     2 C    0.955
    13   1 H    0.987 --     4 C    0.959
    14   1 H    0.987 --     5 C    0.960
    15   1 H    0.987 --     7 C    0.953
    16   1 H    0.992 --     8 C    0.966
    17   1 H    0.990 --     8 C    0.962
    18   1 H    0.996 --     9 C    0.984
    19   1 H    0.991 --     9 C    0.975
    20   1 H    0.995 --     9 C    0.984
 ---------------------------------------------------------------------------

molecular dipole:
                 x           y           z       tot (Debye)
 q only:       -4.101      -2.589      -1.502
   full:       -4.077      -2.645      -1.439      12.882

           -------------------------------------------------
          | TOTAL ENERGY              -26.040368720693 Eh   |
          | GRADIENT NORM               0.000545126634 Eh/α |
          | HOMO-LUMO GAP               3.949502590615 eV   |
           -------------------------------------------------

 * finished run on 2024/12/20 at 07:10:42.704
