   * xtb version 6.7.1 (edcfbbe) compiled by 'conda@3ef47c1a292c' on 2024-11-25

   ID    Z sym.   atoms
    1    6 C      1-3, 5-11, 13-15
    2    7 N      4
    3    8 O      12
    4    1 H      16-35

          program call               : xtb C1081.xyz --opt --namespace C1081 --charge +1
          :  Hamiltonian                  GFN2-xTB          :
 * total energy  :   -44.5929522 Eh     change       -0.7000409E-09 Eh
 * total energy  :   -44.6013826 Eh     change       -0.8430446E-02 Eh
 * total energy  :   -44.6037961 Eh     change       -0.2413529E-02 Eh
 * total energy  :   -44.6042412 Eh     change       -0.4450163E-03 Eh
 * total energy  :   -44.6045827 Eh     change       -0.3414979E-03 Eh
 * total energy  :   -44.6047576 Eh     change       -0.1749751E-03 Eh
 * total energy  :   -44.6049038 Eh     change       -0.1461576E-03 Eh
 * total energy  :   -44.6050593 Eh     change       -0.1554960E-03 Eh
 * total energy  :   -44.6052314 Eh     change       -0.1720694E-03 Eh
 * total energy  :   -44.6053824 Eh     change       -0.1510116E-03 Eh
 * total energy  :   -44.6061448 Eh     change       -0.1777661E-04 Eh
 * total energy  :   -44.6061578 Eh     change       -0.1305122E-04 Eh
 * total energy  :   -44.6061687 Eh     change       -0.1088141E-04 Eh
 * total energy  :   -44.6061770 Eh     change       -0.8295955E-05 Eh
 * total energy  :   -44.6061829 Eh     change       -0.5950021E-05 Eh
 * total energy  :   -44.6061888 Eh     change       -0.5896173E-05 Eh
 * total energy  :   -44.6061959 Eh     change       -0.7107087E-05 Eh
 * total energy  :   -44.6062027 Eh     change       -0.6761814E-05 Eh
 * total energy  :   -44.6062068 Eh     change       -0.4095823E-05 Eh
   *** GEOMETRY OPTIMIZATION CONVERGED AFTER 32 ITERATIONS ***

 final structure:
================
35
 xtb: 6.7.1 (edcfbbe)
C            1.26272291399899       -0.54264049284915        0.95548302832574
C            0.48470697637591       -1.60801175583035        0.90742526130324
C           -1.00393993955898       -1.53749812152557        1.09906787364248
N           -1.78277727436564       -2.21746387459326        0.01929340695922
C           -1.65564356995526       -3.69918991231864        0.02116972070021
C           -1.00724291015918       -4.37149097551348        1.05112857164012
C           -0.88999723316842       -5.75269146455892        1.05635520201011
C           -0.19203985989522       -6.46214578552406        2.17058431748837
C           -1.44041987307121       -6.46995661853496        0.00196907925029
C           -2.11839626339937       -5.83950188536257       -1.02265552658667
C           -2.24365224636044       -4.44264689607745       -1.00865101115410
O           -2.95497843323260       -3.81389040550951       -1.98931138153706
C           -2.72942950175883       -6.62863795145113       -2.14376843890396
C           -3.21052139962191       -1.88758486366250        0.21357993221884
C           -1.30908708584903       -1.66139396496182       -1.26752795530882
H            0.87323041322822        0.44836334429715        1.12094939573175
H            2.32970018831641       -0.62073467352072        0.84857590726661
H            0.90849173014817       -2.58883768810846        0.74812175684442
H           -1.29628313645710       -1.96336669975303        2.06213809086333
H           -1.30674139078443       -0.48764352970131        1.10198382242605
H           -0.57577396938760       -3.84281988842298        1.88236643390129
H           -0.88572158915713       -7.12524831417877        2.68482366125407
H            0.61691454145522       -7.07592059976074        1.77916924506675
H            0.21913684214012       -5.76358860822061        2.89355756273781
H           -1.34732355812388       -7.54474145439212       -0.01011584897387
H           -3.28583138078213       -4.47104948502669       -2.61620966192891
H           -2.51605686797324       -7.68471922910843       -2.01145412704817
H           -3.81427525306379       -6.51197030051827       -2.16622919585810
H           -2.32016013391992       -6.32720174606512       -3.10945400343663
H           -3.80241595563817       -2.33868380408607       -0.57942159458846
H           -3.54770541371548       -2.27361290330319        1.17420552981998
H           -3.35426023251542       -0.80902294878192        0.18779766134428
H           -1.34105224937648       -0.57451198775079       -1.22768440538529
H           -0.28398239876746       -1.97945371811264       -1.44574743401841
H           -1.93994448560466       -2.00603079721085       -2.08165487606172

          :  Hamiltonian                  GFN2-xTB          :
         :: total energy             -44.606206799124 Eh    ::
         :: gradient norm              0.000173499074 Eh/a0 ::
         :: HOMO-LUMO gap              3.993116370156 eV    ::
         :: SCC energy               -45.300874640713 Eh    ::
         :: -> dispersion             -0.031868776426 Eh    ::
         :: repulsion energy           0.694667841589 Eh    ::

    * Orbital Energies and Occupations

         #    Occupation            Energy/Eh            Energy/eV
      -------------------------------------------------------------
         1        2.0000           -0.8507056             -23.1489
       ...           ...                  ...                  ...
        29        2.0000           -0.6094879             -16.5850
        30        2.0000           -0.6078564             -16.5406
        31        2.0000           -0.6037832             -16.4298
        32        2.0000           -0.5995216             -16.3138
        33        2.0000           -0.5848292             -15.9140
        34        2.0000           -0.5746697             -15.6376
        35        2.0000           -0.5719740             -15.5642
        36        2.0000           -0.5667229             -15.4213
        37        2.0000           -0.5625160             -15.3068
        38        2.0000           -0.5551793             -15.1072
        39        2.0000           -0.5469553             -14.8834
        40        2.0000           -0.5334397             -14.5156
        41        2.0000           -0.5097250             -13.8703 (HOMO)
        42                         -0.3629807              -9.8772 (LUMO)
        43                         -0.3489487              -9.4954
        44                         -0.3474482              -9.4545
        45                         -0.2318222              -6.3082
        46                         -0.2108267              -5.7369
        47                         -0.1432639              -3.8984
        48                         -0.1352639              -3.6807
        49                         -0.1056225              -2.8741
        50                         -0.0782216              -2.1285
        51                         -0.0394606              -1.0738
        52                         -0.0211370              -0.5752
       ...                                ...                  ...
        80                          0.5037392              13.7074
      -------------------------------------------------------------
                  HL-Gap            0.1467443 Eh            3.9931 eV

     #   Z          covCN         q      C6AA      α(0)
     1   6 C        2.838    -0.080    29.984     8.974
     2   6 C        2.884    -0.043    29.077     8.840
     3   6 C        3.774    -0.034    21.216     6.563
     4   7 N        3.623     0.133    18.972     6.469
     5   6 C        2.921     0.005    27.923     8.666
     6   6 C        2.927    -0.062    29.530     8.912
     7   6 C        2.963     0.023    27.495     8.601
     8   6 C        3.759    -0.122    22.889     6.821
     9   6 C        2.930    -0.044    29.092     8.846
    10   6 C        2.963    -0.007    28.201     8.711
    11   6 C        2.850     0.123    25.294     8.243
    12   8 O        1.659    -0.405    20.948     6.179
    13   6 C        3.757    -0.120    22.848     6.815
    14   6 C        3.726    -0.090    22.322     6.746
    15   6 C        3.722    -0.092    22.367     6.754
    16   1 H        0.926     0.065     2.144     2.290
    17   1 H        0.926     0.077     2.006     2.215
    18   1 H        0.926     0.060     2.194     2.316
    19   1 H        0.924     0.087     1.910     2.161
    20   1 H        0.924     0.086     1.923     2.169
    21   1 H        0.926     0.064     2.147     2.291
    22   1 H        0.925     0.072     2.068     2.249
    23   1 H        0.925     0.071     2.073     2.251
    24   1 H        0.925     0.056     2.241     2.341
    25   1 H        0.926     0.070     2.081     2.256
    26   1 H        0.805     0.327     0.646     1.262
    27   1 H        0.925     0.072     2.060     2.245
    28   1 H        0.924     0.060     2.201     2.320
    29   1 H        0.924     0.059     2.208     2.324
    30   1 H        0.925     0.114     1.665     2.018
    31   1 H        0.925     0.088     1.894     2.152
    32   1 H        0.925     0.088     1.896     2.153
    33   1 H        0.925     0.087     1.909     2.161
    34   1 H        0.925     0.092     1.859     2.132
    35   1 H        0.925     0.119     1.624     1.993

Wiberg/Mayer (AO) data.
largest (>0.10) Wiberg bond orders for each atom

     #   Z sym  total        # sym  WBO       # sym  WBO       # sym  WBO
 ---------------------------------------------------------------------------
     1   6 C    3.984 --     2 C    1.982    17 H    0.972    16 H    0.972
     2   6 C    3.983 --     1 C    1.982     3 C    1.016    18 H    0.959
     3   6 C    3.937 --     2 C    1.016    20 H    0.962    19 H    0.951
                             4 N    0.927
     4   7 N    3.809 --    14 C    0.953    15 C    0.952     3 C    0.927
                             5 C    0.913
     5   6 C    3.913 --     6 C    1.404    11 C    1.358     4 N    0.913
     6   6 C    3.985 --     7 C    1.411     5 C    1.404    21 H    0.956
     7   6 C    3.988 --     6 C    1.411     9 C    1.388     8 C    1.033
     8   6 C    3.990 --     7 C    1.033    24 H    0.984    23 H    0.966
                            22 H    0.964
     9   6 C    3.987 --    10 C    1.444     7 C    1.388    25 H    0.964
    10   6 C    3.986 --     9 C    1.444    11 C    1.327    13 C    1.027
    11   6 C    3.941 --     5 C    1.358    10 C    1.327    12 O    1.069
    12   8 O    2.119 --    11 C    1.069    26 H    0.858
    13   6 C    3.991 --    10 C    1.027    27 H    0.979    29 H    0.965
                            28 H    0.964
    14   6 C    3.928 --    31 H    0.978    32 H    0.975    30 H    0.967
                             4 N    0.953
    15   6 C    3.924 --    33 H    0.976    34 H    0.975    35 H    0.962
                             4 N    0.952
    16   1 H    0.996 --     1 C    0.972
    17   1 H    0.994 --     1 C    0.972
    18   1 H    0.996 --     2 C    0.959
    19   1 H    0.992 --     3 C    0.951
    20   1 H    0.992 --     3 C    0.962
    21   1 H    0.996 --     6 C    0.956
    22   1 H    0.994 --     8 C    0.964
    23   1 H    0.994 --     8 C    0.966
    24   1 H    0.996 --     8 C    0.984
    25   1 H    0.994 --     9 C    0.964
    26   1 H    0.893 --    12 O    0.858
    27   1 H    0.994 --    13 C    0.979
    28   1 H    0.996 --    13 C    0.964
    29   1 H    0.996 --    13 C    0.965
    30   1 H    0.986 --    14 C    0.967
    31   1 H    0.992 --    14 C    0.978
    32   1 H    0.991 --    14 C    0.975
    33   1 H    0.992 --    15 C    0.976
    34   1 H    0.992 --    15 C    0.975
    35   1 H    0.986 --    15 C    0.962
 ---------------------------------------------------------------------------

molecular dipole:
                 x           y           z       tot (Debye)
 q only:       -3.100      -5.807      -0.189
   full:       -3.227      -5.911      -0.260      17.130

           -------------------------------------------------
          | TOTAL ENERGY              -44.606206799124 Eh   |
          | GRADIENT NORM               0.000173499074 Eh/α |
          | HOMO-LUMO GAP               3.993116370156 eV   |
           -------------------------------------------------

 * finished run on 2024/12/20 at 07:10:39.794
