   * xtb version 6.7.1 (edcfbbe) compiled by 'conda@3ef47c1a292c' on 2024-11-25

   ID    Z sym.   atoms
    1    6 C      1, 3-25
    2    7 N      2
    3    1 H      26-75

          program call               : xtb C1094.xyz --opt --namespace C1094 --charge +1
          :  Hamiltonian                  GFN2-xTB          :
 * total energy  :   -79.4625222 Eh     change       -0.1018208E-09 Eh
 * total energy  :   -79.4695213 Eh     change       -0.6999082E-02 Eh
 * total energy  :   -79.4711405 Eh     change       -0.1619199E-02 Eh
 * total energy  :   -79.4712527 Eh     change       -0.1122262E-03 Eh
 * total energy  :   -79.4713774 Eh     change       -0.1247181E-03 Eh
 * total energy  :   -79.4714558 Eh     change       -0.7840121E-04 Eh
 * total energy  :   -79.4715583 Eh     change       -0.1024942E-03 Eh
 * total energy  :   -79.4716752 Eh     change       -0.1169039E-03 Eh
 * total energy  :   -79.4718293 Eh     change       -0.1541117E-03 Eh
 * total energy  :   -79.4719174 Eh     change       -0.8806405E-04 Eh
 * total energy  :   -79.4730857 Eh     change       -0.1048912E-04 Eh
 * total energy  :   -79.4730953 Eh     change       -0.9614336E-05 Eh
 * total energy  :   -79.4731040 Eh     change       -0.8728461E-05 Eh
 * total energy  :   -79.4731125 Eh     change       -0.8501747E-05 Eh
 * total energy  :   -79.4731209 Eh     change       -0.8340516E-05 Eh
 * total energy  :   -79.4731289 Eh     change       -0.7993584E-05 Eh
 * total energy  :   -79.4731358 Eh     change       -0.6987263E-05 Eh
 * total energy  :   -79.4731414 Eh     change       -0.5535211E-05 Eh
 * total energy  :   -79.4731462 Eh     change       -0.4823418E-05 Eh
   *** GEOMETRY OPTIMIZATION CONVERGED AFTER 37 ITERATIONS ***

 final structure:
================
75
 xtb: 6.7.1 (edcfbbe)
C            2.18626153753031        0.22622988589481        0.83860779386358
N            1.20053803648903        0.33660136996814        1.92935447866108
C            1.49097578839590       -0.74522172963113        2.91788377979422
C            0.65853117616500       -0.65781589121173        4.19172935686509
C            0.85987983789455        0.69622651294557        4.86366907633289
C            0.54454249178245        1.81069098278495        3.87180780444194
C            1.37716011950484        1.65424835038280        2.60433336974420
C           -0.18104153556597        0.15736461415467        1.38374547001067
C           -0.58997517015234        1.08469505992484        0.23167541628763
C           -0.51480027128451        0.43854550202066       -1.15697335478289
C           -1.55037006546305       -0.66309310073589       -1.39608420873537
C           -3.00615014390994       -0.19200873669602       -1.42716524065017
C           -3.32722740823619        0.85667208123896       -2.49510702467452
C           -2.93676441330391        0.46837895640960       -3.92288993713754
C           -3.55082789719670       -0.83725013981588       -4.43075352185542
C           -5.07785357240784       -0.84337741141368       -4.51966906249100
C           -5.67617725062328        0.20541574746609       -5.45990377598752
C           -5.15335974629616        0.16122298862332       -6.89753297853435
C           -5.31830951472985       -1.18372498862392       -7.60750554191278
C           -6.76222465729758       -1.66549663927662       -7.75668462943621
C           -7.67110412490937       -0.74454972484479       -8.57307876306390
C           -7.19386411592255       -0.45895366534248       -9.99873235166158
C           -6.96163729117164       -1.69718479229929      -10.86741190148916
C           -8.18481884294560       -2.59580034690885      -11.05507648296999
C           -9.33619278023323       -1.90319654723044      -11.77411780933575
H            2.04902085385800        1.02909800817679        0.11877036686980
H            2.07114955069996       -0.73036840562346        0.33205373026494
H            3.19811280369845        0.28883348142489        1.23612109044711
H            2.54663899780596       -0.66350440083607        3.18756383024899
H            1.33759647734196       -1.70840254306780        2.42741606951084
H            0.98642331452173       -1.45752206087720        4.85626081121729
H           -0.39862268919238       -0.82651224299716        3.98612115667916
H            0.21581304836844        0.77991878370713        5.73721716149474
H            1.89296505675810        0.78779545684132        5.20373220970866
H           -0.52112820434785        1.82302703180798        3.64155339211074
H            0.78777419438024        2.77942403837577        4.30894642739994
H            1.13285922483726        2.44600428840185        1.89553470749835
H            2.43451873821349        1.74489223659444        2.86384951306002
H           -0.25736158572055       -0.87759843154080        1.04479904858295
H           -0.87236633636528        0.28590681627411        2.21389276706450
H           -1.62185180025577        1.39366274018776        0.39912611395781
H            0.00471140768203        1.99852603452927        0.23253641464901
H           -0.66582732834954        1.22192098758619       -1.89896447557433
H            0.47857516389745        0.02106469260613       -1.33059196234859
H           -1.31651039947258       -1.13564401062075       -2.35003609888288
H           -1.45933671169075       -1.43797684218187       -0.62957119930767
H           -3.63230388950771       -1.06907396029941       -1.59521431128643
H           -3.28766895540090        0.21175163630769       -0.45103036975370
H           -4.40030403451900        1.04974613041371       -2.45958430676155
H           -2.82977135253252        1.79791027225496       -2.24681381158529
H           -3.23480599773217        1.28233310073229       -4.58532872796858
H           -1.84909905173555        0.38614442001044       -3.99296606458652
H           -3.13735126632160       -1.04031513907118       -5.41990532450332
H           -3.24260841979167       -1.66177976591165       -3.78354154899667
H           -5.39078284289009       -1.83571337458080       -4.84984898218918
H           -5.50127218233274       -0.69227510516375       -3.52379615601940
H           -6.75936540836975        0.07005841020234       -5.46872329120384
H           -5.48539461586526        1.20363052382539       -5.05826424532662
H           -5.67124575212166        0.93344784015298       -7.46934479825508
H           -4.09218745418959        0.42182929015492       -6.90297419577167
H           -4.86592628707938       -1.10091495548651       -8.59755388840148
H           -4.75780485659925       -1.94920587621307       -7.06597800726847
H           -6.74268335492694       -2.65202781381223       -8.22417242215609
H           -7.20514648606836       -1.79188698841358       -6.76613256379902
H           -8.66375805461315       -1.19776635536126       -8.61196927858152
H           -7.77908236810233        0.21012835241031       -8.05296415558343
H           -7.93366585381044        0.18237410452499      -10.48176659396792
H           -6.26100372490157        0.10816198301351       -9.95945778625224
H           -6.62472349440598       -1.35992916526169      -11.85133993458210
H           -6.15416708245093       -2.29360024357610      -10.43736138296350
H           -7.87762149269616       -3.46625114346976      -11.64064503417097
H           -8.52893138243789       -2.96219194557571      -10.08630613946227
H           -9.00111092837432       -1.49773434778261      -12.72649475277356
H          -10.13928387396934       -2.61083048223694      -11.96747263190078
H           -9.73988349904677       -1.09008339835603      -11.17635032983400

          :  Hamiltonian                  GFN2-xTB          :
         :: total energy             -79.473146207321 Eh    ::
         :: gradient norm              0.000286881081 Eh/a0 ::
         :: HOMO-LUMO gap              5.957279450733 eV    ::
         :: SCC energy               -80.626406179525 Eh    ::
         :: -> dispersion             -0.064384466001 Eh    ::
         :: repulsion energy           1.153259972204 Eh    ::

    * Orbital Energies and Occupations

         #    Occupation            Energy/Eh            Energy/eV
      -------------------------------------------------------------
         1        2.0000           -0.8563238             -23.3018
       ...           ...                  ...                  ...
        63        2.0000           -0.4989626             -13.5775
        64        2.0000           -0.4946287             -13.4595
        65        2.0000           -0.4916188             -13.3776
        66        2.0000           -0.4850449             -13.1987
        67        2.0000           -0.4802664             -13.0687
        68        2.0000           -0.4774090             -12.9910
        69        2.0000           -0.4728605             -12.8672
        70        2.0000           -0.4652364             -12.6597
        71        2.0000           -0.4635264             -12.6132
        72        2.0000           -0.4611895             -12.5496
        73        2.0000           -0.4528943             -12.3239
        74        2.0000           -0.4472504             -12.1703
        75        2.0000           -0.4461062             -12.1392 (HOMO)
        76                         -0.2271802              -6.1819 (LUMO)
        77                         -0.1641803              -4.4676
        78                         -0.1565028              -4.2587
        79                         -0.1372829              -3.7357
        80                         -0.0706368              -1.9221
        81                         -0.0680439              -1.8516
        82                         -0.0660193              -1.7965
        83                         -0.0549156              -1.4943
        84                         -0.0331659              -0.9025
        85                         -0.0268487              -0.7306
        86                         -0.0213547              -0.5811
       ...                                ...                  ...
       150                          0.2758317               7.5058
      -------------------------------------------------------------
                  HL-Gap            0.2189260 Eh            5.9573 eV

     #   Z          covCN         q      C6AA      α(0)
     1   6 C        3.723    -0.090    22.331     6.748
     2   7 N        3.621     0.119    19.199     6.508
     3   6 C        3.770    -0.033    21.200     6.561
     4   6 C        3.804    -0.072    21.880     6.659
     5   6 C        3.806    -0.072    21.870     6.657
     6   6 C        3.804    -0.072    21.868     6.657
     7   6 C        3.764    -0.032    21.186     6.561
     8   6 C        3.754    -0.039    21.320     6.584
     9   6 C        3.799    -0.072    21.873     6.659
    10   6 C        3.800    -0.070    21.832     6.653
    11   6 C        3.800    -0.063    21.703     6.633
    12   6 C        3.800    -0.060    21.663     6.627
    13   6 C        3.800    -0.059    21.640     6.623
    14   6 C        3.800    -0.058    21.627     6.621
    15   6 C        3.800    -0.058    21.613     6.619
    16   6 C        3.800    -0.057    21.597     6.617
    17   6 C        3.800    -0.056    21.591     6.616
    18   6 C        3.800    -0.056    21.589     6.616
    19   6 C        3.800    -0.056    21.588     6.615
    20   6 C        3.800    -0.056    21.585     6.615
    21   6 C        3.800    -0.056    21.581     6.614
    22   6 C        3.800    -0.056    21.591     6.616
    23   6 C        3.800    -0.057    21.594     6.616
    24   6 C        3.799    -0.052    21.503     6.602
    25   6 C        3.751    -0.101    22.498     6.764
    26   1 H        0.925     0.101     1.772     2.081
    27   1 H        0.925     0.095     1.829     2.115
    28   1 H        0.925     0.089     1.891     2.150
    29   1 H        0.924     0.084     1.941     2.179
    30   1 H        0.924     0.079     1.993     2.208
    31   1 H        0.924     0.078     2.004     2.214
    32   1 H        0.925     0.060     2.199     2.319
    33   1 H        0.925     0.070     2.083     2.257
    34   1 H        0.924     0.057     2.239     2.340
    35   1 H        0.924     0.061     2.191     2.315
    36   1 H        0.924     0.077     2.013     2.219
    37   1 H        0.924     0.082     1.963     2.191
    38   1 H        0.924     0.082     1.957     2.188
    39   1 H        0.924     0.085     1.926     2.170
    40   1 H        0.925     0.085     1.926     2.170
    41   1 H        0.925     0.073     2.049     2.239
    42   1 H        0.924     0.045     2.383     2.414
    43   1 H        0.925     0.060     2.194     2.317
    44   1 H        0.924     0.030     2.583     2.513
    45   1 H        0.925     0.052     2.295     2.369
    46   1 H        0.924     0.020     2.737     2.587
    47   1 H        0.924     0.045     2.383     2.414
    48   1 H        0.924     0.022     2.705     2.572
    49   1 H        0.924     0.041     2.432     2.439
    50   1 H        0.924     0.023     2.694     2.567
    51   1 H        0.924     0.039     2.457     2.451
    52   1 H        0.924     0.023     2.695     2.567
    53   1 H        0.924     0.037     2.496     2.471
    54   1 H        0.924     0.024     2.678     2.559
    55   1 H        0.924     0.034     2.529     2.487
    56   1 H        0.924     0.025     2.659     2.550
    57   1 H        0.924     0.033     2.539     2.492
    58   1 H        0.924     0.025     2.662     2.552
    59   1 H        0.924     0.033     2.543     2.494
    60   1 H        0.924     0.025     2.666     2.553
    61   1 H        0.924     0.032     2.559     2.502
    62   1 H        0.924     0.025     2.654     2.548
    63   1 H        0.924     0.031     2.572     2.508
    64   1 H        0.924     0.026     2.639     2.540
    65   1 H        0.924     0.031     2.570     2.507
    66   1 H        0.924     0.026     2.639     2.540
    67   1 H        0.924     0.032     2.564     2.504
    68   1 H        0.924     0.027     2.632     2.537
    69   1 H        0.924     0.028     2.615     2.529
    70   1 H        0.924     0.028     2.621     2.532
    71   1 H        0.924     0.026     2.643     2.542
    72   1 H        0.924     0.030     2.581     2.512
    73   1 H        0.925     0.033     2.538     2.491
    74   1 H        0.925     0.031     2.567     2.506
    75   1 H        0.925     0.034     2.526     2.485

Wiberg/Mayer (AO) data.
largest (>0.10) Wiberg bond orders for each atom

     #   Z sym  total        # sym  WBO       # sym  WBO       # sym  WBO
 ---------------------------------------------------------------------------
     1   6 C    3.932 --    28 H    0.975    27 H    0.974    26 H    0.971
                             2 N    0.962
     2   7 N    3.804 --     1 C    0.962     7 C    0.932     3 C    0.930
                             8 C    0.925
     3   6 C    3.935 --     4 C    1.009    30 H    0.968    29 H    0.966
                             2 N    0.930
     4   6 C    3.987 --     3 C    1.009     5 C    1.008    32 H    0.970
                            31 H    0.966
     5   6 C    3.992 --     6 C    1.009     4 C    1.008    34 H    0.975
                            33 H    0.973
     6   6 C    3.987 --     5 C    1.009     7 C    1.009    35 H    0.970
                            36 H    0.966
     7   6 C    3.936 --     6 C    1.009    38 H    0.967    37 H    0.963
                             2 N    0.932
     8   6 C    3.927 --     9 C    1.003    40 H    0.962    39 H    0.961
                             2 N    0.925
     9   6 C    3.985 --    10 C    1.005     8 C    1.003    41 H    0.966
                            42 H    0.965
    10   6 C    3.992 --    11 C    1.007     9 C    1.005    44 H    0.975
                            43 H    0.970
    11   6 C    3.995 --    10 C    1.007    12 C    1.007    46 H    0.973
                            45 H    0.972
    12   6 C    3.996 --    11 C    1.007    13 C    1.007    48 H    0.974
                            47 H    0.974
    13   6 C    3.996 --    14 C    1.007    12 C    1.007    50 H    0.976
                            49 H    0.974
    14   6 C    3.997 --    15 C    1.008    13 C    1.007    52 H    0.975
                            51 H    0.974
    15   6 C    3.997 --    16 C    1.008    14 C    1.008    54 H    0.975
                            53 H    0.974
    16   6 C    3.997 --    15 C    1.008    17 C    1.007    56 H    0.976
                            55 H    0.975
    17   6 C    3.997 --    18 C    1.007    16 C    1.007    58 H    0.976
                            57 H    0.975
    18   6 C    3.997 --    19 C    1.008    17 C    1.007    60 H    0.975
                            59 H    0.975
    19   6 C    3.998 --    20 C    1.008    18 C    1.008    62 H    0.975
                            61 H    0.974
    20   6 C    3.998 --    19 C    1.008    21 C    1.008    64 H    0.975
                            63 H    0.975
    21   6 C    3.998 --    20 C    1.008    22 C    1.008    66 H    0.976
                            65 H    0.975
    22   6 C    3.998 --    21 C    1.008    23 C    1.008    67 H    0.975
                            68 H    0.975
    23   6 C    3.998 --    24 C    1.008    22 C    1.008    69 H    0.977
                            70 H    0.976
    24   6 C    3.998 --    25 C    1.020    23 C    1.008    71 H    0.979
                            72 H    0.976
    25   6 C    3.997 --    24 C    1.020    73 H    0.988    74 H    0.988
                            75 H    0.986
    26   1 H    0.989 --     1 C    0.971
    27   1 H    0.991 --     1 C    0.974
    28   1 H    0.992 --     1 C    0.975
    29   1 H    0.993 --     3 C    0.966
    30   1 H    0.994 --     3 C    0.968
    31   1 H    0.994 --     4 C    0.966
    32   1 H    0.996 --     4 C    0.970
    33   1 H    0.995 --     5 C    0.973
    34   1 H    0.997 --     5 C    0.975
    35   1 H    0.996 --     6 C    0.970
    36   1 H    0.994 --     6 C    0.966
    37   1 H    0.993 --     7 C    0.963
    38   1 H    0.993 --     7 C    0.967
    39   1 H    0.993 --     8 C    0.961
    40   1 H    0.993 --     8 C    0.962
    41   1 H    0.994 --     9 C    0.966
    42   1 H    0.998 --     9 C    0.965
    43   1 H    0.996 --    10 C    0.970
    44   1 H    0.999 --    10 C    0.975
    45   1 H    0.997 --    11 C    0.972
    46   1 H    1.000 --    11 C    0.973
    47   1 H    0.998 --    12 C    0.974
    48   1 H    1.000 --    12 C    0.974
    49   1 H    0.998 --    13 C    0.974
    50   1 H    0.999 --    13 C    0.976
    51   1 H    0.998 --    14 C    0.974
    52   1 H    0.999 --    14 C    0.975
    53   1 H    0.999 --    15 C    0.974
    54   1 H    0.999 --    15 C    0.975
    55   1 H    0.999 --    16 C    0.975
    56   1 H    0.999 --    16 C    0.976
    57   1 H    0.999 --    17 C    0.975
    58   1 H    0.999 --    17 C    0.976
    59   1 H    0.999 --    18 C    0.975
    60   1 H    0.999 --    18 C    0.975
    61   1 H    0.999 --    19 C    0.974
    62   1 H    0.999 --    19 C    0.975
    63   1 H    0.999 --    20 C    0.975
    64   1 H    0.999 --    20 C    0.975
    65   1 H    0.999 --    21 C    0.975
    66   1 H    0.999 --    21 C    0.976
    67   1 H    0.999 --    22 C    0.975
    68   1 H    0.999 --    22 C    0.975
    69   1 H    0.999 --    23 C    0.977
    70   1 H    0.999 --    23 C    0.976
    71   1 H    0.999 --    24 C    0.979
    72   1 H    0.999 --    24 C    0.976
    73   1 H    0.999 --    25 C    0.988
    74   1 H    0.999 --    25 C    0.988
    75   1 H    0.999 --    25 C    0.986
 ---------------------------------------------------------------------------

molecular dipole:
                 x           y           z       tot (Debye)
 q only:        1.571       0.713       3.493
   full:        1.703       0.690       3.472       9.984

           -------------------------------------------------
          | TOTAL ENERGY              -79.473146207321 Eh   |
          | GRADIENT NORM               0.000286881081 Eh/α |
          | HOMO-LUMO GAP               5.957279450733 eV   |
           -------------------------------------------------

 * finished run on 2024/12/20 at 07:10:56.892
