   * xtb version 6.7.1 (edcfbbe) compiled by 'conda@3ef47c1a292c' on 2024-11-25

   ID    Z sym.   atoms
    1    6 C      1, 3, 6-8
    2    7 N      2, 4, 5
    3    1 H      9-22

          program call               : xtb C1098.xyz --opt --namespace C1098 --charge +1
          :  Hamiltonian                  GFN2-xTB          :
 * total energy  :   -26.2022088 Eh     change       -0.1019984E-09 Eh
 * total energy  :   -26.2139477 Eh     change       -0.1173892E-01 Eh
 * total energy  :   -26.2155767 Eh     change       -0.1629007E-02 Eh
 * total energy  :   -26.2156395 Eh     change       -0.6273339E-04 Eh
 * total energy  :   -26.2156537 Eh     change       -0.1427742E-04 Eh
 * total energy  :   -26.2156373 Eh     change        0.1645734E-04 Eh
 * total energy  :   -26.2156557 Eh     change       -0.1842654E-04 Eh
 * total energy  :   -26.2156573 Eh     change       -0.1545511E-05 Eh
 * total energy  :   -26.2156587 Eh     change       -0.1416750E-05 Eh
   *** GEOMETRY OPTIMIZATION CONVERGED AFTER 9 ITERATIONS ***

 final structure:
================
22
 xtb: 6.7.1 (edcfbbe)
C            1.18352353048679       -0.15465668172996       -0.25740326619914
N            0.52941211775085       -1.43639508606780       -0.05497021168691
C           -0.23309072444835       -1.88175685991750        0.95685973617687
N           -0.70476213221031       -3.14209229951081        0.85432398958594
N           -0.60059347431936       -1.23792187057605        2.07951615413568
C           -0.32225923564319        0.09806583073321        2.57799898108967
C           -1.44587738212365       -1.95072919053187        3.03923059610248
C            0.85418484405462       -2.24766880182265       -1.22641884075980
H            1.03736434269055        0.56314983507810        0.53088235555274
H            0.81381122234014        0.28930554673452       -1.18406859572776
H            2.25804694763672       -0.31809008275136       -0.36317097976649
H           -1.27988085352567       -3.54378968252504        1.56880372306185
H           -0.50247205025834       -3.72613527095020        0.06653962497106
H           -1.26788716241107        0.62566048041337        2.71862003369956
H            0.18229876451343        0.01598571544724        3.54289717262207
H            0.29636776601209        0.70617448098086        1.93938292896700
H           -2.41032296990425       -2.21999103559537        2.60353687355125
H           -0.94508270809199       -2.83610616630282        3.43646638502501
H           -1.64649248151926       -1.29240663844379        3.87910067697585
H            0.49550803977018       -1.73421288275500       -2.12040365188595
H            1.93924147950808       -2.34138974876935       -1.29965078054607
H            0.44126211969198       -3.24818959113773       -1.24024290494495

          :  Hamiltonian                  GFN2-xTB          :
         :: total energy             -26.215658669774 Eh    ::
         :: gradient norm              0.000099441725 Eh/a0 ::
         :: HOMO-LUMO gap              4.695162840988 eV    ::
         :: SCC energy               -26.579816183969 Eh    ::
         :: -> dispersion             -0.013569921872 Eh    ::
         :: repulsion energy           0.364157514195 Eh    ::

    * Orbital Energies and Occupations

         #    Occupation            Energy/Eh            Energy/eV
      -------------------------------------------------------------
         1        2.0000           -0.8632176             -23.4893
       ...           ...                  ...                  ...
        12        2.0000           -0.6843445             -18.6220
        13        2.0000           -0.6773696             -18.4322
        14        2.0000           -0.6756269             -18.3847
        15        2.0000           -0.6728383             -18.3089
        16        2.0000           -0.6513617             -17.7245
        17        2.0000           -0.6439388             -17.5225
        18        2.0000           -0.6349934             -17.2790
        19        2.0000           -0.6298001             -17.1377
        20        2.0000           -0.6244962             -16.9934
        21        2.0000           -0.6229961             -16.9526
        22        2.0000           -0.5954510             -16.2030
        23        2.0000           -0.5632269             -15.3262
        24        2.0000           -0.5398238             -14.6894 (HOMO)
        25                         -0.3672797              -9.9942 (LUMO)
        26                         -0.2101664              -5.7189
        27                         -0.1655941              -4.5060
        28                         -0.1562372              -4.2514
        29                         -0.0872315              -2.3737
        30                         -0.0813444              -2.2135
        31                         -0.0534895              -1.4555
        32                         -0.0294571              -0.8016
        33                         -0.0165372              -0.4500
        34                          0.0161195               0.4386
        35                          0.0448601               1.2207
       ...                                ...                  ...
        46                          0.4025498              10.9539
      -------------------------------------------------------------
                  HL-Gap            0.1725441 Eh            4.6952 eV

     #   Z          covCN         q      C6AA      α(0)
     1   6 C        3.723    -0.076    22.074     6.709
     2   7 N        2.738    -0.040    22.010     6.968
     3   6 C        2.754     0.205    23.653     7.964
     4   7 N        2.662    -0.258    26.690     7.673
     5   7 N        2.743    -0.042    22.059     6.976
     6   6 C        3.704    -0.075    22.082     6.718
     7   6 C        3.716    -0.082    22.197     6.731
     8   6 C        3.727    -0.077    22.081     6.709
     9   1 H        0.926     0.081     1.968     2.194
    10   1 H        0.924     0.085     1.932     2.174
    11   1 H        0.924     0.085     1.932     2.174
    12   1 H        0.861     0.222     1.002     1.568
    13   1 H        0.861     0.213     1.042     1.599
    14   1 H        0.924     0.085     1.923     2.169
    15   1 H        0.924     0.085     1.923     2.169
    16   1 H        0.926     0.081     1.968     2.194
    17   1 H        0.924     0.077     2.006     2.215
    18   1 H        0.924     0.077     2.006     2.215
    19   1 H        0.925     0.101     1.775     2.083
    20   1 H        0.924     0.088     1.897     2.154
    21   1 H        0.924     0.088     1.897     2.154
    22   1 H        0.925     0.076     2.018     2.222

Wiberg/Mayer (AO) data.
largest (>0.10) Wiberg bond orders for each atom

     #   Z sym  total        # sym  WBO       # sym  WBO       # sym  WBO
 ---------------------------------------------------------------------------
     1   6 C    3.947 --     2 N    0.989    10 H    0.970    11 H    0.970
                             9 H    0.950
     2   7 N    3.525 --     3 C    1.303     1 C    0.989     8 C    0.986
                             5 N    0.104
     3   6 C    3.975 --     2 N    1.303     5 N    1.299     4 N    1.265
     4   7 N    3.365 --     3 C    1.265    12 H    0.917    13 H    0.914
     5   7 N    3.519 --     3 C    1.299     6 C    0.990     7 C    0.985
                             2 N    0.104
     6   6 C    3.948 --     5 N    0.990    15 H    0.970    14 H    0.970
                            16 H    0.949
     7   6 C    3.951 --     5 N    0.985    19 H    0.972    18 H    0.969
                            17 H    0.969
     8   6 C    3.950 --     2 N    0.986    21 H    0.970    20 H    0.970
                            22 H    0.960
     9   1 H    0.993 --     1 C    0.950
    10   1 H    0.993 --     1 C    0.970
    11   1 H    0.993 --     1 C    0.970
    12   1 H    0.951 --     4 N    0.917
    13   1 H    0.955 --     4 N    0.914
    14   1 H    0.992 --     6 C    0.970
    15   1 H    0.992 --     6 C    0.970
    16   1 H    0.993 --     6 C    0.949
    17   1 H    0.994 --     7 C    0.969
    18   1 H    0.994 --     7 C    0.969
    19   1 H    0.989 --     7 C    0.972
    20   1 H    0.992 --     8 C    0.970
    21   1 H    0.992 --     8 C    0.970
    22   1 H    0.994 --     8 C    0.960
 ---------------------------------------------------------------------------

molecular dipole:
                 x           y           z       tot (Debye)
 q only:       -0.319      -3.176       1.877
   full:       -0.361      -3.299       1.859       9.668

           -------------------------------------------------
          | TOTAL ENERGY              -26.215658669774 Eh   |
          | GRADIENT NORM               0.000099441725 Eh/α |
          | HOMO-LUMO GAP               4.695162840988 eV   |
           -------------------------------------------------

 * finished run on 2024/12/20 at 07:11:00.890
