   * xtb version 6.7.1 (edcfbbe) compiled by 'conda@3ef47c1a292c' on 2024-11-25

   ID    Z sym.   atoms
    1    6 C      1-9, 11, 13-17
    2    8 O      10
    3    7 N      12
    4    1 H      18-43

          program call               : xtb C1093.xyz --opt --namespace C1093 --charge +1
          :  Hamiltonian                  GFN2-xTB          :
 * total energy  :   -51.9533527 Eh     change       -0.9456258E-09 Eh
 * total energy  :   -51.9576612 Eh     change       -0.4308511E-02 Eh
 * total energy  :   -51.9586409 Eh     change       -0.9797171E-03 Eh
 * total energy  :   -51.9588369 Eh     change       -0.1959940E-03 Eh
 * total energy  :   -51.9589859 Eh     change       -0.1489289E-03 Eh
 * total energy  :   -51.9590373 Eh     change       -0.5142139E-04 Eh
 * total energy  :   -51.9591008 Eh     change       -0.6353561E-04 Eh
 * total energy  :   -51.9591655 Eh     change       -0.6470380E-04 Eh
 * total energy  :   -51.9592262 Eh     change       -0.6069353E-04 Eh
 * total energy  :   -51.9592792 Eh     change       -0.5293372E-04 Eh
 * total energy  :   -51.9598757 Eh     change       -0.1095276E-04 Eh
 * total energy  :   -51.9598884 Eh     change       -0.1262419E-04 Eh
 * total energy  :   -51.9599040 Eh     change       -0.1563832E-04 Eh
 * total energy  :   -51.9599228 Eh     change       -0.1878707E-04 Eh
 * total energy  :   -51.9599431 Eh     change       -0.2027840E-04 Eh
 * total energy  :   -51.9599625 Eh     change       -0.1943780E-04 Eh
 * total energy  :   -51.9599799 Eh     change       -0.1739542E-04 Eh
 * total energy  :   -51.9599955 Eh     change       -0.1564095E-04 Eh
 * total energy  :   -51.9599982 Eh     change       -0.2621517E-05 Eh
   *** GEOMETRY OPTIMIZATION CONVERGED AFTER 44 ITERATIONS ***

 final structure:
================
43
 xtb: 6.7.1 (edcfbbe)
C            1.98001752142565       -0.15292588394814        0.19823415866128
C            1.71616504376415        1.25608963931503       -0.31884844265828
C            1.97194945376027        1.40601035847501       -1.81967132447271
C            1.09712148175900        0.52627544830491       -2.71565772712322
C           -0.41020961513150        0.73008336798187       -2.55084790832842
C           -0.89732832358531        2.15470194384249       -2.82487495336560
C           -0.63106346967971        2.65711667881587       -4.24612171396164
C           -1.22567975999808        1.80460617648926       -5.37720797710563
C           -2.69240891093557        1.38337353089732       -5.25668200929552
O           -3.65552452569315        2.31612167440404       -5.77108835840934
C           -3.79602622688568        3.50360376999275       -5.11225280364928
N           -4.50057497879742        3.32201181025251       -3.80857248943322
C           -5.52193763069371        2.46030529880619       -3.76307515132789
C           -6.20024149904215        2.22740134993523       -2.58518012477811
C           -5.81318484453900        2.90630288268481       -1.43588064928900
C           -4.75151212723474        3.79963956459765       -1.50942875872236
C           -4.10800186578990        3.98410371727247       -2.71653123233046
H            1.27550407445314       -0.86687168277628       -0.22104326335401
H            1.88303285731121       -0.18015079155943        1.28085049103841
H            2.98712926542696       -0.46947079652812       -0.06176324781961
H            0.68984053803048        1.54549234136041       -0.08149005059553
H            2.37595500299507        1.95122803097340        0.20508768666888
H            1.84209266835490        2.45516155106082       -2.09564757804704
H            3.01465924667717        1.15006024103774       -2.01886055134729
H            1.37868747155234        0.70721603824222       -3.75499389245369
H            1.31691959590996       -0.52136695221347       -2.50678254627808
H           -0.92670982726119        0.03386630504723       -3.21564244966719
H           -0.69385616725809        0.46776091806570       -1.53005929673893
H           -1.97018032992361        2.20267600217472       -2.60068649018654
H           -0.40402295787697        2.83652841377740       -2.13029512952603
H           -0.97031322274130        3.69477326573789       -4.31887721561614
H            0.44744888113650        2.68469211910165       -4.40446490236789
H           -1.09854514227239        2.33072716818263       -6.32529495441986
H           -0.64533381539958        0.88406870137557       -5.44272800326121
H           -2.86101357706137        0.50531852195746       -5.88211089785099
H           -2.94594340610939        1.12264660545530       -4.22295332626627
H           -2.84852053104177        4.01205078669366       -4.90294655156731
H           -4.42640431090553        4.14379071435106       -5.74231172774154
H           -5.76419892112913        1.95905412975210       -4.69057841800273
H           -7.01873973145485        1.52569616958111       -2.57021336027357
H           -6.32610404322502        2.74061665856541       -0.50126010171030
H           -4.41829770858481        4.34282559451152       -0.63960017872791
H           -3.27381563231224        4.66304861795777       -2.81690657830477

          :  Hamiltonian                  GFN2-xTB          :
         :: total energy             -51.959998167863 Eh    ::
         :: gradient norm              0.000196503638 Eh/a0 ::
         :: HOMO-LUMO gap              0.745622257812 eV    ::
         :: SCC energy               -52.722641290123 Eh    ::
         :: -> dispersion             -0.036372445931 Eh    ::
         :: repulsion energy           0.762643122260 Eh    ::

    * Orbital Energies and Occupations

         #    Occupation            Energy/Eh            Energy/eV
      -------------------------------------------------------------
         1        2.0000           -0.8865125             -24.1232
       ...           ...                  ...                  ...
        36        2.0000           -0.5768889             -15.6979
        37        2.0000           -0.5715717             -15.5533
        38        2.0000           -0.5617734             -15.2866
        39        2.0000           -0.5586373             -15.2013
        40        2.0000           -0.5474818             -14.8977
        41        2.0000           -0.5440316             -14.8039
        42        2.0000           -0.5373487             -14.6220
        43        2.0000           -0.5270599             -14.3420
        44        2.0000           -0.5214578             -14.1896
        45        2.0000           -0.5183337             -14.1046
        46        2.0000           -0.4982718             -13.5587
        47        2.0000           -0.4953524             -13.4792
        48        2.0000           -0.4923235             -13.3968 (HOMO)
        49        0.0000           -0.4649224             -12.6512 (LUMO)
        50                         -0.4336044             -11.7990
        51                         -0.3128918              -8.5142
        52                         -0.2027295              -5.5165
        53                         -0.1289435              -3.5087
        54                         -0.0838668              -2.2821
        55                         -0.0503120              -1.3691
        56                         -0.0450317              -1.2254
        57                         -0.0379053              -1.0315
        58                         -0.0358477              -0.9755
        59                         -0.0209466              -0.5700
       ...                                ...                  ...
        94                          0.4411398              12.0040
      -------------------------------------------------------------
                  HL-Gap            0.0274011 Eh            0.7456 eV

     #   Z          covCN         q      C6AA      α(0)
     1   6 C        3.751    -0.105    22.561     6.774
     2   6 C        3.799    -0.052    21.518     6.605
     3   6 C        3.800    -0.060    21.652     6.625
     4   6 C        3.800    -0.061    21.666     6.627
     5   6 C        3.800    -0.060    21.647     6.624
     6   6 C        3.799    -0.055    21.558     6.611
     7   6 C        3.799    -0.062    21.692     6.631
     8   6 C        3.798    -0.078    22.001     6.679
     9   6 C        3.688     0.061    19.742     6.360
    10   8 O        1.700    -0.283    18.699     5.838
    11   6 C        3.641     0.115    19.027     6.272
    12   7 N        2.746     0.074    19.963     6.636
    13   6 C        2.888     0.044    27.006     8.520
    14   6 C        2.915    -0.009    28.231     8.713
    15   6 C        2.925     0.016    27.643     8.622
    16   6 C        2.915    -0.009    28.235     8.713
    17   6 C        2.883     0.039    27.126     8.538
    18   1 H        0.925     0.033     2.539     2.492
    19   1 H        0.925     0.036     2.497     2.471
    20   1 H        0.925     0.040     2.443     2.444
    21   1 H        0.924     0.023     2.692     2.566
    22   1 H        0.924     0.033     2.541     2.493
    23   1 H        0.924     0.026     2.649     2.545
    24   1 H        0.924     0.040     2.454     2.450
    25   1 H        0.924     0.031     2.574     2.509
    26   1 H        0.924     0.044     2.400     2.423
    27   1 H        0.924     0.026     2.642     2.542
    28   1 H        0.924     0.039     2.465     2.456
    29   1 H        0.924    -0.005     3.150     2.776
    30   1 H        0.924     0.044     2.396     2.421
    31   1 H        0.924     0.016     2.799     2.616
    32   1 H        0.924     0.060     2.199     2.319
    33   1 H        0.924     0.059     2.208     2.324
    34   1 H        0.925     0.065     2.140     2.288
    35   1 H        0.924     0.080     1.978     2.199
    36   1 H        0.924     0.033     2.550     2.497
    37   1 H        0.924     0.084     1.935     2.175
    38   1 H        0.924     0.106     1.734     2.060
    39   1 H        0.925     0.127     1.562     1.954
    40   1 H        0.926     0.112     1.676     2.025
    41   1 H        0.926     0.111     1.688     2.032
    42   1 H        0.926     0.112     1.680     2.027
    43   1 H        0.926     0.109     1.706     2.043

Wiberg/Mayer (AO) data.
largest (>0.10) Wiberg bond orders for each atom

     #   Z sym  total        # sym  WBO       # sym  WBO       # sym  WBO
 ---------------------------------------------------------------------------
     1   6 C    3.996 --     2 C    1.020    20 H    0.987    19 H    0.987
                            18 H    0.986
     2   6 C    3.998 --     1 C    1.020     3 C    1.008    22 H    0.978
                            21 H    0.976
     3   6 C    3.997 --     4 C    1.008     2 C    1.008    24 H    0.976
                            23 H    0.976
     4   6 C    3.995 --     3 C    1.008     5 C    1.007    25 H    0.975
                            26 H    0.974
     5   6 C    3.996 --     4 C    1.007     6 C    1.006    27 H    0.976
                            28 H    0.974
     6   6 C    3.996 --     7 C    1.007     5 C    1.006    30 H    0.973
                            29 H    0.971
     7   6 C    3.994 --     6 C    1.007     8 C    1.005    32 H    0.971
                            31 H    0.968
     8   6 C    3.989 --     7 C    1.005     9 C    1.001    33 H    0.973
                            34 H    0.970
     9   6 C    3.922 --     8 C    1.001    35 H    0.967    36 H    0.967
                            10 O    0.936
    10   8 O    2.140 --    11 C    1.067     9 C    0.936
    11   6 C    3.927 --    10 O    1.067    37 H    0.942    38 H    0.941
                            12 N    0.900
    12   7 N    3.748 --    17 C    1.332    13 C    1.331    11 C    0.900
    13   6 C    3.950 --    14 C    1.461    12 N    1.331    39 H    0.949
    14   6 C    3.979 --    13 C    1.461    15 C    1.422    40 H    0.958
    15   6 C    3.969 --    16 C    1.423    14 C    1.422    41 H    0.960
    16   6 C    3.980 --    17 C    1.459    15 C    1.423    42 H    0.958
    17   6 C    3.956 --    16 C    1.459    12 N    1.332    43 H    0.953
    18   1 H    0.999 --     1 C    0.986
    19   1 H    0.999 --     1 C    0.987
    20   1 H    0.998 --     1 C    0.987
    21   1 H    0.999 --     2 C    0.976
    22   1 H    0.999 --     2 C    0.978
    23   1 H    0.999 --     3 C    0.976
    24   1 H    0.998 --     3 C    0.976
    25   1 H    0.999 --     4 C    0.975
    26   1 H    0.998 --     4 C    0.974
    27   1 H    0.999 --     5 C    0.976
    28   1 H    0.998 --     5 C    0.974
    29   1 H    1.000 --     6 C    0.971
    30   1 H    0.998 --     6 C    0.973
    31   1 H    1.000 --     7 C    0.968
    32   1 H    0.996 --     7 C    0.971
    33   1 H    0.996 --     8 C    0.973
    34   1 H    0.996 --     8 C    0.970
    35   1 H    0.993 --     9 C    0.967
    36   1 H    0.999 --     9 C    0.967
    37   1 H    0.993 --    11 C    0.942
    38   1 H    0.989 --    11 C    0.941
    39   1 H    0.984 --    13 C    0.949
    40   1 H    0.987 --    14 C    0.958
    41   1 H    0.987 --    15 C    0.960
    42   1 H    0.987 --    16 C    0.958
    43   1 H    0.988 --    17 C    0.953
 ---------------------------------------------------------------------------

molecular dipole:
                 x           y           z       tot (Debye)
 q only:       -8.015       5.620      -5.863
   full:       -8.028       5.750      -5.777      29.080

           -------------------------------------------------
          | TOTAL ENERGY              -51.959998167863 Eh   |
          | GRADIENT NORM               0.000196503638 Eh/α |
          | HOMO-LUMO GAP               0.745622257812 eV   |
           -------------------------------------------------

 * finished run on 2024/12/20 at 07:10:53.273
