   * xtb version 6.7.1 (edcfbbe) compiled by 'conda@3ef47c1a292c' on 2024-11-25

   ID    Z sym.   atoms
    1    6 C      1, 2, 4, 6-13, 15-20
    2    7 N      3, 5
    3    8 O      14
    4    1 H      21-37

          program call               : xtb C1097.xyz --opt --namespace C1097 --charge +1
          :  Hamiltonian                  GFN2-xTB          :
 * total energy  :   -54.6032950 Eh     change       -0.5417675E-09 Eh
 * total energy  :   -54.6091397 Eh     change       -0.5844687E-02 Eh
 * total energy  :   -54.6104263 Eh     change       -0.1286598E-02 Eh
 * total energy  :   -54.6106557 Eh     change       -0.2294666E-03 Eh
 * total energy  :   -54.6108739 Eh     change       -0.2182042E-03 Eh
 * total energy  :   -54.6110433 Eh     change       -0.1693105E-03 Eh
 * total energy  :   -54.6112857 Eh     change       -0.2424369E-03 Eh
 * total energy  :   -54.6115505 Eh     change       -0.2648534E-03 Eh
 * total energy  :   -54.6118148 Eh     change       -0.2642575E-03 Eh
 * total energy  :   -54.6120235 Eh     change       -0.2086511E-03 Eh
 * total energy  :   -54.6166111 Eh     change       -0.3508379E-04 Eh
 * total energy  :   -54.6166563 Eh     change       -0.4521487E-04 Eh
 * total energy  :   -54.6166822 Eh     change       -0.2589615E-04 Eh
 * total energy  :   -54.6165576 Eh     change        0.1246130E-03 Eh
 * total energy  :   -54.6167060 Eh     change       -0.1483505E-03 Eh
 * total energy  :   -54.6167169 Eh     change       -0.1093774E-04 Eh
 * total energy  :   -54.6167201 Eh     change       -0.3209612E-05 Eh
 * total energy  :   -54.6167252 Eh     change       -0.5040206E-05 Eh
 * total energy  :   -54.6167291 Eh     change       -0.3971686E-05 Eh
   *** GEOMETRY OPTIMIZATION CONVERGED AFTER 61 ITERATIONS ***

 final structure:
================
37
 xtb: 6.7.1 (edcfbbe)
C            0.13602399555355        0.56016116826318       -0.09409892005183
C           -0.65932083537790        0.24507062879842       -1.35710540687633
N            0.21687789418235        0.16814201028062       -2.50470722146020
C            0.77720477156563       -0.93460849547087       -2.98620917930672
N            1.58378958583409       -0.66065384331688       -4.01134085190786
C            1.58847319797190        0.71019771905197       -4.18700114909801
C            0.70528245900668        1.23850729104545       -3.22574904686820
C            0.46263213609217        2.60430515897156       -3.14272701125966
C            1.12655438190536        3.41405824613358       -4.04070285424246
C            2.00517514726650        2.88987804861788       -4.99247560584088
C            2.25169057926901        1.53536165960759       -5.08606135203414
C            2.49291363509437       -1.61255380665940       -4.57715451235318
C            3.37528668988421       -2.17684015907006       -3.42748840747089
O            3.05565844752961       -1.92325306278808       -2.28797744743931
C            4.52498043696488       -2.99099474451887       -3.80710059806536
C            4.78998310431910       -3.38624035024571       -5.12348306143065
C            5.89387646060274       -4.16865771145239       -5.39825103099715
C            6.74854767822221       -4.56250244730212       -4.37687590444981
C            6.49355018663110       -4.17898058389923       -3.06866453040425
C            5.38974069348392       -3.40191850837189       -2.78349733216767
H            0.88601110243604       -0.20653719590893        0.08421001847628
H           -0.53522039781033        0.59421691535448        0.75855008374880
H            0.63533038546986        1.52180663515113       -0.18052968901441
H           -1.17086153440366       -0.71356438822153       -1.25202277854418
H           -1.40349177304029        1.02168041480071       -1.54619993542829
H            0.57187576878640       -1.92276349297906       -2.62089317926268
H           -0.21354285309570        3.01604085949809       -2.41181654757684
H            0.96557254194950        4.47975661356924       -4.00979186249338
H            2.50185297826188        3.56368188959509       -5.67205614009772
H            2.92942118842035        1.14520094945830       -5.82778270687484
H            1.94732174908987       -2.44528808163730       -5.03082010659796
H            3.10584594864098       -1.12293783672073       -5.33254639401722
H            4.13582463811163       -3.10161761672733       -5.93280841052935
H            6.09245611389125       -4.47480323401900       -6.41382705846466
H            7.60951255204027       -5.17207462655325       -4.60331944766988
H            7.15368394989603       -4.48919397809342       -2.27453101347953
H            5.17293699534778       -3.09465204425098       -1.77174340844902

          :  Hamiltonian                  GFN2-xTB          :
         :: total energy             -54.616729122590 Eh    ::
         :: gradient norm              0.000995856758 Eh/a0 ::
         :: HOMO-LUMO gap              3.118529093110 eV    ::
         :: SCC energy               -55.523209754469 Eh    ::
         :: -> dispersion             -0.037083521305 Eh    ::
         :: repulsion energy           0.906480631879 Eh    ::

    * Orbital Energies and Occupations

         #    Occupation            Energy/Eh            Energy/eV
      -------------------------------------------------------------
         1        2.0000           -0.8685618             -23.6348
       ...           ...                  ...                  ...
        38        2.0000           -0.5908829             -16.0787
        39        2.0000           -0.5892800             -16.0351
        40        2.0000           -0.5859276             -15.9439
        41        2.0000           -0.5758055             -15.6685
        42        2.0000           -0.5719366             -15.5632
        43        2.0000           -0.5662757             -15.4091
        44        2.0000           -0.5533939             -15.0586
        45        2.0000           -0.5447357             -14.8230
        46        2.0000           -0.5399651             -14.6932
        47        2.0000           -0.5344515             -14.5432
        48        2.0000           -0.5260487             -14.3145
        49        2.0000           -0.5238811             -14.2555
        50        2.0000           -0.5217051             -14.1963 (HOMO)
        51                         -0.4071013             -11.0778 (LUMO)
        52                         -0.4032562             -10.9732
        53                         -0.3565567              -9.7024
        54                         -0.3480534              -9.4710
        55                         -0.3381504              -9.2015
        56                         -0.3104744              -8.4484
        57                         -0.2311890              -6.2910
        58                         -0.2011662              -5.4740
        59                         -0.1646039              -4.4791
        60                         -0.1238976              -3.3714
        61                         -0.0773211              -2.1040
       ...                                ...                  ...
        97                          0.5537000              15.0669
      -------------------------------------------------------------
                  HL-Gap            0.1146038 Eh            3.1185 eV

     #   Z          covCN         q      C6AA      α(0)
     1   6 C        3.753    -0.122    22.901     6.824
     2   6 C        3.740    -0.014    20.905     6.523
     3   7 N        2.827     0.034    20.649     6.749
     4   6 C        3.071     0.079    26.165     8.387
     5   7 N        2.830     0.036    20.612     6.743
     6   6 C        3.113     0.040    26.960     8.506
     7   6 C        3.120     0.042    26.884     8.492
     8   6 C        2.909    -0.032    28.794     8.799
     9   6 C        2.925    -0.019    28.483     8.752
    10   6 C        2.925    -0.019    28.476     8.751
    11   6 C        2.909    -0.033    28.822     8.803
    12   6 C        3.744    -0.043    21.409     6.601
    13   6 C        2.823     0.227    23.239     7.899
    14   8 O        0.857    -0.358    20.855     6.123
    15   6 C        2.970    -0.017    28.428     8.746
    16   6 C        2.919    -0.027    28.665     8.780
    17   6 C        2.917    -0.019    28.483     8.752
    18   6 C        2.920    -0.007    28.188     8.706
    19   6 C        2.916    -0.018    28.450     8.747
    20   6 C        2.927    -0.009    28.242     8.715
    21   1 H        0.925     0.068     2.113     2.273
    22   1 H        0.925     0.078     1.998     2.211
    23   1 H        0.925     0.063     2.161     2.299
    24   1 H        0.924     0.078     2.001     2.212
    25   1 H        0.924     0.084     1.942     2.179
    26   1 H        0.926     0.112     1.676     2.025
    27   1 H        0.926     0.072     2.068     2.249
    28   1 H        0.926     0.078     1.996     2.209
    29   1 H        0.926     0.078     2.004     2.214
    30   1 H        0.926     0.064     2.155     2.296
    31   1 H        0.924     0.095     1.831     2.116
    32   1 H        0.925     0.098     1.806     2.101
    33   1 H        0.926     0.042     2.418     2.431
    34   1 H        0.926     0.062     2.181     2.309
    35   1 H        0.926     0.067     2.113     2.273
    36   1 H        0.926     0.066     2.131     2.283
    37   1 H        0.926     0.073     2.053     2.241

Wiberg/Mayer (AO) data.
largest (>0.10) Wiberg bond orders for each atom

     #   Z sym  total        # sym  WBO       # sym  WBO       # sym  WBO
 ---------------------------------------------------------------------------
     1   6 C    3.981 --     2 C    1.001    23 H    0.984    21 H    0.984
                            22 H    0.978
     2   6 C    3.943 --     1 C    1.001    24 H    0.968     3 N    0.968
                            25 H    0.964
     3   7 N    3.679 --     4 C    1.371     7 C    1.126     2 C    0.968
     4   6 C    3.953 --     3 N    1.371     5 N    1.345    26 H    0.952
     5   7 N    3.669 --     4 C    1.345     6 C    1.117    12 C    0.997
     6   6 C    3.951 --    11 C    1.345     7 C    1.275     5 N    1.117
     7   6 C    3.954 --     8 C    1.341     6 C    1.275     3 N    1.126
     8   6 C    3.986 --     9 C    1.493     7 C    1.341    27 H    0.963
                            11 C    0.118
     9   6 C    3.986 --     8 C    1.493    10 C    1.381    28 H    0.966
    10   6 C    3.983 --    11 C    1.491     9 C    1.381    29 H    0.966
    11   6 C    3.987 --    10 C    1.491     6 C    1.345    30 H    0.963
                             8 C    0.118
    12   6 C    3.951 --     5 N    0.997    32 H    0.955    31 H    0.943
                            13 C    0.924
    13   6 C    3.927 --    14 O    1.802    15 C    1.080    12 C    0.924
    14   8 O    2.106 --    13 C    1.802
    15   6 C    3.981 --    16 C    1.352    20 C    1.349    13 C    1.080
    16   6 C    3.991 --    17 C    1.473    15 C    1.352    33 H    0.967
                            19 C    0.102
    17   6 C    3.990 --    16 C    1.473    18 C    1.417    34 H    0.968
    18   6 C    3.985 --    19 C    1.427    17 C    1.417    35 H    0.968
    19   6 C    3.989 --    20 C    1.464    18 C    1.427    36 H    0.967
                            16 C    0.102
    20   6 C    3.984 --    19 C    1.464    15 C    1.349    37 H    0.965
    21   1 H    0.995 --     1 C    0.984
    22   1 H    0.993 --     1 C    0.978
    23   1 H    0.996 --     1 C    0.984
    24   1 H    0.993 --     2 C    0.968
    25   1 H    0.992 --     2 C    0.964
    26   1 H    0.986 --     4 C    0.952
    27   1 H    0.994 --     8 C    0.963
    28   1 H    0.993 --     9 C    0.966
    29   1 H    0.994 --    10 C    0.966
    30   1 H    0.995 --    11 C    0.963
    31   1 H    0.990 --    12 C    0.943
    32   1 H    0.990 --    12 C    0.955
    33   1 H    0.998 --    16 C    0.967
    34   1 H    0.996 --    17 C    0.968
    35   1 H    0.995 --    18 C    0.968
    36   1 H    0.995 --    19 C    0.967
    37   1 H    0.995 --    20 C    0.965
 ---------------------------------------------------------------------------

molecular dipole:
                 x           y           z       tot (Debye)
 q only:        3.519      -0.905      -6.904
   full:        3.457      -1.116      -7.095      20.259

           -------------------------------------------------
          | TOTAL ENERGY              -54.616729122590 Eh   |
          | GRADIENT NORM               0.000995856758 Eh/α |
          | HOMO-LUMO GAP               3.118529093110 eV   |
           -------------------------------------------------

 * finished run on 2024/12/20 at 07:11:00.728
