   * xtb version 6.7.1 (edcfbbe) compiled by 'conda@3ef47c1a292c' on 2024-11-25

   ID    Z sym.   atoms
    1    6 C      1, 3-9, 11, 13, 16-21
    2    8 O      2, 10
    3    7 N      12, 14, 15, 22
    4    1 H      23-39

          program call               : xtb C1090.xyz --opt --namespace C1090 --charge +1
          :  Hamiltonian                  GFN2-xTB          :
 * total energy  :   -62.3477439 Eh     change       -0.1027452E-08 Eh
 * total energy  :   -62.3571957 Eh     change       -0.9451826E-02 Eh
 * total energy  :   -62.3597087 Eh     change       -0.2512932E-02 Eh
 * total energy  :   -62.3605246 Eh     change       -0.8159042E-03 Eh
 * total energy  :   -62.3614280 Eh     change       -0.9034439E-03 Eh
 * total energy  :   -62.3619923 Eh     change       -0.5642470E-03 Eh
 * total energy  :   -62.3628065 Eh     change       -0.8142712E-03 Eh
 * total energy  :   -62.3633650 Eh     change       -0.5584698E-03 Eh
 * total energy  :   -62.3639122 Eh     change       -0.5471834E-03 Eh
 * total energy  :   -62.3642714 Eh     change       -0.3592260E-03 Eh
 * total energy  :   -62.3681820 Eh     change       -0.2536757E-04 Eh
 * total energy  :   -62.3681923 Eh     change       -0.1028036E-04 Eh
 * total energy  :   -62.3682051 Eh     change       -0.1281438E-04 Eh
 * total energy  :   -62.3682150 Eh     change       -0.9890036E-05 Eh
 * total energy  :   -62.3682256 Eh     change       -0.1062540E-04 Eh
 * total energy  :   -62.3682346 Eh     change       -0.9003477E-05 Eh
 * total energy  :   -62.3682427 Eh     change       -0.8094332E-05 Eh
 * total energy  :   -62.3682493 Eh     change       -0.6660273E-05 Eh
 * total energy  :   -62.3682542 Eh     change       -0.4893832E-05 Eh
   *** GEOMETRY OPTIMIZATION CONVERGED AFTER 39 ITERATIONS ***

 final structure:
================
39
 xtb: 6.7.1 (edcfbbe)
C            0.90284150733113       -0.20456240067860        1.16645685892242
O            0.03430262204489       -1.10892093424040        0.51342731709175
C            0.47645936912244       -1.84224472549259       -0.50805940594853
C           -0.45933477163927       -2.71469406119632       -1.09141582658918
C           -0.10526185385022       -3.50494152431458       -2.14954296730038
C            1.20439574860487       -3.48135388261411       -2.66831966415983
C            2.13068442937868       -2.60752695614316       -2.08563476829849
C            1.77542617029345       -1.79699443863970       -1.03201215267506
C            1.49360183179077       -4.33442923711283       -3.79922641763862
O            0.62410951384790       -4.87732427854212       -4.46717494111147
C            2.96079564854496       -4.57880043627870       -4.21625430978928
N            3.31478527821858       -3.75688246497550       -5.35560435449444
C            2.70747702696253       -3.80404745295755       -6.55733241685022
N            1.70814987203617       -4.59801867045061       -6.90045307665619
N            3.31583847584128       -2.94411519437478       -7.40683020496910
C            4.35830212873432       -2.31428446816129       -6.73085458607918
C            4.35672751810759       -2.83626920983360       -5.42821020033918
C            5.29918531858589       -2.42422899859818       -4.50233304309199
C            6.21905103773270       -1.47316664201638       -4.91181000960618
C            6.20695521936296       -0.94973838075252       -6.20047093742098
C            5.27666684688339       -1.36457049716008       -7.13814772542902
N            2.88095506708671       -2.78356379449719       -8.71499815498306
H            0.30894637545907        0.25094955748380        1.95628765042504
H            1.25347977237282        0.57346461183929        0.48279659244471
H            1.75777691365879       -0.72242549644179        1.60875551503808
H           -1.45621706268479       -2.73742411263057       -0.68215273982656
H           -0.82125918377890       -4.17440142828437       -2.60079099415052
H            3.13252987873661       -2.52190087557712       -2.47671047797475
H            2.50933331377247       -1.12479933145931       -0.61677375957584
H            3.65760246421438       -4.37607424018912       -3.40726677007277
H            3.04453806300893       -5.63521843845292       -4.49784493952687
H            1.32267994873556       -4.48446026353520       -7.82544728597050
H            1.14571831953331       -5.03335652500304       -6.16007561857376
H            5.33794663060797       -2.82757197952974       -3.50353266155039
H            6.96668486777315       -1.13310809172131       -4.21351655269373
H            6.94066977431328       -0.21032020001622       -6.47736595147853
H            5.27428110093279       -0.96473427901669       -8.13951875794754
H            2.62147685321200       -1.81736062373477       -8.90006633264141
H            3.59648796511382       -3.06818963469967       -9.38085592850115

          :  Hamiltonian                  GFN2-xTB          :
         :: total energy             -62.368254236718 Eh    ::
         :: gradient norm              0.000529943638 Eh/a0 ::
         :: HOMO-LUMO gap              2.533046670658 eV    ::
         :: SCC energy               -63.291671287504 Eh    ::
         :: -> dispersion             -0.040851013869 Eh    ::
         :: repulsion energy           0.923417050785 Eh    ::

    * Orbital Energies and Occupations

         #    Occupation            Energy/Eh            Energy/eV
      -------------------------------------------------------------
         1        2.0000           -0.8692532             -23.6536
       ...           ...                  ...                  ...
        44        2.0000           -0.5760328             -15.6746
        45        2.0000           -0.5727575             -15.5855
        46        2.0000           -0.5709538             -15.5364
        47        2.0000           -0.5637925             -15.3416
        48        2.0000           -0.5590065             -15.2113
        49        2.0000           -0.5583637             -15.1938
        50        2.0000           -0.5475438             -14.8994
        51        2.0000           -0.5357453             -14.5784
        52        2.0000           -0.5300290             -14.4228
        53        2.0000           -0.5243769             -14.2690
        54        2.0000           -0.5227359             -14.2244
        55        2.0000           -0.5124436             -13.9443
        56        2.0000           -0.4949081             -13.4671 (HOMO)
        57                         -0.4018204             -10.9341 (LUMO)
        58                         -0.3774913             -10.2721
        59                         -0.3497234              -9.5165
        60                         -0.3366704              -9.1613
        61                         -0.3339320              -9.0868
        62                         -0.3051725              -8.3042
        63                         -0.2242157              -6.1012
        64                         -0.2051691              -5.5829
        65                         -0.1969684              -5.3598
        66                         -0.1438548              -3.9145
        67                         -0.1066326              -2.9016
       ...                                ...                  ...
       105                          0.5622363              15.2992
      -------------------------------------------------------------
                  HL-Gap            0.0930878 Eh            2.5330 eV

     #   Z          covCN         q      C6AA      α(0)
     1   6 C        3.644     0.022    20.551     6.516
     2   8 O        1.706    -0.219    17.641     5.671
     3   6 C        2.865     0.169    24.352     8.089
     4   6 C        2.915    -0.047    29.158     8.855
     5   6 C        2.925    -0.011    28.296     8.723
     6   6 C        2.968    -0.029    28.714     8.790
     7   6 C        2.918    -0.027    28.674     8.781
     8   6 C        2.913    -0.062    29.548     8.914
     9   6 C        2.822     0.217    23.417     7.929
    10   8 O        0.858    -0.384    21.362     6.197
    11   6 C        3.739    -0.040    21.373     6.597
    12   7 N        2.817    -0.028    21.789     6.933
    13   6 C        2.970     0.194    23.879     8.016
    14   7 N        2.637    -0.241    26.304     7.617
    15   7 N        2.893     0.033    20.663     6.751
    16   6 C        3.065     0.026    27.369     8.579
    17   6 C        3.078     0.037    27.085     8.533
    18   6 C        2.911    -0.037    28.923     8.819
    19   6 C        2.925    -0.024    28.608     8.771
    20   6 C        2.926    -0.024    28.597     8.770
    21   6 C        2.910    -0.037    28.912     8.817
    22   7 N        2.706    -0.264    26.826     7.692
    23   1 H        0.925     0.087     1.912     2.163
    24   1 H        0.924     0.057     2.229     2.335
    25   1 H        0.924     0.059     2.212     2.326
    26   1 H        0.926     0.079     1.993     2.208
    27   1 H        0.926     0.080     1.976     2.198
    28   1 H        0.926     0.043     2.410     2.428
    29   1 H        0.926     0.057     2.239     2.340
    30   1 H        0.925     0.089     1.886     2.148
    31   1 H        0.924     0.090     1.883     2.146
    32   1 H        0.860     0.230     0.966     1.540
    33   1 H        0.859     0.269     0.812     1.411
    34   1 H        0.926     0.058     2.220     2.330
    35   1 H        0.926     0.072     2.064     2.247
    36   1 H        0.926     0.073     2.052     2.240
    37   1 H        0.926     0.062     2.179     2.308
    38   1 H        0.860     0.186     1.183     1.704
    39   1 H        0.860     0.186     1.178     1.701

Wiberg/Mayer (AO) data.
largest (>0.10) Wiberg bond orders for each atom

     #   Z sym  total        # sym  WBO       # sym  WBO       # sym  WBO
 ---------------------------------------------------------------------------
     1   6 C    3.926 --    23 H    0.977    25 H    0.974    24 H    0.974
                             2 O    0.967
     2   8 O    2.305 --     3 C    1.148     1 C    0.967
     3   6 C    3.937 --     8 C    1.317     4 C    1.296     2 O    1.148
     4   6 C    3.985 --     5 C    1.537     3 C    1.296    26 H    0.963
     5   6 C    3.984 --     4 C    1.537     6 C    1.299    27 H    0.963
     6   6 C    3.984 --     7 C    1.334     5 C    1.299     9 C    1.131
     7   6 C    3.991 --     8 C    1.502     6 C    1.334    28 H    0.963
     8   6 C    3.988 --     7 C    1.502     3 C    1.317    29 H    0.964
     9   6 C    3.920 --    10 O    1.726     6 C    1.131    11 C    0.940
    10   8 O    2.066 --     9 C    1.726
    11   6 C    3.946 --    12 N    0.971    30 H    0.963    31 H    0.955
                             9 C    0.940
    12   7 N    3.587 --    13 C    1.249    17 C    1.083    11 C    0.971
    13   6 C    3.973 --    14 N    1.340    12 N    1.249    15 N    1.224
    14   7 N    3.395 --    13 C    1.340    32 H    0.922    33 H    0.850
    15   7 N    3.583 --    13 C    1.224    16 C    1.073    22 N    1.024
    16   6 C    3.952 --    21 C    1.377    17 C    1.280    15 N    1.073
    17   6 C    3.949 --    18 C    1.374    16 C    1.280    12 N    1.083
    18   6 C    3.987 --    19 C    1.455    17 C    1.374    34 H    0.962
                            21 C    0.111
    19   6 C    3.981 --    18 C    1.455    20 C    1.416    35 H    0.967
    20   6 C    3.981 --    21 C    1.454    19 C    1.416    36 H    0.967
    21   6 C    3.986 --    20 C    1.454    16 C    1.377    37 H    0.965
                            18 C    0.111
    22   7 N    2.994 --    15 N    1.024    38 H    0.945    39 H    0.944
    23   1 H    0.992 --     1 C    0.977
    24   1 H    0.995 --     1 C    0.974
    25   1 H    0.995 --     1 C    0.974
    26   1 H    0.993 --     4 C    0.963
    27   1 H    0.993 --     5 C    0.963
    28   1 H    0.998 --     7 C    0.963
    29   1 H    0.996 --     8 C    0.964
    30   1 H    0.992 --    11 C    0.963
    31   1 H    0.990 --    11 C    0.955
    32   1 H    0.947 --    14 N    0.922
    33   1 H    0.927 --    14 N    0.850
    34   1 H    0.996 --    18 C    0.962
    35   1 H    0.994 --    19 C    0.967
    36   1 H    0.994 --    20 C    0.967
    37   1 H    0.995 --    21 C    0.965
    38   1 H    0.965 --    22 N    0.945
    39   1 H    0.965 --    22 N    0.944
 ---------------------------------------------------------------------------

molecular dipole:
                 x           y           z       tot (Debye)
 q only:        5.941      -4.883      -9.602
   full:        6.317      -4.609      -9.664      31.596

           -------------------------------------------------
          | TOTAL ENERGY              -62.368254236718 Eh   |
          | GRADIENT NORM               0.000529943638 Eh/α |
          | HOMO-LUMO GAP               2.533046670658 eV   |
           -------------------------------------------------

 * finished run on 2024/12/20 at 07:10:45.518
