   * xtb version 6.7.1 (edcfbbe) compiled by 'conda@3ef47c1a292c' on 2024-11-25

   ID    Z sym.   atoms
    1    6 C      1-3, 5, 6
    2    7 N      4
    3    1 H      7-18

          program call               : xtb C1099.xyz --opt --namespace C1099 --charge +1
          :  Hamiltonian                  GFN2-xTB          :
 * total energy  :   -19.2890691 Eh     change       -0.9262635E-10 Eh
 * total energy  :   -19.2912972 Eh     change       -0.2228182E-02 Eh
 * total energy  :   -19.2917480 Eh     change       -0.4507345E-03 Eh
 * total energy  :   -19.2917899 Eh     change       -0.4189961E-04 Eh
 * total energy  :   -19.2918168 Eh     change       -0.2690400E-04 Eh
 * total energy  :   -19.2918334 Eh     change       -0.1664774E-04 Eh
 * total energy  :   -19.2918481 Eh     change       -0.1468503E-04 Eh
 * total energy  :   -19.2918581 Eh     change       -0.9951592E-05 Eh
 * total energy  :   -19.2918646 Eh     change       -0.6544406E-05 Eh
 * total energy  :   -19.2918688 Eh     change       -0.4194168E-05 Eh
   *** GEOMETRY OPTIMIZATION CONVERGED AFTER 10 ITERATIONS ***

 final structure:
================
18
 xtb: 6.7.1 (edcfbbe)
C            0.97094321443104        0.07458771138374       -0.18854757552407
C            0.36354328232147       -0.99775924967538        0.28689103462882
C           -1.13241506569481       -1.13830133584755        0.31393434841383
N           -1.63433997305509       -1.94621712940449       -0.84259759286428
C           -1.19080747322795       -3.34928632294596       -0.76300797403896
C           -3.10096577538608       -1.86556735339619       -0.95500129421213
H            0.42816820249681        0.91934771709368       -0.58159791130569
H            2.04275687908175        0.16127880591402       -0.18753051233598
H            0.93561291874543       -1.81479763842519        0.70085034485146
H           -1.45959496716449       -1.62906978961437        1.23268648493839
H           -1.59332107642320       -0.15000419652650        0.25679977769294
H           -1.22227409444176       -1.53563397230563       -1.68920647404750
H           -1.60574214250140       -3.81403187772920        0.12996639728087
H           -1.53132085449875       -3.90257749374054       -1.63629888899290
H           -0.10537696791118       -3.40106471959703       -0.71903651279489
H           -3.41858937880017       -0.83185670495632       -1.07826394292044
H           -3.44716058873355       -2.44115099818708       -1.81156065446321
H           -3.55996613923808       -2.26857545204010       -0.05359905430626

          :  Hamiltonian                  GFN2-xTB          :
         :: total energy             -19.291868803239 Eh    ::
         :: gradient norm              0.000221094189 Eh/a0 ::
         :: HOMO-LUMO gap              5.394034609182 eV    ::
         :: SCC energy               -19.594527544660 Eh    ::
         :: -> dispersion             -0.009176631917 Eh    ::
         :: repulsion energy           0.302658741421 Eh    ::

    * Orbital Energies and Occupations

         #    Occupation            Energy/Eh            Energy/eV
      -------------------------------------------------------------
         1        2.0000           -0.8831145             -24.0308
       ...           ...                  ...                  ...
         6        2.0000           -0.7514851             -20.4489
         7        2.0000           -0.7358776             -20.0242
         8        2.0000           -0.7346453             -19.9907
         9        2.0000           -0.7055087             -19.1979
        10        2.0000           -0.6818353             -18.5537
        11        2.0000           -0.6708450             -18.2546
        12        2.0000           -0.6661097             -18.1258
        13        2.0000           -0.6574334             -17.8897
        14        2.0000           -0.6563241             -17.8595
        15        2.0000           -0.6495266             -17.6745
        16        2.0000           -0.6186290             -16.8338
        17        2.0000           -0.5903030             -16.0630
        18        2.0000           -0.5754737             -15.6594 (HOMO)
        19                         -0.3772466             -10.2654 (LUMO)
        20                         -0.2302389              -6.2651
        21                         -0.1514842              -4.1221
        22                         -0.1476035              -4.0165
        23                         -0.1277586              -3.4765
        24                         -0.0573410              -1.5603
        25                         -0.0425557              -1.1580
        26                         -0.0244839              -0.6662
        27                          0.0096505               0.2626
        28                          0.0103485               0.2816
        29                          0.0331966               0.9033
       ...                                ...                  ...
        36                          0.4520988              12.3022
      -------------------------------------------------------------
                  HL-Gap            0.1982271 Eh            5.3940 eV

     #   Z          covCN         q      C6AA      α(0)
     1   6 C        2.838    -0.075    29.867     8.956
     2   6 C        2.885    -0.050    29.250     8.867
     3   6 C        3.750    -0.041    21.366     6.592
     4   7 N        3.577     0.065    20.103     6.659
     5   6 C        3.699    -0.098    22.538     6.790
     6   6 C        3.700    -0.099    22.553     6.792
     7   1 H        0.926     0.070     2.087     2.259
     8   1 H        0.926     0.088     1.898     2.155
     9   1 H        0.926     0.069     2.096     2.264
    10   1 H        0.924     0.100     1.789     2.092
    11   1 H        0.924     0.097     1.812     2.105
    12   1 H        0.859     0.230     0.964     1.538
    13   1 H        0.925     0.109     1.702     2.040
    14   1 H        0.925     0.104     1.748     2.068
    15   1 H        0.925     0.109     1.706     2.043
    16   1 H        0.925     0.104     1.745     2.066
    17   1 H        0.925     0.107     1.722     2.052
    18   1 H        0.925     0.110     1.697     2.037

Wiberg/Mayer (AO) data.
largest (>0.10) Wiberg bond orders for each atom

     #   Z sym  total        # sym  WBO       # sym  WBO       # sym  WBO
 ---------------------------------------------------------------------------
     1   6 C    3.979 --     2 C    1.983     7 H    0.971     8 H    0.970
     2   6 C    3.980 --     1 C    1.983     3 C    1.014     9 H    0.962
     3   6 C    3.919 --     2 C    1.014    11 H    0.964    10 H    0.963
                             4 N    0.915
     4   7 N    3.780 --     6 C    0.961     5 C    0.960     3 C    0.915
                            12 H    0.914
     5   6 C    3.915 --    14 H    0.975    13 H    0.974    15 H    0.972
                             4 N    0.960
     6   6 C    3.917 --    16 H    0.975    18 H    0.974    17 H    0.973
                             4 N    0.961
     7   1 H    0.995 --     1 C    0.971
     8   1 H    0.992 --     1 C    0.970
     9   1 H    0.995 --     2 C    0.962
    10   1 H    0.990 --     3 C    0.963
    11   1 H    0.991 --     3 C    0.964
    12   1 H    0.947 --     4 N    0.914
    13   1 H    0.988 --     5 C    0.974
    14   1 H    0.989 --     5 C    0.975
    15   1 H    0.988 --     5 C    0.972
    16   1 H    0.989 --     6 C    0.975
    17   1 H    0.988 --     6 C    0.973
    18   1 H    0.988 --     6 C    0.974
 ---------------------------------------------------------------------------

molecular dipole:
                 x           y           z       tot (Debye)
 q only:       -2.836      -3.578      -1.316
   full:       -2.843      -3.511      -1.449      12.059

           -------------------------------------------------
          | TOTAL ENERGY              -19.291868803239 Eh   |
          | GRADIENT NORM               0.000221094189 Eh/α |
          | HOMO-LUMO GAP               5.394034609182 eV   |
           -------------------------------------------------

 * finished run on 2024/12/20 at 07:11:01.191
