   * xtb version 6.7.1 (edcfbbe) compiled by 'conda@3ef47c1a292c' on 2024-11-25

   ID    Z sym.   atoms
    1    6 C      1-4, 7-11, 13, 15-17, 19-24
    2    8 O      5, 6, 18
    3    7 N      12, 14
    4    9 F      25
    5    1 H      26-47

          program call               : xtb C1092.xyz --opt --namespace C1092 --charge +1
          :  Hamiltonian                  GFN2-xTB          :
 * total energy  :   -74.3014396 Eh     change       -0.1173873E-08 Eh
 * total energy  :   -74.3106168 Eh     change       -0.9177240E-02 Eh
 * total energy  :   -74.3126886 Eh     change       -0.2071764E-02 Eh
 * total energy  :   -74.3132483 Eh     change       -0.5597026E-03 Eh
 * total energy  :   -74.3137539 Eh     change       -0.5055968E-03 Eh
 * total energy  :   -74.3141218 Eh     change       -0.3678758E-03 Eh
 * total energy  :   -74.3145748 Eh     change       -0.4530682E-03 Eh
 * total energy  :   -74.3151081 Eh     change       -0.5332712E-03 Eh
 * total energy  :   -74.3156165 Eh     change       -0.5084455E-03 Eh
 * total energy  :   -74.3160331 Eh     change       -0.4165823E-03 Eh
 * total energy  :   -74.3310408 Eh     change       -0.2730386E-04 Eh
 * total energy  :   -74.3310739 Eh     change       -0.3313812E-04 Eh
 * total energy  :   -74.3311060 Eh     change       -0.3212901E-04 Eh
 * total energy  :   -74.3311269 Eh     change       -0.2085672E-04 Eh
 * total energy  :   -74.3311496 Eh     change       -0.2270810E-04 Eh
 * total energy  :   -74.3311616 Eh     change       -0.1195979E-04 Eh
 * total energy  :   -74.3311753 Eh     change       -0.1377436E-04 Eh
 * total energy  :   -74.3311825 Eh     change       -0.7127869E-05 Eh
 * total energy  :   -74.3311875 Eh     change       -0.4980009E-05 Eh
   *** GEOMETRY OPTIMIZATION CONVERGED AFTER 96 ITERATIONS ***

 final structure:
================
47
 xtb: 6.7.1 (edcfbbe)
C           -1.29100921888251       -0.67619205150643       -0.26481944654838
C           -0.79970975793272       -0.55452913272876       -1.70482578152039
C            0.30818639056632       -1.51536786878966       -2.15617628753502
C            0.16158048888303       -2.96673645849235       -1.70517000142736
O           -0.81888374939472       -3.55908830822535       -1.38583047698131
O            1.39485682559157       -3.54019822767790       -1.69277959609658
C            2.36370344299729       -2.60896709503385       -2.14845124555449
C            1.77775927889714       -1.23846765811558       -1.79231463581988
C            1.94461432515250       -0.92210192194456       -0.29110938576452
C            3.33689900953236       -1.10191120334727        0.19524944605434
C            4.42689866581010       -0.28822791857317        0.06835256485814
N            5.48477287496835       -0.90665700303267        0.66786814360760
C            5.05100749790935       -2.06079159768083        1.17135928231253
N            3.75950716345257       -2.21021124975028        0.88921198907231
C            2.94473807360726       -3.32764874463111        1.29402341284645
C            6.77083523820672       -0.33608720283004        0.94368723776782
C            6.92888364059144       -0.21376664202217        2.48740718566273
O            6.10909861911585       -0.75685661094879        3.19077072335176
C            8.07730507355159        0.53810597159494        2.98339300003885
C            9.06423647091033        1.08679908318025        2.15515397297715
C           10.12664846435184        1.77355598120553        2.70232824194884
C           10.20394514628824        1.91528426606334        4.08224891485446
C            9.24238470307776        1.37992774275770        4.92848364902571
C            8.18571828292962        0.69312657885410        4.37331989447888
F           11.23103713080248        2.58184842443492        4.60377005550037
H           -1.53320944611220       -1.70850705019563       -0.03044239787187
H           -2.20101896225332       -0.09115653530216       -0.15951424950623
H           -0.57663233455366       -0.29801182398116        0.46071174462647
H           -1.65668573643649       -0.74490166656114       -2.35247412106061
H           -0.46478464780953        0.46683838906789       -1.89925034331119
H            0.26105781057350       -1.55555228498816       -3.25333195597186
H            2.48114452387586       -2.71025197649126       -3.23365970533883
H            3.31720165686906       -2.84592503551564       -1.67538268589411
H            2.22144924696024       -0.44582668763643       -2.39458285522822
H            1.64265035273174        0.11211978767914       -0.12389335225207
H            1.28284203497453       -1.57281695400488        0.27940506900074
H            4.51173341146762        0.67085420161111       -0.39982819422323
H            5.65078992082967       -2.76824751219685        1.70878164587664
H            3.58266273960338       -4.10798239958197        1.70221507350866
H            2.23846793273126       -3.01680136887310        2.06589737317115
H            2.38685727349897       -3.73140142035378        0.44788657813978
H            7.56839403185773       -0.98388559066157        0.56932653234716
H            6.83887566108532        0.64209240663811        0.46861003613635
H            9.01974862713892        0.97597835868995        1.08312913159820
H           10.89819156137763        2.20186136154264        2.08277833623595
H            9.33645039768634        1.50651898349163        5.99490687721083
H            7.41981986305014        0.26234366483040        5.00053060572979

          :  Hamiltonian                  GFN2-xTB          :
         :: total energy             -74.331187451684 Eh    ::
         :: gradient norm              0.000954224948 Eh/a0 ::
         :: HOMO-LUMO gap              2.402620821526 eV    ::
         :: SCC energy               -75.312348674476 Eh    ::
         :: -> dispersion             -0.047251597814 Eh    ::
         :: repulsion energy           0.981161222793 Eh    ::

    * Orbital Energies and Occupations

         #    Occupation            Energy/Eh            Energy/eV
      -------------------------------------------------------------
         1        2.0000           -0.9241194             -25.1466
       ...           ...                  ...                  ...
        54        2.0000           -0.5867670             -15.9667
        55        2.0000           -0.5817896             -15.8313
        56        2.0000           -0.5791887             -15.7605
        57        2.0000           -0.5635851             -15.3359
        58        2.0000           -0.5518850             -15.0176
        59        2.0000           -0.5482439             -14.9185
        60        2.0000           -0.5472955             -14.8927
        61        2.0000           -0.5404927             -14.7076
        62        2.0000           -0.5399581             -14.6930
        63        2.0000           -0.5353414             -14.5674
        64        2.0000           -0.5306126             -14.4387
        65        2.0000           -0.5262857             -14.3210
        66        2.0000           -0.5060632             -13.7707 (HOMO)
        67                         -0.4177685             -11.3681 (LUMO)
        68                         -0.3950095             -10.7488
        69                         -0.3616592              -9.8412
        70                         -0.3565455              -9.7021
        71                         -0.3297656              -8.9734
        72                         -0.3229916              -8.7890
        73                         -0.2166074              -5.8942
        74                         -0.1754760              -4.7749
        75                         -0.1376213              -3.7449
        76                         -0.1052375              -2.8637
        77                         -0.0908042              -2.4709
       ...                                ...                  ...
       122                          0.5931844              16.1414
      -------------------------------------------------------------
                  HL-Gap            0.0882947 Eh            2.4026 eV

     #   Z          covCN         q      C6AA      α(0)
     1   6 C        3.750    -0.117    22.812     6.812
     2   6 C        3.799    -0.060    21.647     6.625
     3   6 C        3.890    -0.056    21.530     6.596
     4   6 C        2.781     0.355    20.978     7.502
     5   8 O        0.856    -0.343    20.570     6.081
     6   8 O        1.706    -0.273    18.528     5.812
     7   6 C        3.785     0.065    19.508     6.291
     8   6 C        3.876    -0.029    21.049     6.523
     9   6 C        3.805    -0.078    21.988     6.675
    10   6 C        3.094     0.044    26.914     8.503
    11   6 C        3.070    -0.027    28.603     8.769
    12   7 N        2.860     0.064    20.123     6.662
    13   6 C        3.080     0.056    26.652     8.464
    14   7 N        2.867     0.057    20.250     6.683
    15   6 C        3.692    -0.085    22.312     6.759
    16   6 C        3.743    -0.050    21.546     6.622
    17   6 C        2.822     0.228    23.214     7.895
    18   8 O        0.857    -0.352    20.743     6.106
    19   6 C        2.969    -0.021    28.532     8.762
    20   6 C        2.922    -0.026    28.657     8.779
    21   6 C        2.915    -0.040    28.990     8.829
    22   6 C        2.787     0.195    23.836     7.997
    23   6 C        2.913    -0.038    28.950     8.823
    24   6 C        2.931    -0.009    28.242     8.715
    25   9 F        0.788    -0.178    11.013     3.920
    26   1 H        0.925     0.060     2.199     2.319
    27   1 H        0.925     0.056     2.247     2.344
    28   1 H        0.925     0.031     2.576     2.510
    29   1 H        0.924     0.064     2.151     2.294
    30   1 H        0.924     0.046     2.368     2.406
    31   1 H        0.923     0.074     2.043     2.235
    32   1 H        0.924     0.060     2.196     2.317
    33   1 H        0.924     0.048     2.344     2.394
    34   1 H        0.925     0.055     2.261     2.351
    35   1 H        0.924     0.087     1.905     2.158
    36   1 H        0.925     0.087     1.910     2.161
    37   1 H        0.926     0.095     1.835     2.118
    38   1 H        0.926     0.118     1.633     1.998
    39   1 H        0.925     0.096     1.826     2.113
    40   1 H        0.924     0.102     1.764     2.077
    41   1 H        0.924     0.118     1.632     1.998
    42   1 H        0.924     0.101     1.780     2.086
    43   1 H        0.925     0.101     1.776     2.084
    44   1 H        0.926     0.056     2.252     2.347
    45   1 H        0.926     0.087     1.912     2.162
    46   1 H        0.926     0.091     1.868     2.137
    47   1 H        0.926     0.088     1.898     2.155

Wiberg/Mayer (AO) data.
largest (>0.10) Wiberg bond orders for each atom

     #   Z sym  total        # sym  WBO       # sym  WBO       # sym  WBO
 ---------------------------------------------------------------------------
     1   6 C    3.992 --     2 C    1.020    28 H    0.985    27 H    0.984
                            26 H    0.983
     2   6 C    3.989 --     1 C    1.020     3 C    0.989    30 H    0.975
                            29 H    0.974
     3   6 C    3.986 --     2 C    0.989     8 C    0.978     4 C    0.950
                            31 H    0.934
     4   6 C    3.913 --     5 O    1.823     6 O    1.074     3 C    0.950
     5   8 O    2.112 --     4 C    1.823     6 O    0.159
     6   8 O    2.277 --     4 C    1.074     7 C    0.963     5 O    0.159
     7   6 C    3.940 --     8 C    0.988    33 H    0.969    32 H    0.966
                             6 O    0.963
     8   6 C    3.991 --     7 C    0.988     3 C    0.978     9 C    0.970
                            34 H    0.970
     9   6 C    3.984 --    10 C    1.026     8 C    0.970    36 H    0.959
                            35 H    0.956
    10   6 C    3.951 --    11 C    1.557    14 N    1.187     9 C    1.026
    11   6 C    3.940 --    10 C    1.557    12 N    1.204    37 H    0.963
    12   7 N    3.703 --    13 C    1.345    11 C    1.204    16 C    0.996
    13   6 C    3.945 --    14 N    1.358    12 N    1.345    38 H    0.953
    14   7 N    3.703 --    13 C    1.358    10 C    1.187    15 C    0.988
    15   6 C    3.931 --    14 N    0.988    39 H    0.975    40 H    0.959
                            41 H    0.957
    16   6 C    3.948 --    12 N    0.996    43 H    0.956    42 H    0.943
                            17 C    0.923
    17   6 C    3.928 --    18 O    1.808    19 C    1.082    16 C    0.923
    18   8 O    2.099 --    17 C    1.808
    19   6 C    3.983 --    20 C    1.350    24 C    1.344    17 C    1.082
    20   6 C    3.990 --    21 C    1.482    19 C    1.350    44 H    0.965
    21   6 C    3.987 --    20 C    1.482    22 C    1.364    45 H    0.963
    22   6 C    3.896 --    23 C    1.371    21 C    1.364    25 F    1.004
    23   6 C    3.985 --    24 C    1.476    22 C    1.371    46 H    0.961
    24   6 C    3.982 --    23 C    1.476    19 C    1.344    47 H    0.962
    25   9 F    1.148 --    22 C    1.004
    26   1 H    0.996 --     1 C    0.983
    27   1 H    0.997 --     1 C    0.984
    28   1 H    0.999 --     1 C    0.985
    29   1 H    0.996 --     2 C    0.974
    30   1 H    0.998 --     2 C    0.975
    31   1 H    0.993 --     3 C    0.934
    32   1 H    0.996 --     7 C    0.966
    33   1 H    0.997 --     7 C    0.969
    34   1 H    0.997 --     8 C    0.970
    35   1 H    0.992 --     9 C    0.956
    36   1 H    0.992 --     9 C    0.959
    37   1 H    0.991 --    11 C    0.963
    38   1 H    0.986 --    13 C    0.953
    39   1 H    0.990 --    15 C    0.975
    40   1 H    0.989 --    15 C    0.959
    41   1 H    0.986 --    15 C    0.957
    42   1 H    0.989 --    16 C    0.943
    43   1 H    0.989 --    16 C    0.956
    44   1 H    0.997 --    20 C    0.965
    45   1 H    0.992 --    21 C    0.963
    46   1 H    0.991 --    23 C    0.961
    47   1 H    0.992 --    24 C    0.962
 ---------------------------------------------------------------------------

molecular dipole:
                 x           y           z       tot (Debye)
 q only:        9.912      -1.039       1.037
   full:       10.362      -0.911       0.741      26.507

           -------------------------------------------------
          | TOTAL ENERGY              -74.331187451684 Eh   |
          | GRADIENT NORM               0.000954224948 Eh/α |
          | HOMO-LUMO GAP               2.402620821526 eV   |
           -------------------------------------------------

 * finished run on 2024/12/20 at 07:10:51.657
