   * xtb version 6.7.1 (edcfbbe) compiled by 'conda@3ef47c1a292c' on 2024-11-25

   ID    Z sym.   atoms
    1    8 O      1, 7
    2    6 C      2, 3, 5, 6
    3    7 N      4
    4    1 H      8-19

          program call               : xtb C1095.xyz --opt --namespace C1095 --charge +1
          :  Hamiltonian                  GFN2-xTB          :
 * total energy  :   -25.3013927 Eh     change       -0.1145182E-09 Eh
 * total energy  :   -25.3040573 Eh     change       -0.2664590E-02 Eh
 * total energy  :   -25.3047887 Eh     change       -0.7314067E-03 Eh
 * total energy  :   -25.3049282 Eh     change       -0.1395255E-03 Eh
 * total energy  :   -25.3049726 Eh     change       -0.4439708E-04 Eh
 * total energy  :   -25.3050175 Eh     change       -0.4482493E-04 Eh
 * total energy  :   -25.3050552 Eh     change       -0.3769664E-04 Eh
 * total energy  :   -25.3050824 Eh     change       -0.2720188E-04 Eh
 * total energy  :   -25.3050955 Eh     change       -0.1312206E-04 Eh
 * total energy  :   -25.3051032 Eh     change       -0.7762239E-05 Eh
 * total energy  :   -25.3051104 Eh     change       -0.7131433E-05 Eh
 * total energy  :   -25.3051183 Eh     change       -0.7954793E-05 Eh
 * total energy  :   -25.3051255 Eh     change       -0.7171853E-05 Eh
 * total energy  :   -25.3051300 Eh     change       -0.4488057E-05 Eh
   *** GEOMETRY OPTIMIZATION CONVERGED AFTER 14 ITERATIONS ***

 final structure:
================
19
 xtb: 6.7.1 (edcfbbe)
O            1.51362827865382        0.06798051538124        0.42893633280347
C            0.55647020238814        0.51410596691890       -0.51099253169142
C            0.85534431382974        2.00126937981163       -0.73085568668736
N            2.32441217931651        2.14840426216626       -0.85584598413144
C            2.88891924576009        1.94128011764427       -2.21004787212742
C            2.79943858930032        3.27635019575286       -2.95764514467449
O            3.21542140222837        4.26024921498601       -2.03160690176120
H            1.27035391604739       -0.79670080809948        0.77336189840908
H            0.65028087760102       -0.05089267392579       -1.44794805094956
H           -0.46515531212347        0.39953240801424       -0.13869248841737
H            0.34789970337843        2.38529948262946       -1.61401161250348
H            0.52902734207787        2.56414679921022        0.14498844412340
H            2.63438931818112        3.10423488768425       -0.60744431814449
H            2.69568109934214        1.45937452411425       -0.17849922180422
H            3.93811322830098        1.66150960561347       -2.10357196259024
H            2.35825274720576        1.15068595997720       -2.73758702806357
H            3.44734598948859        3.24456256410685       -3.83779208209371
H            1.77182997954194        3.47563806602793       -3.28963071889704
H            3.38277689948141        5.09519953198619       -2.47919507079879

          :  Hamiltonian                  GFN2-xTB          :
         :: total energy             -25.305129984614 Eh    ::
         :: gradient norm              0.000167307149 Eh/a0 ::
         :: HOMO-LUMO gap              9.178295089171 eV    ::
         :: SCC energy               -25.558519732957 Eh    ::
         :: -> dispersion             -0.009701271864 Eh    ::
         :: repulsion energy           0.253389748343 Eh    ::

    * Orbital Energies and Occupations

         #    Occupation            Energy/Eh            Energy/eV
      -------------------------------------------------------------
         1        2.0000           -0.8731486             -23.7596
       ...           ...                  ...                  ...
        10        2.0000           -0.7296140             -19.8538
        11        2.0000           -0.7284497             -19.8221
        12        2.0000           -0.7126908             -19.3933
        13        2.0000           -0.6984252             -19.0051
        14        2.0000           -0.6942684             -18.8920
        15        2.0000           -0.6768673             -18.4185
        16        2.0000           -0.6567758             -17.8718
        17        2.0000           -0.6462452             -17.5852
        18        2.0000           -0.6436578             -17.5148
        19        2.0000           -0.6306882             -17.1619
        20        2.0000           -0.6249324             -17.0053
        21        2.0000           -0.5760095             -15.6740
        22        2.0000           -0.5741224             -15.6227 (HOMO)
        23                         -0.2368263              -6.4444 (LUMO)
        24                         -0.1453496              -3.9552
        25                         -0.1310125              -3.5650
        26                         -0.1235207              -3.3612
        27                         -0.0983100              -2.6751
        28                         -0.0831024              -2.2613
        29                         -0.0797033              -2.1688
        30                         -0.0439916              -1.1971
        31                         -0.0422311              -1.1492
        32                         -0.0131101              -0.3567
        33                         -0.0071533              -0.1947
       ...                                ...                  ...
        40                          0.1187818               3.2322
      -------------------------------------------------------------
                  HL-Gap            0.3372961 Eh            9.1783 eV

     #   Z          covCN         q      C6AA      α(0)
     1   8 O        1.656    -0.444    21.711     6.290
     2   6 C        3.675     0.061    19.780     6.372
     3   6 C        3.733    -0.037    21.317     6.590
     4   7 N        3.535    -0.054    22.280     7.010
     5   6 C        3.733    -0.037    21.317     6.590
     6   6 C        3.675     0.061    19.780     6.372
     7   8 O        1.656    -0.444    21.711     6.290
     8   1 H        0.805     0.322     0.659     1.275
     9   1 H        0.923     0.056     2.250     2.346
    10   1 H        0.924     0.073     2.048     2.238
    11   1 H        0.925     0.103     1.753     2.071
    12   1 H        0.924     0.110     1.700     2.039
    13   1 H        0.858     0.282     0.769     1.374
    14   1 H        0.858     0.282     0.769     1.374
    15   1 H        0.924     0.110     1.700     2.039
    16   1 H        0.925     0.103     1.753     2.071
    17   1 H        0.924     0.073     2.048     2.238
    18   1 H        0.923     0.056     2.250     2.346
    19   1 H        0.805     0.322     0.659     1.275

Wiberg/Mayer (AO) data.
largest (>0.10) Wiberg bond orders for each atom

     #   Z sym  total        # sym  WBO       # sym  WBO       # sym  WBO
 ---------------------------------------------------------------------------
     1   8 O    1.967 --     2 C    1.001     8 H    0.879
     2   6 C    3.953 --     3 C    1.003     1 O    1.001    10 H    0.967
                             9 H    0.966
     3   6 C    3.929 --     2 C    1.003    11 H    0.967    12 H    0.966
                             4 N    0.954
     4   7 N    3.714 --     5 C    0.954     3 C    0.954    13 H    0.872
                            14 H    0.872
     5   6 C    3.929 --     6 C    1.003    16 H    0.967    15 H    0.966
                             4 N    0.954
     6   6 C    3.953 --     5 C    1.003     7 O    1.001    17 H    0.967
                            18 H    0.966
     7   8 O    1.967 --     6 C    1.001    19 H    0.879
     8   1 H    0.896 --     1 O    0.879
     9   1 H    0.997 --     2 C    0.966
    10   1 H    0.995 --     2 C    0.967
    11   1 H    0.989 --     3 C    0.967
    12   1 H    0.988 --     3 C    0.966
    13   1 H    0.920 --     4 N    0.872
    14   1 H    0.920 --     4 N    0.872
    15   1 H    0.988 --     5 C    0.966
    16   1 H    0.989 --     5 C    0.967
    17   1 H    0.995 --     6 C    0.967
    18   1 H    0.997 --     6 C    0.966
    19   1 H    0.896 --     7 O    0.879
 ---------------------------------------------------------------------------

molecular dipole:
                 x           y           z       tot (Debye)
 q only:        3.722       3.797      -2.528
   full:        3.658       3.772      -2.616      14.919

           -------------------------------------------------
          | TOTAL ENERGY              -25.305129984614 Eh   |
          | GRADIENT NORM               0.000167307149 Eh/α |
          | HOMO-LUMO GAP               9.178295089171 eV   |
           -------------------------------------------------

 * finished run on 2024/12/20 at 07:10:57.232
