   * xtb version 6.7.1 (edcfbbe) compiled by 'conda@3ef47c1a292c' on 2024-11-25

   ID    Z sym.   atoms
    1    6 C      1, 2, 4, 6, 8-10, 12-19, 21-26
    2    8 O      3, 5, 20
    3    7 N      7, 11
    4    1 H      27-49

          program call               : xtb C1091.xyz --opt --namespace C1091 --charge +1
          :  Hamiltonian                  GFN2-xTB          :
 * total energy  :   -74.3754847 Eh     change       -0.7504894E-09 Eh
 * total energy  :   -74.3865812 Eh     change       -0.1109647E-01 Eh
 * total energy  :   -74.3891769 Eh     change       -0.2595669E-02 Eh
 * total energy  :   -74.3896680 Eh     change       -0.4911887E-03 Eh
 * total energy  :   -74.3901723 Eh     change       -0.5042148E-03 Eh
 * total energy  :   -74.3905912 Eh     change       -0.4189444E-03 Eh
 * total energy  :   -74.3910810 Eh     change       -0.4897973E-03 Eh
 * total energy  :   -74.3916534 Eh     change       -0.5724061E-03 Eh
 * total energy  :   -74.3922273 Eh     change       -0.5739252E-03 Eh
 * total energy  :   -74.3927478 Eh     change       -0.5205100E-03 Eh
 * total energy  :   -74.3951064 Eh     change       -0.1643288E-04 Eh
 * total energy  :   -74.3951189 Eh     change       -0.1245587E-04 Eh
 * total energy  :   -74.3951257 Eh     change       -0.6804267E-05 Eh
 * total energy  :   -74.3951339 Eh     change       -0.8273321E-05 Eh
 * total energy  :   -74.3951472 Eh     change       -0.1324587E-04 Eh
 * total energy  :   -74.3951646 Eh     change       -0.1741253E-04 Eh
 * total energy  :   -74.3951714 Eh     change       -0.6813045E-05 Eh
 * total energy  :   -74.3951776 Eh     change       -0.6207001E-05 Eh
 * total energy  :   -74.3951824 Eh     change       -0.4804719E-05 Eh
   *** GEOMETRY OPTIMIZATION CONVERGED AFTER 46 ITERATIONS ***

 final structure:
================
49
 xtb: 6.7.1 (edcfbbe)
C            0.39115052231477       -0.14034057314434        0.02539644671742
C            0.02617381071026       -1.41504060731725        0.76660494696924
O            1.08945509588299       -1.81996038212841        1.65227410155476
C            2.04544347502862       -2.58386448600568        1.14217718211107
O            2.11216842961061       -2.99701678511696        0.02477311911176
C            3.11991788249892       -2.90050428486337        2.20594736704441
N            2.81483802711771       -2.32030780115623        3.48329649756508
C            3.00496991994875       -1.04135098523552        3.83663277429848
C            3.73360045476226       -0.04877111662938        3.01247424756402
C            5.25525041620907       -0.20165056533608        3.16296225405666
N            2.47260967867902       -0.82087315647190        5.04554468676416
C            1.88339482574238       -1.99372081608331        5.48588081352048
C            2.10061176089730       -2.95262054908206        4.48261938015200
C            1.62463821843913       -4.25117905964339        4.60664492570529
C            0.92913768124589       -4.55589182411395        5.75901552946692
C            0.70669660437922       -3.60232258752314        6.75459608029771
C            1.17423175617497       -2.30887148394343        6.63864752263461
C            2.43630504491284        0.44255632390909        5.74098258818013
C            3.83272219392209        1.07865028234988        5.96435252184193
O            4.07666514783583        2.12371594077863        5.41112242414330
C            4.78242479338904        0.38233813515574        6.83875490454620
C            4.49317271850574       -0.80256905032230        7.52163648173056
C            5.44866035970749       -1.38332920502412        8.33261458823255
C            6.69829937459943       -0.79768610771724        8.47744145548818
C            6.99685257289408        0.37753647789443        7.80455205124335
C            6.04795483591739        0.96376601160507        6.99252860338495
H            0.62105734361632        0.65955289039220        0.72545047619981
H           -0.44820303415826        0.16593762965062       -0.59096351048503
H            1.24910960989548       -0.31050124125098       -0.62058748560987
H           -0.83617912678754       -1.26645893421388        1.41805818503314
H           -0.16995668557929       -2.22697826184911        0.06184989210491
H            3.18277085519444       -3.98637450329001        2.30362713323774
H            4.08079099841726       -2.54445447762437        1.82828934475049
H            3.45755523457810       -0.18190998855623        1.96475441786380
H            3.45322365944998        0.96150485860316        3.31099146335269
H            5.59356935194918       -1.18996252917580        2.86243077416108
H            5.74866896500605        0.53560752599068        2.53746442111140
H            5.56135278536141       -0.03324711975963        4.19178269866732
H            1.78011420541541       -4.99200913878386        3.83984002206438
H            0.54150036111201       -5.55287813634537        5.89348386072593
H            0.15101726247388       -3.88382667824214        7.63461456183753
H            0.98163206554184       -1.58393190336155        7.41338290064593
H            1.85161404861554        1.16506636952290        5.16081174876664
H            1.94877486334728        0.29914040524020        6.70560568151893
H            3.52747622666202       -1.27550730806412        7.43973625188304
H            5.21667504554329       -2.29448620048041        8.86256894716726
H            7.43492412721158       -1.25632759991767        9.11861174133811
H            7.96686185644942        0.83559516970097        7.91764016716052
H            6.25773437935649        1.88167742697807        6.46415281220177

          :  Hamiltonian                  GFN2-xTB          :
         :: total energy             -74.395182428602 Eh    ::
         :: gradient norm              0.000782344705 Eh/a0 ::
         :: HOMO-LUMO gap              3.014259287015 eV    ::
         :: SCC energy               -75.503753088085 Eh    ::
         :: -> dispersion             -0.054270091894 Eh    ::
         :: repulsion energy           1.108570659484 Eh    ::

    * Orbital Energies and Occupations

         #    Occupation            Energy/Eh            Energy/eV
      -------------------------------------------------------------
         1        2.0000           -0.8770679             -23.8662
       ...           ...                  ...                  ...
        55        2.0000           -0.5781930             -15.7334
        56        2.0000           -0.5734018             -15.6031
        57        2.0000           -0.5727894             -15.5864
        58        2.0000           -0.5639927             -15.3470
        59        2.0000           -0.5562102             -15.1352
        60        2.0000           -0.5531576             -15.0522
        61        2.0000           -0.5517161             -15.0130
        62        2.0000           -0.5472572             -14.8916
        63        2.0000           -0.5391727             -14.6716
        64        2.0000           -0.5371143             -14.6156
        65        2.0000           -0.5282432             -14.3742
        66        2.0000           -0.5247830             -14.2801
        67        2.0000           -0.5201543             -14.1541 (HOMO)
        68                         -0.4093823             -11.1399 (LUMO)
        69                         -0.4069983             -11.0750
        70                         -0.3623056              -9.8588
        71                         -0.3562716              -9.6946
        72                         -0.3551764              -9.6648
        73                         -0.3417483              -9.2994
        74                         -0.3142114              -8.5501
        75                         -0.2371579              -6.4534
        76                         -0.2061239              -5.6089
        77                         -0.1743450              -4.7442
        78                         -0.1360496              -3.7021
       ...                                ...                  ...
       127                          0.5597760              15.2323
      -------------------------------------------------------------
                  HL-Gap            0.1107720 Eh            3.0143 eV

     #   Z          covCN         q      C6AA      α(0)
     1   6 C        3.751    -0.120    22.867     6.820
     2   6 C        3.697     0.072    19.542     6.323
     3   8 O        1.702    -0.268    18.449     5.799
     4   6 C        2.711     0.359    20.914     7.486
     5   8 O        0.856    -0.361    20.913     6.131
     6   6 C        3.741    -0.048    21.521     6.619
     7   7 N        2.832     0.018    20.928     6.794
     8   6 C        3.072     0.121    25.278     8.243
     9   6 C        3.803    -0.073    21.899     6.662
    10   6 C        3.753    -0.110    22.657     6.788
    11   7 N        2.828     0.014    21.014     6.808
    12   6 C        3.094     0.040    27.001     8.516
    13   6 C        3.094     0.040    26.991     8.515
    14   6 C        2.909    -0.033    28.819     8.803
    15   6 C        2.926    -0.019    28.475     8.751
    16   6 C        2.925    -0.020    28.501     8.755
    17   6 C        2.909    -0.034    28.857     8.809
    18   6 C        3.739    -0.042    21.406     6.602
    19   6 C        2.819     0.224    23.298     7.909
    20   8 O        0.858    -0.334    20.406     6.056
    21   6 C        2.970    -0.020    28.512     8.759
    22   6 C        2.919    -0.031    28.772     8.796
    23   6 C        2.917    -0.023    28.577     8.766
    24   6 C        2.920    -0.009    28.251     8.716
    25   6 C        2.916    -0.019    28.475     8.750
    26   6 C        2.927    -0.013    28.346     8.731
    27   1 H        0.925     0.055     2.259     2.351
    28   1 H        0.925     0.073     2.058     2.243
    29   1 H        0.925     0.065     2.144     2.290
    30   1 H        0.924     0.070     2.090     2.261
    31   1 H        0.924     0.075     2.034     2.230
    32   1 H        0.924     0.112     1.680     2.027
    33   1 H        0.924     0.108     1.713     2.047
    34   1 H        0.924     0.081     1.970     2.195
    35   1 H        0.925     0.095     1.828     2.114
    36   1 H        0.925     0.050     2.324     2.384
    37   1 H        0.925     0.081     1.966     2.193
    38   1 H        0.925     0.054     2.267     2.354
    39   1 H        0.926     0.068     2.104     2.268
    40   1 H        0.926     0.080     1.983     2.202
    41   1 H        0.926     0.079     1.991     2.207
    42   1 H        0.926     0.066     2.135     2.285
    43   1 H        0.924     0.095     1.833     2.117
    44   1 H        0.924     0.095     1.834     2.118
    45   1 H        0.926     0.035     2.520     2.483
    46   1 H        0.926     0.053     2.280     2.361
    47   1 H        0.926     0.064     2.153     2.294
    48   1 H        0.926     0.065     2.146     2.291
    49   1 H        0.926     0.075     2.027     2.227

Wiberg/Mayer (AO) data.
largest (>0.10) Wiberg bond orders for each atom

     #   Z sym  total        # sym  WBO       # sym  WBO       # sym  WBO
 ---------------------------------------------------------------------------
     1   6 C    3.988 --     2 C    1.015    27 H    0.985    29 H    0.984
                            28 H    0.978
     2   6 C    3.903 --     1 C    1.015    30 H    0.970    31 H    0.969
                             3 O    0.910
     3   8 O    2.318 --     4 C    1.163     2 C    0.910     5 O    0.188
     4   6 C    3.935 --     5 O    1.785     3 O    1.163     6 C    0.920
     5   8 O    2.094 --     4 C    1.785     3 O    0.188
     6   6 C    3.951 --     7 N    0.994    32 H    0.946    33 H    0.944
                             4 C    0.920
     7   7 N    3.659 --     8 C    1.319    13 C    1.115     6 C    0.994
     8   6 C    3.949 --    11 N    1.330     7 N    1.319     9 C    1.030
     9   6 C    3.978 --     8 C    1.030    10 C    0.978    35 H    0.958
                            34 H    0.956
    10   6 C    3.979 --    36 H    0.984    38 H    0.983    37 H    0.979
                             9 C    0.978
    11   7 N    3.658 --     8 C    1.330    12 C    1.113    18 C    0.979
    12   6 C    3.952 --    17 C    1.343    13 C    1.278    11 N    1.113
    13   6 C    3.952 --    14 C    1.345    12 C    1.278     7 N    1.115
    14   6 C    3.984 --    15 C    1.488    13 C    1.345    39 H    0.962
                            17 C    0.118
    15   6 C    3.983 --    14 C    1.488    16 C    1.384    40 H    0.966
    16   6 C    3.983 --    17 C    1.487    15 C    1.384    41 H    0.966
    17   6 C    3.984 --    16 C    1.487    12 C    1.343    42 H    0.961
                            14 C    0.118
    18   6 C    3.942 --    11 N    0.979    43 H    0.954    44 H    0.952
                            19 C    0.929
    19   6 C    3.931 --    20 O    1.831    21 C    1.067    18 C    0.929
    20   8 O    2.099 --    19 C    1.831
    21   6 C    3.986 --    22 C    1.361    26 C    1.353    19 C    1.067
    22   6 C    3.992 --    23 C    1.467    21 C    1.361    45 H    0.964
                            25 C    0.103
    23   6 C    3.991 --    22 C    1.467    24 C    1.421    46 H    0.969
                            26 C    0.101
    24   6 C    3.986 --    25 C    1.427    23 C    1.421    47 H    0.969
    25   6 C    3.989 --    26 C    1.464    24 C    1.427    48 H    0.967
                            22 C    0.103
    26   6 C    3.985 --    25 C    1.464    21 C    1.353    49 H    0.964
                            23 C    0.101
    27   1 H    0.997 --     1 C    0.985
    28   1 H    0.994 --     1 C    0.978
    29   1 H    0.996 --     1 C    0.984
    30   1 H    0.995 --     2 C    0.970
    31   1 H    0.994 --     2 C    0.969
    32   1 H    0.987 --     6 C    0.946
    33   1 H    0.987 --     6 C    0.944
    34   1 H    0.992 --     9 C    0.956
    35   1 H    0.990 --     9 C    0.958
    36   1 H    0.998 --    10 C    0.984
    37   1 H    0.992 --    10 C    0.979
    38   1 H    0.997 --    10 C    0.983
    39   1 H    0.995 --    14 C    0.962
    40   1 H    0.993 --    15 C    0.966
    41   1 H    0.993 --    16 C    0.966
    42   1 H    0.995 --    17 C    0.961
    43   1 H    0.990 --    18 C    0.954
    44   1 H    0.991 --    18 C    0.952
    45   1 H    0.999 --    22 C    0.964
    46   1 H    0.997 --    23 C    0.969
    47   1 H    0.995 --    24 C    0.969
    48   1 H    0.995 --    25 C    0.967
    49   1 H    0.994 --    26 C    0.964
 ---------------------------------------------------------------------------

molecular dipole:
                 x           y           z       tot (Debye)
 q only:        5.292      -3.251       9.321
   full:        5.173      -3.376       9.476      28.752

           -------------------------------------------------
          | TOTAL ENERGY              -74.395182428602 Eh   |
          | GRADIENT NORM               0.000782344705 Eh/α |
          | HOMO-LUMO GAP               3.014259287015 eV   |
           -------------------------------------------------

 * finished run on 2024/12/20 at 07:10:47.979
