   * xtb version 6.7.1 (edcfbbe) compiled by 'conda@3ef47c1a292c' on 2024-11-25

   ID    Z sym.   atoms
    1    7 N      1, 5, 7
    2    6 C      2-4, 6, 8-22
    3    1 H      23-40

          program call               : xtb C1096.xyz --opt --namespace C1096 --charge +1
          :  Hamiltonian                  GFN2-xTB          :
 * total energy  :   -58.1715720 Eh     change       -0.2908493E-08 Eh
 * total energy  :   -58.2071538 Eh     change       -0.3558187E-01 Eh
 * total energy  :   -58.2106230 Eh     change       -0.3469144E-02 Eh
 * total energy  :   -58.2117270 Eh     change       -0.1104026E-02 Eh
 * total energy  :   -58.2122866 Eh     change       -0.5596107E-03 Eh
 * total energy  :   -58.2128673 Eh     change       -0.5806690E-03 Eh
 * total energy  :   -58.2132908 Eh     change       -0.4234807E-03 Eh
 * total energy  :   -58.2136274 Eh     change       -0.3366076E-03 Eh
 * total energy  :   -58.2139350 Eh     change       -0.3076467E-03 Eh
 * total energy  :   -58.2141826 Eh     change       -0.2476358E-03 Eh
 * total energy  :   -58.2156387 Eh     change       -0.9907821E-05 Eh
 * total energy  :   -58.2156533 Eh     change       -0.1460516E-04 Eh
 * total energy  :   -58.2156668 Eh     change       -0.1348344E-04 Eh
 * total energy  :   -58.2156837 Eh     change       -0.1691426E-04 Eh
 * total energy  :   -58.2156919 Eh     change       -0.8140375E-05 Eh
 * total energy  :   -58.2156959 Eh     change       -0.3987324E-05 Eh
 * total energy  :   -58.2157017 Eh     change       -0.5865530E-05 Eh
 * total energy  :   -58.2157048 Eh     change       -0.3059352E-05 Eh
 * total energy  :   -58.2157060 Eh     change       -0.1211415E-05 Eh
   *** GEOMETRY OPTIMIZATION CONVERGED AFTER 35 ITERATIONS ***

 final structure:
================
40
 xtb: 6.7.1 (edcfbbe)
N            1.01231636197474       -0.31238291480926       -1.08642269521265
C            2.03309044751108       -0.18725007947783       -0.59089885322426
C            3.36973044661113        0.00238595940871       -0.08037038469049
C            4.38313028722371       -0.16513601343654       -1.22905743104722
N            4.02710803303800        0.68416071008761       -2.34181457785785
C            3.17465732620980        0.37214045284960       -3.31536876274861
N            2.98193735139055        1.43115104883437       -4.09421980668484
C            3.74145235640164        2.46812159844654       -3.61210644836803
C            4.39225331958569        1.98729826353727       -2.50728756559922
C            3.80321484973140        3.80636831068906       -4.19928663869498
C            2.64390084186470        4.55355697303583       -4.40094888020521
C            2.72709578030120        5.82090988313751       -4.94878841459471
C            3.95878787211949        6.34921361149737       -5.29987472608952
C            5.11440069293442        5.61373075092862       -5.09020702468041
C            5.04166347638696        4.34856483668392       -4.53704645547254
C            2.22274924744627        1.40721085114533       -5.33177547036241
C            3.04402404065381        0.74085955633262       -6.41322494071265
C            4.06665021146905        1.44836854697831       -7.03335544689187
C            4.83941009172752        0.84055500963118       -8.00683968262071
C            4.59586631343638       -0.47523084575875       -8.36519039107292
C            3.57793571173564       -1.18305755474653       -7.74889788180990
C            2.80648974302477       -0.57901955846424       -6.77060795124082
H            3.43747036375773        1.00184881347142        0.35757102700354
H            3.57063049679236       -0.73299029757949        0.70096934785556
H            5.38339777362973        0.10297164836455       -0.88351762740903
H            4.38909398464727       -1.20283697884233       -1.57120735940287
H            2.70991721075018       -0.58447465777524       -3.45176230122366
H            5.06967187370561        2.48797988877400       -1.84645278546452
H            1.68451345083016        4.15938054890910       -4.09818926860180
H            1.82768232352861        6.39739094517734       -5.09772264626663
H            4.01857516423396        7.33626163658834       -5.73040424576971
H            6.07479075504394        6.02619174905764       -5.35662825081318
H            5.93835906109589        3.76799820539644       -4.38011604976986
H            1.29443079099624        0.85936913969187       -5.15854210988218
H            1.99306229663645        2.43506365437226       -5.61418743144546
H            4.25008774666501        2.47850073553073       -6.76234349371585
H            5.62748168731859        1.39690893658018       -8.48987036302351
H            5.19516348370598       -0.94620863671764       -9.12841989441540
H            3.38050944865970       -2.20541370899266       -8.03107479790408
H            2.00594728522324       -1.13121101853717       -6.29982131987409

          :  Hamiltonian                  GFN2-xTB          :
         :: total energy             -58.215706004234 Eh    ::
         :: gradient norm              0.000554721181 Eh/a0 ::
         :: HOMO-LUMO gap              3.175642364770 eV    ::
         :: SCC energy               -59.282419884623 Eh    ::
         :: -> dispersion             -0.043078897778 Eh    ::
         :: repulsion energy           1.066713880389 Eh    ::

    * Orbital Energies and Occupations

         #    Occupation            Energy/Eh            Energy/eV
      -------------------------------------------------------------
         1        2.0000           -0.8826282             -24.0175
       ...           ...                  ...                  ...
        42        2.0000           -0.5864926             -15.9593
        43        2.0000           -0.5850221             -15.9193
        44        2.0000           -0.5824590             -15.8495
        45        2.0000           -0.5699406             -15.5089
        46        2.0000           -0.5513620             -15.0033
        47        2.0000           -0.5444277             -14.8146
        48        2.0000           -0.5389817             -14.6664
        49        2.0000           -0.5348278             -14.5534
        50        2.0000           -0.5308716             -14.4458
        51        2.0000           -0.5251060             -14.2889
        52        2.0000           -0.5223591             -14.2141
        53        2.0000           -0.5150476             -14.0152
        54        2.0000           -0.5144888             -14.0000 (HOMO)
        55                         -0.3977861             -10.8243 (LUMO)
        56                         -0.3739410             -10.1755
        57                         -0.3432286              -9.3397
        58                         -0.3402828              -9.2596
        59                         -0.3368628              -9.1665
        60                         -0.3330119              -9.0617
        61                         -0.3303677              -8.9898
        62                         -0.3266105              -8.8875
        63                         -0.2167067              -5.8969
        64                         -0.2088156              -5.6822
        65                         -0.1689681              -4.5979
       ...                                ...                  ...
       106                          1.0185494              27.7161
      -------------------------------------------------------------
                  HL-Gap            0.1167027 Eh            3.1756 eV

     #   Z          covCN         q      C6AA      α(0)
     1   7 N        0.911    -0.207    25.513     7.305
     2   6 C        1.900     0.113    28.329     8.596
     3   6 C        3.804    -0.065    21.743     6.638
     4   6 C        3.750    -0.013    20.862     6.514
     5   7 N        2.858     0.047    20.417     6.711
     6   6 C        3.081     0.052    26.750     8.479
     7   7 N        2.870     0.051    20.351     6.700
     8   6 C        3.105     0.047    26.811     8.484
     9   6 C        3.072    -0.022    28.483     8.751
    10   6 C        2.973     0.002    27.969     8.675
    11   6 C        2.922    -0.031    28.783     8.798
    12   6 C        2.919    -0.020    28.512     8.756
    13   6 C        2.920    -0.016    28.416     8.742
    14   6 C        2.919    -0.019    28.488     8.753
    15   6 C        2.924    -0.030    28.740     8.792
    16   6 C        3.748    -0.027    21.128     6.556
    17   6 C        2.973    -0.003    28.103     8.696
    18   6 C        2.923    -0.036    28.907     8.817
    19   6 C        2.919    -0.023    28.579     8.767
    20   6 C        2.920    -0.021    28.531     8.759
    21   6 C        2.920    -0.023    28.569     8.765
    22   6 C        2.922    -0.037    28.928     8.820
    23   1 H        0.924     0.094     1.840     2.121
    24   1 H        0.924     0.108     1.713     2.046
    25   1 H        0.924     0.094     1.838     2.120
    26   1 H        0.924     0.088     1.895     2.153
    27   1 H        0.926     0.110     1.695     2.036
    28   1 H        0.926     0.094     1.840     2.121
    29   1 H        0.926     0.043     2.409     2.427
    30   1 H        0.926     0.061     2.191     2.315
    31   1 H        0.926     0.063     2.160     2.298
    32   1 H        0.926     0.061     2.189     2.314
    33   1 H        0.926     0.043     2.403     2.424
    34   1 H        0.924     0.085     1.925     2.169
    35   1 H        0.924     0.093     1.849     2.127
    36   1 H        0.926     0.036     2.505     2.475
    37   1 H        0.926     0.053     2.278     2.360
    38   1 H        0.926     0.058     2.223     2.332
    39   1 H        0.926     0.056     2.244     2.343
    40   1 H        0.926     0.041     2.441     2.443

Wiberg/Mayer (AO) data.
largest (>0.10) Wiberg bond orders for each atom

     #   Z sym  total        # sym  WBO       # sym  WBO       # sym  WBO
 ---------------------------------------------------------------------------
     1   7 N    3.018 --     2 C    2.863
     2   6 C    3.950 --     1 N    2.863     3 C    1.051
     3   6 C    3.988 --     2 C    1.051     4 C    0.965    23 H    0.943
                            24 H    0.938
     4   6 C    3.949 --     5 N    0.978    26 H    0.967     3 C    0.965
                            25 H    0.964
     5   7 N    3.696 --     6 C    1.348     9 C    1.210     4 C    0.978
     6   6 C    3.945 --     7 N    1.367     5 N    1.348    27 H    0.954
     7   7 N    3.704 --     6 C    1.367     8 C    1.186    16 C    0.955
     8   6 C    3.947 --     9 C    1.532     7 N    1.186    10 C    1.038
     9   6 C    3.940 --     8 C    1.532     5 N    1.210    28 H    0.964
    10   6 C    3.979 --    11 C    1.385    15 C    1.384     8 C    1.038
                            13 C    0.106
    11   6 C    3.990 --    12 C    1.448    10 C    1.385    29 H    0.968
                            14 C    0.108
    12   6 C    3.989 --    11 C    1.448    13 C    1.436    30 H    0.968
                            15 C    0.108
    13   6 C    3.986 --    12 C    1.436    14 C    1.435    31 H    0.969
                            10 C    0.106
    14   6 C    3.989 --    15 C    1.450    13 C    1.435    32 H    0.968
                            11 C    0.108
    15   6 C    3.990 --    14 C    1.450    10 C    1.384    33 H    0.969
                            12 C    0.108
    16   6 C    3.933 --    17 C    0.978    34 H    0.962    35 H    0.957
                             7 N    0.955
    17   6 C    3.978 --    22 C    1.417    18 C    1.412    16 C    0.978
                            20 C    0.109
    18   6 C    3.992 --    19 C    1.446    17 C    1.412    36 H    0.968
                            21 C    0.112
    19   6 C    3.991 --    18 C    1.446    20 C    1.437    37 H    0.969
                            22 C    0.110
    20   6 C    3.988 --    21 C    1.441    19 C    1.437    38 H    0.969
                            17 C    0.109
    21   6 C    3.990 --    20 C    1.441    22 C    1.440    39 H    0.969
                            18 C    0.112
    22   6 C    3.991 --    21 C    1.440    17 C    1.417    40 H    0.968
                            19 C    0.110
    23   1 H    0.991 --     3 C    0.943
    24   1 H    0.987 --     3 C    0.938
    25   1 H    0.991 --     4 C    0.964
    26   1 H    0.992 --     4 C    0.967
    27   1 H    0.987 --     6 C    0.954
    28   1 H    0.991 --     9 C    0.964
    29   1 H    0.998 --    11 C    0.968
    30   1 H    0.995 --    12 C    0.968
    31   1 H    0.996 --    13 C    0.969
    32   1 H    0.996 --    14 C    0.968
    33   1 H    0.998 --    15 C    0.969
    34   1 H    0.992 --    16 C    0.962
    35   1 H    0.991 --    16 C    0.957
    36   1 H    0.999 --    18 C    0.968
    37   1 H    0.997 --    19 C    0.969
    38   1 H    0.996 --    20 C    0.969
    39   1 H    0.996 --    21 C    0.969
    40   1 H    0.998 --    22 C    0.968
 ---------------------------------------------------------------------------

molecular dipole:
                 x           y           z       tot (Debye)
 q only:        7.641       2.805      -6.791
   full:        7.999       2.719      -6.420      26.971

           -------------------------------------------------
          | TOTAL ENERGY              -58.215706004234 Eh   |
          | GRADIENT NORM               0.000554721181 Eh/α |
          | HOMO-LUMO GAP               3.175642364770 eV   |
           -------------------------------------------------

 * finished run on 2024/12/20 at 07:10:58.922
