   * xtb version 6.7.1 (edcfbbe) compiled by 'conda@3ef47c1a292c' on 2024-11-25

   ID    Z sym.   atoms
    1    7 N      1, 7, 10
    2    6 C      2-6, 8, 9, 11, 12
    3    1 H      13-26

          program call               : xtb C1104.xyz --opt --namespace C1104 --charge +1
          :  Hamiltonian                  GFN2-xTB          :
 * total energy  :   -34.7315396 Eh     change       -0.5021192E-09 Eh
 * total energy  :   -34.7641952 Eh     change       -0.3265562E-01 Eh
 * total energy  :   -34.7661184 Eh     change       -0.1923132E-02 Eh
 * total energy  :   -34.7665805 Eh     change       -0.4620814E-03 Eh
 * total energy  :   -34.7667741 Eh     change       -0.1936418E-03 Eh
 * total energy  :   -34.7668719 Eh     change       -0.9777118E-04 Eh
 * total energy  :   -34.7669323 Eh     change       -0.6047949E-04 Eh
 * total energy  :   -34.7669931 Eh     change       -0.6079500E-04 Eh
 * total energy  :   -34.7670483 Eh     change       -0.5514030E-04 Eh
 * total energy  :   -34.7670831 Eh     change       -0.3481205E-04 Eh
 * total energy  :   -34.7671075 Eh     change       -0.2443638E-04 Eh
 * total energy  :   -34.7671262 Eh     change       -0.1870245E-04 Eh
 * total energy  :   -34.7671426 Eh     change       -0.1640331E-04 Eh
 * total energy  :   -34.7671761 Eh     change       -0.3350523E-04 Eh
 * total energy  :   -34.7671946 Eh     change       -0.1849907E-04 Eh
 * total energy  :   -34.7672102 Eh     change       -0.1552523E-04 Eh
 * total energy  :   -34.7672249 Eh     change       -0.1474135E-04 Eh
 * total energy  :   -34.7672304 Eh     change       -0.5541868E-05 Eh
 * total energy  :   -34.7672336 Eh     change       -0.3166679E-05 Eh
   *** GEOMETRY OPTIMIZATION CONVERGED AFTER 19 ITERATIONS ***

 final structure:
================
26
 xtb: 6.7.1 (edcfbbe)
N            1.09430651269404       -0.42253676702408       -0.32246744262347
C            2.19899991024076       -0.22775961162517       -0.11005424001034
C            3.61036625416706       -0.02207233486527        0.11962381963244
C            4.34192606726280       -1.35906483327018        0.31725475727191
C            4.01063043118804       -2.40377161209868       -0.75017845788560
C            4.47812233167442       -2.03645296699670       -2.16291432426652
N            5.92122980366666       -2.02331871396984       -2.25955047186338
C            6.71627064840665       -3.12817800164778       -2.25445215033145
C            8.00747520715057       -2.69993864662897       -2.32908699244294
N            7.98189508690864       -1.34074591282285       -2.37590136351400
C            6.70800145494754       -0.95387613814042       -2.32894827942281
C            9.12604226943698       -0.47274378920690       -2.47185685470639
H            4.01264929719098        0.53940938747525       -0.72856225742837
H            3.72650700738706        0.59649800460915        1.01276678162842
H            5.41882684340621       -1.17345112180112        0.35540349990631
H            4.04750632192060       -1.77273524271969        1.28288039084390
H            4.45467650961332       -3.35822420476687       -0.46193355117180
H            2.92895173165493       -2.53995756306147       -0.78869583796050
H            4.09613246958370       -2.77620050987976       -2.87018742138114
H            4.09794453504244       -1.05604882454087       -2.45191578045151
H            6.32179319223144       -4.12272274400628       -2.20892455254428
H            8.91826225204373       -3.26301681925051       -2.35310764071003
H            6.37443635813868        0.06545080186056       -2.35927495454031
H            9.05928201538687        0.14560980988928       -3.36756283100363
H            9.18419602623340        0.18094662092897       -1.60092627175939
H           10.03192946242270       -1.07201826644181       -2.52377757326632

          :  Hamiltonian                  GFN2-xTB          :
         :: total energy             -34.767233613253 Eh    ::
         :: gradient norm              0.000837996244 Eh/a0 ::
         :: HOMO-LUMO gap              2.799230925729 eV    ::
         :: SCC energy               -35.338485384351 Eh    ::
         :: -> dispersion             -0.019793426606 Eh    ::
         :: repulsion energy           0.571251771099 Eh    ::

    * Orbital Energies and Occupations

         #    Occupation            Energy/Eh            Energy/eV
      -------------------------------------------------------------
         1        2.0000           -0.9068758             -24.6773
       ...           ...                  ...                  ...
        20        2.0000           -0.6626997             -18.0330
        21        2.0000           -0.6470640             -17.6075
        22        2.0000           -0.6421762             -17.4745
        23        2.0000           -0.6372901             -17.3415
        24        2.0000           -0.6321333             -17.2012
        25        2.0000           -0.6153826             -16.7454
        26        2.0000           -0.5981528             -16.2766
        27        2.0000           -0.5942816             -16.1712
        28        2.0000           -0.5912562             -16.0889
        29        2.0000           -0.5836567             -15.8821
        30        2.0000           -0.5658664             -15.3980
        31        2.0000           -0.5600098             -15.2386
        32        2.0000           -0.5206650             -14.1680 (HOMO)
        33                         -0.4177951             -11.3688 (LUMO)
        34                         -0.3799713             -10.3395
        35                         -0.3066100              -8.3433
        36                         -0.3009322              -8.1888
        37                         -0.1946295              -5.2961
        38                         -0.1401872              -3.8147
        39                         -0.0757581              -2.0615
        40                         -0.0671344              -1.8268
        41                         -0.0531291              -1.4457
        42                         -0.0476937              -1.2978
        43                         -0.0326639              -0.8888
       ...                                ...                  ...
        62                          1.0492173              28.5507
      -------------------------------------------------------------
                  HL-Gap            0.1028698 Eh            2.7992 eV

     #   Z          covCN         q      C6AA      α(0)
     1   7 N        0.911    -0.210    25.578     7.315
     2   6 C        1.897     0.110    28.398     8.607
     3   6 C        3.803    -0.058    21.617     6.619
     4   6 C        3.805    -0.058    21.607     6.617
     5   6 C        3.801    -0.073    21.893     6.662
     6   6 C        3.741    -0.028    21.144     6.560
     7   7 N        2.867     0.072    19.980     6.639
     8   6 C        3.075    -0.006    28.091     8.690
     9   6 C        3.073    -0.006    28.098     8.691
    10   7 N        2.866     0.077    19.899     6.625
    11   6 C        3.102     0.044    26.896     8.498
    12   6 C        3.692    -0.087    22.359     6.766
    13   1 H        0.924     0.057     2.237     2.339
    14   1 H        0.924     0.084     1.938     2.177
    15   1 H        0.924     0.033     2.544     2.494
    16   1 H        0.924     0.068     2.104     2.269
    17   1 H        0.924     0.061     2.188     2.313
    18   1 H        0.924     0.086     1.915     2.164
    19   1 H        0.924     0.095     1.833     2.117
    20   1 H        0.924     0.087     1.905     2.158
    21   1 H        0.926     0.112     1.683     2.029
    22   1 H        0.926     0.111     1.686     2.030
    23   1 H        0.926     0.111     1.685     2.030
    24   1 H        0.924     0.105     1.741     2.063
    25   1 H        0.924     0.104     1.749     2.068
    26   1 H        0.925     0.108     1.710     2.045

Wiberg/Mayer (AO) data.
largest (>0.10) Wiberg bond orders for each atom

     #   Z sym  total        # sym  WBO       # sym  WBO       # sym  WBO
 ---------------------------------------------------------------------------
     1   7 N    3.018 --     2 C    2.866
     2   6 C    3.948 --     1 N    2.866     3 C    1.046
     3   6 C    3.996 --     2 C    1.046     4 C    0.983    13 H    0.948
                            14 H    0.945
     4   6 C    3.994 --     5 C    1.010     3 C    0.983    15 H    0.976
                            16 H    0.973
     5   6 C    3.983 --     4 C    1.010     6 C    0.985    17 H    0.972
                            18 H    0.962
     6   6 C    3.936 --     5 C    0.985     7 N    0.967    20 H    0.965
                            19 H    0.958
     7   7 N    3.722 --    11 C    1.366     8 C    1.232     6 C    0.967
     8   6 C    3.950 --     9 C    1.586     7 N    1.232    21 H    0.960
     9   6 C    3.949 --     8 C    1.586    10 N    1.234    22 H    0.960
    10   7 N    3.721 --    11 C    1.355     9 C    1.234    12 C    0.989
    11   6 C    3.947 --     7 N    1.366    10 N    1.355    23 H    0.954
    12   6 C    3.932 --    10 N    0.989    26 H    0.974    24 H    0.963
                            25 H    0.963
    13   1 H    0.997 --     3 C    0.948
    14   1 H    0.993 --     3 C    0.945
    15   1 H    0.999 --     4 C    0.976
    16   1 H    0.995 --     4 C    0.973
    17   1 H    0.996 --     5 C    0.972
    18   1 H    0.992 --     5 C    0.962
    19   1 H    0.991 --     6 C    0.958
    20   1 H    0.992 --     6 C    0.965
    21   1 H    0.988 --     8 C    0.960
    22   1 H    0.987 --     9 C    0.960
    23   1 H    0.988 --    11 C    0.954
    24   1 H    0.989 --    12 C    0.963
    25   1 H    0.989 --    12 C    0.963
    26   1 H    0.988 --    12 C    0.974
 ---------------------------------------------------------------------------

molecular dipole:
                 x           y           z       tot (Debye)
 q only:       13.705      -3.016      -3.899
   full:       14.189      -2.845      -3.868      38.074

           -------------------------------------------------
          | TOTAL ENERGY              -34.767233613253 Eh   |
          | GRADIENT NORM               0.000837996244 Eh/α |
          | HOMO-LUMO GAP               2.799230925729 eV   |
           -------------------------------------------------

 * finished run on 2024/12/20 at 07:11:19.985
