   * xtb version 6.7.1 (edcfbbe) compiled by 'conda@3ef47c1a292c' on 2024-11-25

   ID    Z sym.   atoms
    1    6 C      1, 3, 5-12
    2    8 O      2, 4
    3    7 N      13
    4    1 H      14-27

          program call               : xtb C1103.xyz --opt --namespace C1103 --charge +1
          :  Hamiltonian                  GFN2-xTB          :
 * total energy  :   -39.1609798 Eh     change       -0.9266685E-09 Eh
 * total energy  :   -39.1664167 Eh     change       -0.5436849E-02 Eh
 * total energy  :   -39.1672927 Eh     change       -0.8759969E-03 Eh
 * total energy  :   -39.1676407 Eh     change       -0.3480305E-03 Eh
 * total energy  :   -39.1678583 Eh     change       -0.2175886E-03 Eh
 * total energy  :   -39.1681001 Eh     change       -0.2417768E-03 Eh
 * total energy  :   -39.1684153 Eh     change       -0.3152312E-03 Eh
 * total energy  :   -39.1688898 Eh     change       -0.4744821E-03 Eh
 * total energy  :   -39.1695147 Eh     change       -0.6249485E-03 Eh
 * total energy  :   -39.1696418 Eh     change       -0.1270616E-03 Eh
 * total energy  :   -39.1707540 Eh     change       -0.1473667E-03 Eh
 * total energy  :   -39.1708559 Eh     change       -0.1018712E-03 Eh
 * total energy  :   -39.1709287 Eh     change       -0.7282012E-04 Eh
 * total energy  :   -39.1709732 Eh     change       -0.4444055E-04 Eh
 * total energy  :   -39.1709911 Eh     change       -0.1795308E-04 Eh
 * total energy  :   -39.1710023 Eh     change       -0.1119272E-04 Eh
 * total energy  :   -39.1710083 Eh     change       -0.6012237E-05 Eh
 * total energy  :   -39.1710133 Eh     change       -0.5008278E-05 Eh
 * total energy  :   -39.1710174 Eh     change       -0.4022021E-05 Eh
   *** GEOMETRY OPTIMIZATION CONVERGED AFTER 21 ITERATIONS ***

 final structure:
================
27
 xtb: 6.7.1 (edcfbbe)
C            0.48995598134629       -0.19170735771633        1.05206424122717
O            0.04301664220515        1.17003061153172        0.99679279640487
C            0.98933878851305        2.10875071348162        1.03840010123518
O            2.16191831134760        1.92000221043472        1.11846045318439
C            0.36945920481518        3.52019541585631        0.96580585671246
C            0.99735286704830        4.28974984129677       -0.21106476145537
C            0.54996050137198        3.64714971413999       -1.49819501161212
C           -0.66513287002853        4.02470806868273       -2.07656692147192
C           -1.13513245927242        3.37052405381025       -3.20800853713634
C           -0.40832163714172        2.32892319763650       -3.75598391516623
C            0.80166323991061        1.95656685246940       -3.19016519360947
C            1.27663806806645        2.60706998802183       -2.06451536040531
N           -1.10409626906125        3.42787392284536        0.75657730530813
H           -0.37672361656470       -0.80269261559769        0.81667027546586
H            0.86265432212435       -0.42004161699385        2.05059823464457
H            1.28697908643633       -0.35178231876472        0.32643916110993
H            0.59020911223647        4.02232641357440        1.91207158043886
H            0.69593335090716        5.33737134256509       -0.17098666490385
H            2.08128220206423        4.23973273943377       -0.10975372918363
H           -1.19359018452380        4.90211773902907       -1.72071513190645
H           -2.06241370534921        3.68521971606958       -3.66172142597629
H           -0.77245820483208        1.82121973868263       -4.63496938215767
H            1.38004582216940        1.16024210003136       -3.63136010023072
H            2.22253698129598        2.32086782774990       -1.63143654533735
H           -1.43947743619159        2.52086638723194        1.11180222118841
H           -1.61442639498165        4.19775661223707        1.19975226885549
H           -1.24412170391420        3.46410870225939       -0.29373181522341

          :  Hamiltonian                  GFN2-xTB          :
         :: total energy             -39.171017361205 Eh    ::
         :: gradient norm              0.000965928956 Eh/a0 ::
         :: HOMO-LUMO gap              4.014306717342 eV    ::
         :: SCC energy               -39.722685428932 Eh    ::
         :: -> dispersion             -0.023189185198 Eh    ::
         :: repulsion energy           0.551668067727 Eh    ::

    * Orbital Energies and Occupations

         #    Occupation            Energy/Eh            Energy/eV
      -------------------------------------------------------------
         1        2.0000           -0.9117545             -24.8101
       ...           ...                  ...                  ...
        23        2.0000           -0.6414104             -17.4537
        24        2.0000           -0.6265081             -17.0482
        25        2.0000           -0.6163842             -16.7727
        26        2.0000           -0.6115875             -16.6421
        27        2.0000           -0.6108500             -16.6221
        28        2.0000           -0.6082457             -16.5512
        29        2.0000           -0.6051106             -16.4659
        30        2.0000           -0.5933832             -16.1468
        31        2.0000           -0.5783088             -15.7366
        32        2.0000           -0.5554934             -15.1157
        33        2.0000           -0.5519923             -15.0205
        34        2.0000           -0.5409206             -14.7192
        35        2.0000           -0.5370132             -14.6129 (HOMO)
        36                         -0.3894901             -10.5986 (LUMO)
        37                         -0.3649001              -9.9294
        38                         -0.3589284              -9.7669
        39                         -0.2471850              -6.7262
        40                         -0.2328273              -6.3356
        41                         -0.1715964              -4.6694
        42                         -0.1426164              -3.8808
        43                         -0.0898026              -2.4437
        44                         -0.0797970              -2.1714
        45                         -0.0484745              -1.3191
        46                         -0.0422459              -1.1496
       ...                                ...                  ...
        66                          0.5294147              14.4061
      -------------------------------------------------------------
                  HL-Gap            0.1475231 Eh            4.0143 eV

     #   Z          covCN         q      C6AA      α(0)
     1   6 C        3.651     0.015    20.635     6.524
     2   8 O        1.703    -0.269    18.458     5.801
     3   6 C        2.717     0.352    21.029     7.507
     4   8 O        0.856    -0.338    20.484     6.068
     5   6 C        3.783    -0.006    20.710     6.482
     6   6 C        3.810    -0.090    22.212     6.709
     7   6 C        2.972    -0.004    28.109     8.697
     8   6 C        2.921    -0.066    29.635     8.927
     9   6 C        2.917    -0.025    28.634     8.775
    10   6 C        2.919    -0.021    28.531     8.759
    11   6 C        2.919    -0.018    28.457     8.748
    12   6 C        2.921    -0.036    28.904     8.816
    13   7 N        3.482    -0.161    24.470     7.347
    14   1 H        0.925     0.092     1.864     2.135
    15   1 H        0.925     0.088     1.895     2.153
    16   1 H        0.925     0.089     1.888     2.149
    17   1 H        0.924     0.115     1.654     2.011
    18   1 H        0.924     0.077     2.007     2.215
    19   1 H        0.925     0.107     1.720     2.051
    20   1 H        0.925     0.038     2.472     2.459
    21   1 H        0.926     0.055     2.253     2.347
    22   1 H        0.926     0.062     2.171     2.304
    23   1 H        0.926     0.062     2.174     2.306
    24   1 H        0.926     0.057     2.240     2.340
    25   1 H        0.859     0.279     0.781     1.384
    26   1 H        0.859     0.265     0.829     1.427
    27   1 H        0.856     0.281     0.773     1.378

Wiberg/Mayer (AO) data.
largest (>0.10) Wiberg bond orders for each atom

     #   Z sym  total        # sym  WBO       # sym  WBO       # sym  WBO
 ---------------------------------------------------------------------------
     1   6 C    3.890 --    14 H    0.978    16 H    0.975    15 H    0.974
                             2 O    0.926
     2   8 O    2.317 --     3 C    1.140     1 C    0.926     4 O    0.187
     3   6 C    3.938 --     4 O    1.807     2 O    1.140     5 C    0.928
     4   8 O    2.112 --     3 C    1.807     2 O    0.187
     5   6 C    3.915 --     6 C    0.967    17 H    0.945    13 N    0.939
                             3 C    0.928
     6   6 C    3.971 --     7 C    1.007     5 C    0.967    18 H    0.966
                            19 H    0.957
     7   6 C    3.987 --    12 C    1.411     8 C    1.382     6 C    1.007
                            10 C    0.106
     8   6 C    3.990 --     9 C    1.420     7 C    1.382    20 H    0.956
                            11 C    0.106
     9   6 C    3.990 --    10 C    1.448     8 C    1.420    21 H    0.969
                            12 C    0.110
    10   6 C    3.989 --     9 C    1.448    11 C    1.431    22 H    0.968
                             7 C    0.106
    11   6 C    3.989 --    12 C    1.447    10 C    1.431    23 H    0.968
                             8 C    0.106
    12   6 C    3.990 --    11 C    1.447     7 C    1.411    24 H    0.967
                             9 C    0.110
    13   7 N    3.654 --     5 C    0.939    26 H    0.916    25 H    0.890
                            27 H    0.821
    14   1 H    0.991 --     1 C    0.978
    15   1 H    0.992 --     1 C    0.974
    16   1 H    0.992 --     1 C    0.975
    17   1 H    0.986 --     5 C    0.945
    18   1 H    0.993 --     6 C    0.966
    19   1 H    0.988 --     6 C    0.957
    20   1 H    0.999 --     8 C    0.956
    21   1 H    0.997 --     9 C    0.969
    22   1 H    0.996 --    10 C    0.968
    23   1 H    0.996 --    11 C    0.968
    24   1 H    0.997 --    12 C    0.967
    25   1 H    0.922 --    13 N    0.890
    26   1 H    0.930 --    13 N    0.916
    27   1 H    0.921 --    13 N    0.821
 ---------------------------------------------------------------------------

molecular dipole:
                 x           y           z       tot (Debye)
 q only:       -1.808       5.586       0.394
   full:       -2.078       5.650       0.472      15.350

           -------------------------------------------------
          | TOTAL ENERGY              -39.171017361205 Eh   |
          | GRADIENT NORM               0.000965928956 Eh/α |
          | HOMO-LUMO GAP               4.014306717342 eV   |
           -------------------------------------------------

 * finished run on 2024/12/20 at 07:11:19.385
