   * xtb version 6.7.1 (edcfbbe) compiled by 'conda@3ef47c1a292c' on 2024-11-25

   ID    Z sym.   atoms
    1    6 C      1-14, 16, 17, 19, 20
    2    7 N      15, 18
    3    1 H      21-55

          program call               : xtb C1106.xyz --opt --namespace C1106 --charge +1
          :  Hamiltonian                  GFN2-xTB          :
 * total energy  :   -61.8916748 Eh     change       -0.5498521E-08 Eh
 * total energy  :   -61.8956214 Eh     change       -0.3946607E-02 Eh
 * total energy  :   -61.8964158 Eh     change       -0.7944741E-03 Eh
 * total energy  :   -61.8965707 Eh     change       -0.1548791E-03 Eh
 * total energy  :   -61.8966928 Eh     change       -0.1220565E-03 Eh
 * total energy  :   -61.8967415 Eh     change       -0.4871159E-04 Eh
 * total energy  :   -61.8968126 Eh     change       -0.7106576E-04 Eh
 * total energy  :   -61.8969142 Eh     change       -0.1016119E-03 Eh
 * total energy  :   -61.8970097 Eh     change       -0.9549718E-04 Eh
 * total energy  :   -61.8970856 Eh     change       -0.7592388E-04 Eh
 * total energy  :   -61.8979462 Eh     change       -0.3820788E-04 Eh
 * total energy  :   -61.8979778 Eh     change       -0.3161121E-04 Eh
 * total energy  :   -61.8980006 Eh     change       -0.2282291E-04 Eh
 * total energy  :   -61.8980223 Eh     change       -0.2171017E-04 Eh
 * total energy  :   -61.8980432 Eh     change       -0.2084358E-04 Eh
 * total energy  :   -61.8980561 Eh     change       -0.1290624E-04 Eh
 * total energy  :   -61.8980670 Eh     change       -0.1088966E-04 Eh
 * total energy  :   -61.8980741 Eh     change       -0.7155016E-05 Eh
 * total energy  :   -61.8980791 Eh     change       -0.4931449E-05 Eh
   *** GEOMETRY OPTIMIZATION CONVERGED AFTER 36 ITERATIONS ***

 final structure:
================
55
 xtb: 6.7.1 (edcfbbe)
C            1.10368981859729        0.05627911602225        0.60315966349373
C            0.92095674546843        1.54367611003991        0.32554322458068
C            1.22050888134072        1.92921399772563       -1.12388971990423
C            0.32324142426285        1.26251647929385       -2.16869139539335
C           -1.17189415372174        1.55119722313044       -2.01964316449050
C           -1.55584241167755        3.03153612983787       -2.07104123102954
C           -1.12063860972269        3.76927107537418       -3.33863768223444
C           -1.65989993947698        3.18388914620728       -4.64507006410209
C           -3.18516375482024        3.15914889448318       -4.76308605753806
C           -3.86386669791976        4.52769425052045       -4.67230028193748
C           -3.37608047055282        5.56160021673283       -5.69069161768511
C           -3.47183637422171        5.12040913075384       -7.15328673495932
C           -4.88819156618051        4.81210343413320       -7.63968995298482
C           -5.80420840387516        6.04104087186477       -7.69935576083908
N           -5.32041161853500        7.00126254068275       -8.66489346298129
C           -4.52172751728776        8.07034152666102       -8.40025975363281
C           -4.22746749152096        8.66369618868016       -9.59092124428575
N           -4.84749128575247        7.94218655073148      -10.56573114802401
C           -5.50012695781767        6.94086484094575       -9.98192866920342
C           -4.80148793426693        8.23364452754009      -11.97315349079505
H            0.36734102662779       -0.53737820732848        0.06741801213579
H            0.98952405374151       -0.14466785898335        1.66584737466607
H            2.09640858868002       -0.26842648584545        0.29874680870283
H           -0.09619745686751        1.84070862670661        0.58751294996533
H            1.59931736440244        2.10756884927726        0.97075129686058
H            1.14391186825435        3.01455134868295       -1.21917430233494
H            2.25556664734033        1.65789947500233       -1.34766512751077
H            0.65660611412434        1.58313446879526       -3.15838920618714
H            0.46581178234599        0.18132567727176       -2.12205135079498
H           -1.70371278671877        1.01146410119711       -2.80688398840064
H           -1.52065244036411        1.14581570438325       -1.06813150544844
H           -2.64016915828324        3.10770852602432       -1.96029531448635
H           -1.11329263285324        3.54438268515076       -1.21518040022796
H           -1.43110957886521        4.81332645490624       -3.25094196945413
H           -0.03065993740532        3.76683022112296       -3.39445846869687
H           -1.23808226375010        3.75506125906405       -5.47587305978909
H           -1.29870440068837        2.15987691385980       -4.75070430355029
H           -3.44981908061680        2.68118928416625       -5.70972812664946
H           -3.59234787836225        2.53142968315562       -3.96945515237879
H           -4.94255008027651        4.38558979352162       -4.77773939942791
H           -3.69771383316851        4.94003881600323       -3.67624698126516
H           -3.94110550388089        6.48505579867856       -5.53632639507315
H           -2.33112261878149        5.79392971363225       -5.48295747655340
H           -3.02419659429100        5.89306561378509       -7.78594552695713
H           -2.87246049591206        4.22005320204519       -7.28406314605174
H           -4.83665215910469        4.36156995128399       -8.63344354938237
H           -5.35122358263931        4.08664307567927       -6.97277422289169
H           -6.81290953716281        5.73671705266190       -7.98600934344130
H           -5.84609096433365        6.52694896060354       -6.72432258857785
H           -4.22513784309127        8.33920240265571       -7.40674563358565
H           -3.63272948621747        9.52855567327805       -9.80364816571843
H           -6.08769018859866        6.20200988568871      -10.49240464575037
H           -3.76622730001821        8.26437971246139      -12.31444301337854
H           -5.33742893538881        7.46765606352917      -12.52887308750158
H           -5.25927239020977        9.20371130654851      -12.17135244690780

          :  Hamiltonian                  GFN2-xTB          :
         :: total energy             -61.898079055573 Eh    ::
         :: gradient norm              0.000633108794 Eh/a0 ::
         :: HOMO-LUMO gap              1.413901148419 eV    ::
         :: SCC energy               -62.827688371842 Eh    ::
         :: -> dispersion             -0.045625803050 Eh    ::
         :: repulsion energy           0.929609316270 Eh    ::

    * Orbital Energies and Occupations

         #    Occupation            Energy/Eh            Energy/eV
      -------------------------------------------------------------
         1        2.0000           -0.8965856             -24.3973
       ...           ...                  ...                  ...
        46        2.0000           -0.5258742             -14.3098
        47        2.0000           -0.5205729             -14.1655
        48        2.0000           -0.5146035             -14.0031
        49        2.0000           -0.5092901             -13.8585
        50        2.0000           -0.5021450             -13.6641
        51        2.0000           -0.4980186             -13.5518
        52        2.0000           -0.4925909             -13.4041
        53        2.0000           -0.4831284             -13.1466
        54        2.0000           -0.4805533             -13.0765
        55        2.0000           -0.4767526             -12.9731
        56        2.0000           -0.4651003             -12.6560
        57        2.0000           -0.4605207             -12.5314
        58        2.0000           -0.4588145             -12.4850 (HOMO)
        59                         -0.4068546             -11.0711 (LUMO)
        60                         -0.3706564             -10.0861
        61                         -0.1833072              -4.9880
        62                         -0.1282694              -3.4904
        63                         -0.0625943              -1.7033
        64                         -0.0507452              -1.3808
        65                         -0.0479652              -1.3052
        66                         -0.0304049              -0.8274
        67                         -0.0182032              -0.4953
        68                         -0.0096121              -0.2616
        69                         -0.0043924              -0.1195
       ...                                ...                  ...
       115                          0.4627966              12.5933
      -------------------------------------------------------------
                  HL-Gap            0.0519599 Eh            1.4139 eV

     #   Z          covCN         q      C6AA      α(0)
     1   6 C        3.751    -0.102    22.510     6.766
     2   6 C        3.799    -0.052    21.511     6.604
     3   6 C        3.800    -0.057    21.601     6.617
     4   6 C        3.800    -0.057    21.602     6.618
     5   6 C        3.800    -0.057    21.598     6.617
     6   6 C        3.800    -0.057    21.603     6.618
     7   6 C        3.800    -0.057    21.604     6.618
     8   6 C        3.800    -0.058    21.622     6.621
     9   6 C        3.800    -0.060    21.654     6.625
    10   6 C        3.800    -0.061    21.672     6.628
    11   6 C        3.800    -0.061    21.678     6.629
    12   6 C        3.800    -0.065    21.746     6.639
    13   6 C        3.801    -0.070    21.834     6.653
    14   6 C        3.742    -0.028    21.152     6.562
    15   7 N        2.868     0.072    19.979     6.639
    16   6 C        3.074    -0.003    28.033     8.681
    17   6 C        3.072    -0.010    28.201     8.707
    18   7 N        2.867     0.077    19.899     6.625
    19   6 C        3.101     0.044    26.883     8.497
    20   6 C        3.692    -0.086    22.337     6.763
    21   1 H        0.925     0.034     2.531     2.488
    22   1 H        0.925     0.033     2.544     2.494
    23   1 H        0.925     0.034     2.524     2.484
    24   1 H        0.924     0.030     2.588     2.516
    25   1 H        0.924     0.028     2.617     2.530
    26   1 H        0.924     0.027     2.630     2.536
    27   1 H        0.924     0.029     2.596     2.520
    28   1 H        0.924     0.026     2.647     2.544
    29   1 H        0.924     0.034     2.534     2.490
    30   1 H        0.924     0.025     2.654     2.548
    31   1 H        0.924     0.034     2.524     2.484
    32   1 H        0.924     0.025     2.652     2.547
    33   1 H        0.924     0.035     2.523     2.484
    34   1 H        0.924     0.024     2.679     2.560
    35   1 H        0.924     0.036     2.509     2.477
    36   1 H        0.924     0.022     2.701     2.570
    37   1 H        0.924     0.039     2.466     2.456
    38   1 H        0.924     0.024     2.680     2.560
    39   1 H        0.924     0.043     2.415     2.430
    40   1 H        0.924     0.024     2.672     2.556
    41   1 H        0.924     0.045     2.379     2.412
    42   1 H        0.924     0.018     2.760     2.598
    43   1 H        0.924     0.049     2.333     2.388
    44   1 H        0.924     0.021     2.719     2.579
    45   1 H        0.925     0.063     2.168     2.302
    46   1 H        0.924     0.046     2.373     2.409
    47   1 H        0.925     0.080     1.976     2.198
    48   1 H        0.924     0.081     1.970     2.195
    49   1 H        0.925     0.095     1.828     2.114
    50   1 H        0.926     0.111     1.690     2.033
    51   1 H        0.926     0.109     1.705     2.042
    52   1 H        0.926     0.112     1.680     2.027
    53   1 H        0.924     0.107     1.719     2.050
    54   1 H        0.925     0.099     1.791     2.093
    55   1 H        0.924     0.107     1.721     2.052

Wiberg/Mayer (AO) data.
largest (>0.10) Wiberg bond orders for each atom

     #   Z sym  total        # sym  WBO       # sym  WBO       # sym  WBO
 ---------------------------------------------------------------------------
     1   6 C    3.997 --     2 C    1.020    23 H    0.988    22 H    0.987
                            21 H    0.986
     2   6 C    3.998 --     1 C    1.020     3 C    1.008    25 H    0.978
                            24 H    0.976
     3   6 C    3.998 --     2 C    1.008     4 C    1.008    27 H    0.977
                            26 H    0.976
     4   6 C    3.997 --     5 C    1.008     3 C    1.008    28 H    0.975
                            29 H    0.975
     5   6 C    3.997 --     4 C    1.008     6 C    1.008    30 H    0.975
                            31 H    0.975
     6   6 C    3.997 --     7 C    1.008     5 C    1.008    32 H    0.975
                            33 H    0.975
     7   6 C    3.997 --     6 C    1.008     8 C    1.008    34 H    0.975
                            35 H    0.974
     8   6 C    3.997 --     7 C    1.008     9 C    1.008    36 H    0.975
                            37 H    0.974
     9   6 C    3.996 --     8 C    1.008    10 C    1.007    38 H    0.975
                            39 H    0.974
    10   6 C    3.996 --     9 C    1.007    11 C    1.007    40 H    0.975
                            41 H    0.974
    11   6 C    3.995 --    10 C    1.007    12 C    1.007    42 H    0.974
                            43 H    0.973
    12   6 C    3.993 --    13 C    1.008    11 C    1.007    44 H    0.975
                            45 H    0.968
    13   6 C    3.982 --    12 C    1.008    14 C    0.980    46 H    0.975
                            47 H    0.963
    14   6 C    3.933 --    13 C    0.980    15 N    0.966    48 H    0.964
                            49 H    0.961
    15   7 N    3.721 --    19 C    1.362    16 C    1.233    14 C    0.966
    16   6 C    3.950 --    17 C    1.587    15 N    1.233    50 H    0.959
    17   6 C    3.947 --    16 C    1.587    18 N    1.228    51 H    0.961
    18   7 N    3.721 --    19 C    1.361    17 C    1.228    20 C    0.991
    19   6 C    3.947 --    15 N    1.362    18 N    1.361    52 H    0.954
    20   6 C    3.934 --    18 N    0.991    54 H    0.976    53 H    0.963
                            55 H    0.961
    21   1 H    0.999 --     1 C    0.986
    22   1 H    0.999 --     1 C    0.987
    23   1 H    0.999 --     1 C    0.988
    24   1 H    0.999 --     2 C    0.976
    25   1 H    0.999 --     2 C    0.978
    26   1 H    0.999 --     3 C    0.976
    27   1 H    0.999 --     3 C    0.977
    28   1 H    0.999 --     4 C    0.975
    29   1 H    0.999 --     4 C    0.975
    30   1 H    0.999 --     5 C    0.975
    31   1 H    0.999 --     5 C    0.975
    32   1 H    0.999 --     6 C    0.975
    33   1 H    0.999 --     6 C    0.975
    34   1 H    0.999 --     7 C    0.975
    35   1 H    0.999 --     7 C    0.974
    36   1 H    0.999 --     8 C    0.975
    37   1 H    0.998 --     8 C    0.974
    38   1 H    0.999 --     9 C    0.975
    39   1 H    0.998 --     9 C    0.974
    40   1 H    0.999 --    10 C    0.975
    41   1 H    0.998 --    10 C    0.974
    42   1 H    1.000 --    11 C    0.974
    43   1 H    0.998 --    11 C    0.973
    44   1 H    1.000 --    12 C    0.975
    45   1 H    0.996 --    12 C    0.968
    46   1 H    0.998 --    13 C    0.975
    47   1 H    0.993 --    13 C    0.963
    48   1 H    0.993 --    14 C    0.964
    49   1 H    0.990 --    14 C    0.961
    50   1 H    0.987 --    16 C    0.959
    51   1 H    0.988 --    17 C    0.961
    52   1 H    0.987 --    19 C    0.954
    53   1 H    0.988 --    20 C    0.963
    54   1 H    0.990 --    20 C    0.976
    55   1 H    0.988 --    20 C    0.961
 ---------------------------------------------------------------------------

molecular dipole:
                 x           y           z       tot (Debye)
 q only:       -9.215      13.490     -17.673
   full:       -9.321      13.538     -17.794      61.571

           -------------------------------------------------
          | TOTAL ENERGY              -61.898079055573 Eh   |
          | GRADIENT NORM               0.000633108794 Eh/α |
          | HOMO-LUMO GAP               1.413901148419 eV   |
           -------------------------------------------------

 * finished run on 2024/12/20 at 07:11:22.714
