   * xtb version 6.7.1 (edcfbbe) compiled by 'conda@3ef47c1a292c' on 2024-11-25

   ID    Z sym.   atoms
    1    6 C      1-18, 20, 21, 23-33
    2    7 N      19, 22
    3    1 H      34-92

          program call               : xtb C1109.xyz --opt --namespace C1109 --charge +1
          :  Hamiltonian                  GFN2-xTB          :
 * total energy  :  -101.9774081 Eh     change       -0.1122501E-08 Eh
 * total energy  :  -101.9852894 Eh     change       -0.7881299E-02 Eh
 * total energy  :  -101.9868261 Eh     change       -0.1536711E-02 Eh
 * total energy  :  -101.9871447 Eh     change       -0.3185848E-03 Eh
 * total energy  :  -101.9873705 Eh     change       -0.2258048E-03 Eh
 * total energy  :  -101.9874830 Eh     change       -0.1125531E-03 Eh
 * total energy  :  -101.9876139 Eh     change       -0.1308343E-03 Eh
 * total energy  :  -101.9877597 Eh     change       -0.1458459E-03 Eh
 * total energy  :  -101.9879099 Eh     change       -0.1502222E-03 Eh
 * total energy  :  -101.9880509 Eh     change       -0.1409712E-03 Eh
 * total energy  :  -101.9909738 Eh     change       -0.1895790E-04 Eh
 * total energy  :  -101.9909918 Eh     change       -0.1803247E-04 Eh
 * total energy  :  -101.9910101 Eh     change       -0.1822068E-04 Eh
 * total energy  :  -101.9910259 Eh     change       -0.1585766E-04 Eh
 * total energy  :  -101.9910402 Eh     change       -0.1433123E-04 Eh
 * total energy  :  -101.9910546 Eh     change       -0.1438050E-04 Eh
 * total energy  :  -101.9910661 Eh     change       -0.1146812E-04 Eh
 * total energy  :  -101.9910730 Eh     change       -0.6881538E-05 Eh
 * total energy  :  -101.9910775 Eh     change       -0.4497198E-05 Eh
   *** GEOMETRY OPTIMIZATION CONVERGED AFTER 66 ITERATIONS ***

 final structure:
================
92
 xtb: 6.7.1 (edcfbbe)
C            1.45531659505847        0.02802529820989       -0.63030990955692
C            1.49350350881475       -1.42155048085834       -0.16138662545299
C            1.47722311818158       -1.56306742911340        1.36138489100349
C            0.22244867205252       -1.01716888234448        2.04617456263717
C           -1.09045414315899       -1.66502851614709        1.60194757700614
C           -1.16789806774566       -3.17829490804739        1.81365706159226
C           -0.96997681821260       -3.63775452875488        3.25930331988295
C           -1.96902913898620       -3.05726008852997        4.26186282297977
C           -3.43512817245306       -3.39040021591257        3.97808410027389
C           -3.76361049172039       -4.88463948044700        3.94558548321564
C           -3.39911850785592       -5.65250159878312        5.21764197295344
C           -4.06070155624778       -5.13146845645027        6.49447961573782
C           -5.58802033484347       -5.22005088310115        6.50965409934511
C           -6.15447132469686       -6.63813010874907        6.40303808923322
C           -5.64179887579701       -7.61906481410637        7.46072862872027
C           -5.84681555186501       -7.16410739201712        8.90719237444616
C           -7.31002828346289       -7.02757414172256        9.33217160549997
C           -8.04189257749903       -8.37021883188774        9.44579269713289
N           -7.37723074683019       -9.23346614881986       10.39638542598739
C           -6.67698093038288      -10.36358250454138       10.10895984050345
C           -6.11843878840299      -10.80305590958317       11.27130602506333
N           -6.48694922310721       -9.93404735414492       12.25165635042007
C           -7.24361722729405       -8.99181358112684       11.69836001941563
C           -5.99114680637559       -9.93836914370655       13.60777025475633
C           -4.58557066078446       -9.32479037668099       13.65449396371407
C           -4.53251736615105       -7.84683980028629       13.25026281659965
C           -5.30064336560653       -6.91854665343699       14.20677074222330
C           -5.07398017406817       -7.12613557431730       15.71324341485173
C           -3.65128389189861       -6.95156041773021       16.16126338243874
C           -3.01651347380096       -5.79609197602046       16.32894337726598
C           -1.58847913686555       -5.75014007401635       16.78037248340154
C           -3.62382475503943       -4.45138784904933       16.06836517499421
C           -3.07326306968121       -7.41994659447181       13.09610743464050
H            0.51348340383600        0.50168363554166       -0.36522165961513
H            1.56482989460626        0.07747329758566       -1.71135650673694
H            2.26597510509713        0.59551566642249       -0.17786694868232
H            0.65271661707607       -1.96641937079641       -0.59413462962643
H            2.40856344840713       -1.88818507196892       -0.53491249742684
H            1.59726727936060       -2.61848388572135        1.61531783981454
H            2.34226847229490       -1.03268509050597        1.76862895724489
H            0.34028027010614       -1.14381276119388        3.12471063888515
H            0.15259279517032        0.05623999277951        1.85951028329823
H           -1.90882564998767       -1.18288028783224        2.14155872018541
H           -1.24907238715783       -1.46218228617354        0.54103498826001
H           -2.13988826625669       -3.52448512487429        1.45471145961765
H           -0.41029195576527       -3.66517807777671        1.19624477134603
H           -1.02627578083112       -4.72850161692213        3.28266606773446
H            0.03559336770610       -3.36532440881387        3.58604111650269
H           -1.70247961145759       -3.41693170735234        5.25856183516447
H           -1.86585650254988       -1.97071147016707        4.28022720764946
H           -4.05091248721505       -2.90052797582863        4.73626232277990
H           -3.71938991519458       -2.96114296050178        3.01574844235262
H           -4.83205438147349       -4.99642441723612        3.74673331026876
H           -3.23610679300862       -5.34778089722627        3.10980016418709
H           -3.66256557067091       -6.70291448489205        5.07263728323082
H           -2.31739282625522       -5.61355916317164        5.35767494584465
H           -3.65333856331325       -5.68521352813518        7.34401666465188
H           -3.78210188936020       -4.08635354590176        6.63693729789996
H           -5.95298539960676       -4.74945584491360        7.42609799959879
H           -5.98590684120451       -4.63729075604234        5.67809799330826
H           -7.24465210840128       -6.57758081553054        6.45223759638123
H           -5.90686617492566       -7.04744926278924        5.42275689849042
H           -6.12638979656402       -8.58540671271644        7.29878648322742
H           -4.57301415050745       -7.77321226608439        7.30816867724457
H           -5.33262026715503       -7.86460185771050        9.57275287061823
H           -5.36689603204050       -6.19517293746113        9.03931692324963
H           -7.35606944870082       -6.51415140613508       10.29491138109232
H           -7.84498782349962       -6.41451451022247        8.60872386548462
H           -9.07162956888101       -8.20528342405264        9.77245710820472
H           -8.05840856490749       -8.87844485081340        8.48169226930793
H           -6.62102201473623      -10.77355522492722        9.12151319037832
H           -5.50125504272831      -11.65736305818437       11.45997486832819
H           -7.69364735237124       -8.17309621543378       12.22454104408515
H           -6.67989606222568       -9.36993902222348       14.23329891951607
H           -5.95789982755987      -10.97068460334494       13.96168671799674
H           -4.19806429076874       -9.43635186738916       14.66524703833982
H           -3.93281996082426       -9.89517660802053       12.98982949744945
H           -5.00128505900160       -7.74012002250044       12.26016539260246
H           -5.02677129895420       -5.89339349900327       13.95661212750207
H           -6.37519767948414       -7.01572972256068       14.01986271106234
H           -5.70805019874182       -6.40112636654752       16.23032750582401
H           -5.42327932112643       -8.11717948416785       16.00894567475726
H           -3.11751840521267       -7.86720483866395       16.38306824975647
H           -0.98235549649244       -5.20877273945937       16.05455045691881
H           -1.51232162546256       -5.22166532110490       17.72968972176709
H           -1.17611301474003       -6.74781479249318       16.90691041454523
H           -3.27386293297905       -4.06376360835371       15.11106206408017
H           -4.70914984815825       -4.48616020434714       16.04839828813514
H           -3.31249628592505       -3.74803804073218       16.83788108346599
H           -2.57198247017592       -8.03409411478928       12.35086245847823
H           -3.01642875861685       -6.38374406128403       12.77496239256071
H           -2.54358338353059       -7.51227698301621       14.03809496819476

          :  Hamiltonian                  GFN2-xTB          :
         :: total energy            -101.991077471806 Eh    ::
         :: gradient norm              0.000345785738 Eh/a0 ::
         :: HOMO-LUMO gap              1.316666526409 eV    ::
         :: SCC energy              -103.541770696279 Eh    ::
         :: -> dispersion             -0.083598211667 Eh    ::
         :: repulsion energy           1.550693224474 Eh    ::

    * Orbital Energies and Occupations

         #    Occupation            Energy/Eh            Energy/eV
      -------------------------------------------------------------
         1        2.0000           -0.8861937             -24.1146
       ...           ...                  ...                  ...
        84        2.0000           -0.4942211             -13.4484
        85        2.0000           -0.4913948             -13.3715
        86        2.0000           -0.4845320             -13.1848
        87        2.0000           -0.4797955             -13.0559
        88        2.0000           -0.4772598             -12.9869
        89        2.0000           -0.4727670             -12.8646
        90        2.0000           -0.4647648             -12.6469
        91        2.0000           -0.4635790             -12.6146
        92        2.0000           -0.4610098             -12.5447
        93        2.0000           -0.4534314             -12.3385
        94        2.0000           -0.4513280             -12.2813
        95        2.0000           -0.4472312             -12.1698
        96        2.0000           -0.4461676             -12.1408 (HOMO)
        97                         -0.3977810             -10.8242 (LUMO)
        98                         -0.3615423              -9.8381
        99                         -0.2662652              -7.2454
       100                         -0.1732716              -4.7150
       101                         -0.1216550              -3.3104
       102                         -0.0655481              -1.7837
       103                         -0.0581562              -1.5825
       104                         -0.0507097              -1.3799
       105                         -0.0430757              -1.1721
       106                         -0.0276895              -0.7535
       107                         -0.0263057              -0.7158
       ...                                ...                  ...
       191                          0.5747499              15.6397
      -------------------------------------------------------------
                  HL-Gap            0.0483866 Eh            1.3167 eV

     #   Z          covCN         q      C6AA      α(0)
     1   6 C        3.751    -0.101    22.499     6.764
     2   6 C        3.799    -0.052    21.506     6.603
     3   6 C        3.800    -0.057    21.594     6.616
     4   6 C        3.800    -0.057    21.591     6.616
     5   6 C        3.800    -0.056    21.586     6.615
     6   6 C        3.800    -0.056    21.587     6.615
     7   6 C        3.800    -0.056    21.583     6.615
     8   6 C        3.800    -0.056    21.588     6.615
     9   6 C        3.800    -0.057    21.598     6.617
    10   6 C        3.800    -0.057    21.602     6.617
    11   6 C        3.800    -0.057    21.604     6.618
    12   6 C        3.800    -0.058    21.623     6.621
    13   6 C        3.800    -0.060    21.655     6.626
    14   6 C        3.800    -0.061    21.668     6.628
    15   6 C        3.800    -0.061    21.675     6.629
    16   6 C        3.800    -0.062    21.695     6.632
    17   6 C        3.802    -0.070    21.839     6.653
    18   6 C        3.742    -0.026    21.113     6.555
    19   7 N        2.868     0.067    20.067     6.653
    20   6 C        3.076    -0.005    28.065     8.686
    21   6 C        3.076    -0.007    28.118     8.694
    22   7 N        2.869     0.068    20.057     6.652
    23   6 C        3.107     0.050    26.737     8.472
    24   6 C        3.742    -0.026    21.106     6.554
    25   6 C        3.806    -0.075    21.926     6.666
    26   6 C        3.848    -0.013    20.768     6.482
    27   6 C        3.801    -0.064    21.728     6.637
    28   6 C        3.802    -0.057    21.602     6.617
    29   6 C        2.895    -0.065    29.627     8.924
    30   6 C        2.937     0.014    27.699     8.632
    31   6 C        3.761    -0.114    22.724     6.796
    32   6 C        3.758    -0.111    22.671     6.788
    33   6 C        3.756    -0.116    22.781     6.805
    34   1 H        0.925     0.034     2.527     2.486
    35   1 H        0.925     0.031     2.565     2.505
    36   1 H        0.925     0.033     2.540     2.492
    37   1 H        0.924     0.031     2.579     2.511
    38   1 H        0.924     0.026     2.639     2.540
    39   1 H        0.924     0.028     2.620     2.531
    40   1 H        0.924     0.028     2.620     2.531
    41   1 H        0.924     0.027     2.632     2.537
    42   1 H        0.924     0.031     2.568     2.506
    43   1 H        0.924     0.027     2.636     2.539
    44   1 H        0.924     0.032     2.562     2.503
    45   1 H        0.924     0.027     2.636     2.539
    46   1 H        0.924     0.031     2.570     2.507
    47   1 H        0.924     0.025     2.652     2.547
    48   1 H        0.924     0.031     2.573     2.508
    49   1 H        0.924     0.024     2.671     2.556
    50   1 H        0.924     0.033     2.549     2.497
    51   1 H        0.924     0.025     2.661     2.551
    52   1 H        0.924     0.034     2.526     2.485
    53   1 H        0.924     0.026     2.649     2.545
    54   1 H        0.924     0.034     2.525     2.485
    55   1 H        0.924     0.024     2.670     2.555
    56   1 H        0.924     0.035     2.521     2.483
    57   1 H        0.924     0.022     2.708     2.574
    58   1 H        0.924     0.038     2.471     2.458
    59   1 H        0.924     0.023     2.681     2.561
    60   1 H        0.924     0.043     2.414     2.430
    61   1 H        0.924     0.025     2.659     2.550
    62   1 H        0.924     0.044     2.393     2.419
    63   1 H        0.924     0.020     2.733     2.585
    64   1 H        0.924     0.047     2.354     2.399
    65   1 H        0.924     0.017     2.786     2.610
    66   1 H        0.925     0.060     2.194     2.316
    67   1 H        0.924     0.045     2.386     2.416
    68   1 H        0.925     0.078     1.997     2.210
    69   1 H        0.924     0.080     1.975     2.198
    70   1 H        0.925     0.091     1.866     2.136
    71   1 H        0.926     0.104     1.751     2.069
    72   1 H        0.926     0.104     1.746     2.066
    73   1 H        0.926     0.108     1.710     2.045
    74   1 H        0.924     0.086     1.918     2.166
    75   1 H        0.924     0.085     1.928     2.172
    76   1 H        0.925     0.083     1.948     2.183
    77   1 H        0.924     0.052     2.296     2.370
    78   1 H        0.923     0.010     2.892     2.660
    79   1 H        0.925     0.052     2.292     2.368
    80   1 H        0.924     0.010     2.886     2.657
    81   1 H        0.924     0.042     2.426     2.436
    82   1 H        0.924     0.025     2.657     2.549
    83   1 H        0.925     0.019     2.745     2.591
    84   1 H        0.925     0.050     2.325     2.384
    85   1 H        0.925     0.053     2.285     2.364
    86   1 H        0.925     0.039     2.468     2.457
    87   1 H        0.924     0.045     2.384     2.415
    88   1 H        0.925     0.041     2.441     2.443
    89   1 H        0.925     0.051     2.312     2.378
    90   1 H        0.925     0.037     2.496     2.471
    91   1 H        0.925     0.047     2.354     2.399
    92   1 H        0.925     0.061     2.186     2.312

Wiberg/Mayer (AO) data.
largest (>0.10) Wiberg bond orders for each atom

     #   Z sym  total        # sym  WBO       # sym  WBO       # sym  WBO
 ---------------------------------------------------------------------------
     1   6 C    3.997 --     2 C    1.020    36 H    0.988    35 H    0.987
                            34 H    0.986
     2   6 C    3.998 --     1 C    1.020     3 C    1.008    38 H    0.978
                            37 H    0.976
     3   6 C    3.998 --     2 C    1.008     4 C    1.008    40 H    0.977
                            39 H    0.976
     4   6 C    3.998 --     5 C    1.008     3 C    1.008    42 H    0.975
                            41 H    0.975
     5   6 C    3.998 --     4 C    1.008     6 C    1.008    43 H    0.975
                            44 H    0.975
     6   6 C    3.998 --     7 C    1.008     5 C    1.008    45 H    0.975
                            46 H    0.975
     7   6 C    3.998 --     6 C    1.008     8 C    1.008    47 H    0.975
                            48 H    0.975
     8   6 C    3.998 --     7 C    1.008     9 C    1.008    49 H    0.975
                            50 H    0.974
     9   6 C    3.997 --     8 C    1.008    10 C    1.008    51 H    0.975
                            52 H    0.974
    10   6 C    3.997 --    11 C    1.008     9 C    1.008    53 H    0.975
                            54 H    0.975
    11   6 C    3.997 --    12 C    1.008    10 C    1.008    55 H    0.975
                            56 H    0.974
    12   6 C    3.997 --    13 C    1.008    11 C    1.008    57 H    0.975
                            58 H    0.973
    13   6 C    3.996 --    12 C    1.008    14 C    1.007    59 H    0.975
                            60 H    0.973
    14   6 C    3.996 --    13 C    1.007    15 C    1.007    61 H    0.975
                            62 H    0.974
    15   6 C    3.995 --    14 C    1.007    16 C    1.007    63 H    0.975
                            64 H    0.973
    16   6 C    3.993 --    17 C    1.007    15 C    1.007    65 H    0.976
                            66 H    0.969
    17   6 C    3.983 --    16 C    1.007    18 C    0.985    67 H    0.975
                            68 H    0.964
    18   6 C    3.936 --    17 C    0.985    19 N    0.966    70 H    0.965
                            69 H    0.961
    19   7 N    3.715 --    23 C    1.357    20 C    1.232    18 C    0.966
    20   6 C    3.951 --    21 C    1.586    19 N    1.232    71 H    0.961
    21   6 C    3.950 --    20 C    1.586    22 N    1.230    72 H    0.962
    22   7 N    3.718 --    23 C    1.362    21 C    1.230    24 C    0.968
    23   6 C    3.948 --    22 N    1.362    19 N    1.357    73 H    0.953
    24   6 C    3.935 --    25 C    0.979    22 N    0.968    75 H    0.964
                            74 H    0.964
    25   6 C    3.981 --    26 C    0.997    24 C    0.979    77 H    0.973
                            76 H    0.961
    26   6 C    3.994 --    33 C    1.007    25 C    0.997    27 C    0.994
                            78 H    0.964
    27   6 C    3.994 --    26 C    0.994    28 C    0.991    80 H    0.975
                            79 H    0.973
    28   6 C    3.996 --    29 C    1.019    27 C    0.991    82 H    0.976
                            81 H    0.964
    29   6 C    3.983 --    30 C    1.874    28 C    1.019    83 H    0.965
    30   6 C    3.988 --    29 C    1.874    32 C    1.027    31 C    1.027
    31   6 C    3.996 --    30 C    1.027    86 H    0.985    84 H    0.971
                            85 H    0.969
    32   6 C    3.996 --    30 C    1.027    88 H    0.979    89 H    0.977
                            87 H    0.967
    33   6 C    3.991 --    26 C    1.007    90 H    0.985    91 H    0.985
                            92 H    0.978
    34   1 H    0.999 --     1 C    0.986
    35   1 H    0.999 --     1 C    0.987
    36   1 H    0.999 --     1 C    0.988
    37   1 H    0.999 --     2 C    0.976
    38   1 H    0.999 --     2 C    0.978
    39   1 H    0.999 --     3 C    0.976
    40   1 H    0.999 --     3 C    0.977
    41   1 H    0.999 --     4 C    0.975
    42   1 H    0.999 --     4 C    0.975
    43   1 H    0.999 --     5 C    0.975
    44   1 H    0.999 --     5 C    0.975
    45   1 H    0.999 --     6 C    0.975
    46   1 H    0.999 --     6 C    0.975
    47   1 H    0.999 --     7 C    0.975
    48   1 H    0.999 --     7 C    0.975
    49   1 H    0.999 --     8 C    0.975
    50   1 H    0.999 --     8 C    0.974
    51   1 H    0.999 --     9 C    0.975
    52   1 H    0.999 --     9 C    0.974
    53   1 H    0.999 --    10 C    0.975
    54   1 H    0.999 --    10 C    0.975
    55   1 H    0.999 --    11 C    0.975
    56   1 H    0.999 --    11 C    0.974
    57   1 H    1.000 --    12 C    0.975
    58   1 H    0.999 --    12 C    0.973
    59   1 H    0.999 --    13 C    0.975
    60   1 H    0.998 --    13 C    0.973
    61   1 H    0.999 --    14 C    0.975
    62   1 H    0.998 --    14 C    0.974
    63   1 H    1.000 --    15 C    0.975
    64   1 H    0.998 --    15 C    0.973
    65   1 H    1.000 --    16 C    0.976
    66   1 H    0.996 --    16 C    0.969
    67   1 H    0.998 --    17 C    0.975
    68   1 H    0.993 --    17 C    0.964
    69   1 H    0.993 --    18 C    0.961
    70   1 H    0.991 --    18 C    0.965
    71   1 H    0.989 --    20 C    0.961
    72   1 H    0.989 --    21 C    0.962
    73   1 H    0.988 --    23 C    0.953
    74   1 H    0.992 --    24 C    0.964
    75   1 H    0.992 --    24 C    0.964
    76   1 H    0.992 --    25 C    0.961
    77   1 H    0.997 --    25 C    0.973
    78   1 H    1.000 --    26 C    0.964
    79   1 H    0.997 --    27 C    0.973
    80   1 H    1.000 --    27 C    0.975
    81   1 H    0.998 --    28 C    0.964
    82   1 H    0.999 --    28 C    0.976
    83   1 H    1.000 --    29 C    0.965
    84   1 H    0.997 --    31 C    0.971
    85   1 H    0.996 --    31 C    0.969
    86   1 H    0.999 --    31 C    0.985
    87   1 H    0.998 --    32 C    0.967
    88   1 H    0.998 --    32 C    0.979
    89   1 H    0.997 --    32 C    0.977
    90   1 H    0.999 --    33 C    0.985
    91   1 H    0.997 --    33 C    0.985
    92   1 H    0.996 --    33 C    0.978
 ---------------------------------------------------------------------------

molecular dipole:
                 x           y           z       tot (Debye)
 q only:      -12.017     -16.718      21.325
   full:      -12.211     -16.809      21.380      75.775

           -------------------------------------------------
          | TOTAL ENERGY             -101.991077471806 Eh   |
          | GRADIENT NORM               0.000345785738 Eh/α |
          | HOMO-LUMO GAP               1.316666526409 eV   |
           -------------------------------------------------

 * finished run on 2024/12/20 at 07:11:31.442
