   * xtb version 6.7.1 (edcfbbe) compiled by 'conda@3ef47c1a292c' on 2024-11-25

   ID    Z sym.   atoms
    1    6 C      1, 2, 4, 6-15
    2    7 N      3, 5
    3    1 H      16-34

          program call               : xtb C1100.xyz --opt --namespace C1100 --charge +1
          :  Hamiltonian                  GFN2-xTB          :
 * total energy  :   -43.0355296 Eh     change       -0.3053628E-09 Eh
 * total energy  :   -43.0397440 Eh     change       -0.4214396E-02 Eh
 * total energy  :   -43.0402697 Eh     change       -0.5257179E-03 Eh
 * total energy  :   -43.0403210 Eh     change       -0.5125353E-04 Eh
 * total energy  :   -43.0403545 Eh     change       -0.3359799E-04 Eh
 * total energy  :   -43.0403654 Eh     change       -0.1086389E-04 Eh
 * total energy  :   -43.0403852 Eh     change       -0.1980461E-04 Eh
 * total energy  :   -43.0403924 Eh     change       -0.7231161E-05 Eh
 * total energy  :   -43.0403996 Eh     change       -0.7141135E-05 Eh
 * total energy  :   -43.0404025 Eh     change       -0.2869889E-05 Eh
   *** GEOMETRY OPTIMIZATION CONVERGED AFTER 10 ITERATIONS ***

 final structure:
================
34
 xtb: 6.7.1 (edcfbbe)
C            1.19762343852378       -0.42872585709038       -0.11450964895225
C            0.29959223130904       -1.19223267623326        0.85418161630999
N            0.83161162573575       -1.12082312970485        2.21213498782198
C            1.20922966267799       -2.17661545482800        2.92269494248534
N            1.64558718235846       -1.83306128628208        4.12804760668968
C            1.54998129713902       -0.46091349817246        4.22535240264553
C            1.02827307191368       -0.00057211365985        2.99749810425421
C            0.81300562473947        1.35825783503676        2.78557437613941
C            1.12958174760271        2.21945466619832        3.81425086945538
C            1.64662702346540        1.75950229437406        5.02847682290398
C            1.86506922889734        0.41811674710281        5.25592267682768
C            2.11653522550974       -2.75014123169877        5.16067682303061
C            0.96963778582462       -3.64801182908870        5.61615439847606
C            3.30749374448374       -3.55377378402076        4.64793860112103
C           -1.14612602587041       -0.70487345144274        0.82766727881680
H            1.16518623294170        0.64088615593858        0.06559536278685
H            0.86168883736079       -0.61204512215184       -1.13093036476456
H            2.22860399637878       -0.76455499526056       -0.03061793927764
H            0.31735094283069       -2.25397582403847        0.58422751818769
H            1.16572270925245       -3.18613343975788        2.55994869212343
H            0.41517652455329        1.73818688321177        1.86036272307153
H            0.97388777165278        3.27796484813784        3.68023239688183
H            1.87895460197256        2.47228213169378        5.80326532993887
H            2.26347863429972        0.07364337650488        6.19603508705811
H            2.43930648858326       -2.12614422325553        5.99775554860793
H            0.65300233964024       -4.31565991040147        4.81898392361913
H            1.29685290397560       -4.25423562250345        6.45538002010611
H            0.11719192977639       -3.05387811118545        5.93719965132784
H            4.08638900598621       -2.89453158070036        4.27195131131669
H            3.72286861393874       -4.13954961149141        5.46244263144131
H            3.01258018103758       -4.23854526744190        3.85726311757120
H           -1.55211084164830       -0.84490609733364       -0.16972204999200
H           -1.75647816300864       -1.27154049119862        1.52705050299786
H           -1.21729557383414        0.34839967074368        1.08007467897232

          :  Hamiltonian                  GFN2-xTB          :
         :: total energy             -43.040402460378 Eh    ::
         :: gradient norm              0.000511778301 Eh/a0 ::
         :: HOMO-LUMO gap              3.551906774181 eV    ::
         :: SCC energy               -43.745086806740 Eh    ::
         :: -> dispersion             -0.030730099648 Eh    ::
         :: repulsion energy           0.704684346362 Eh    ::

    * Orbital Energies and Occupations

         #    Occupation            Energy/Eh            Energy/eV
      -------------------------------------------------------------
         1        2.0000           -0.8751721             -23.8146
       ...           ...                  ...                  ...
        28        2.0000           -0.6054928             -16.4763
        29        2.0000           -0.5985825             -16.2883
        30        2.0000           -0.5962829             -16.2257
        31        2.0000           -0.5945076             -16.1774
        32        2.0000           -0.5919126             -16.1068
        33        2.0000           -0.5843865             -15.9020
        34        2.0000           -0.5831169             -15.8674
        35        2.0000           -0.5796667             -15.7735
        36        2.0000           -0.5787717             -15.7492
        37        2.0000           -0.5771482             -15.7050
        38        2.0000           -0.5650077             -15.3746
        39        2.0000           -0.5519842             -15.0203
        40        2.0000           -0.5421105             -14.7516 (HOMO)
        41                         -0.4115803             -11.1997 (LUMO)
        42                         -0.3621285              -9.8540
        43                         -0.3536183              -9.6224
        44                         -0.2366661              -6.4400
        45                         -0.1854119              -5.0453
        46                         -0.1416495              -3.8545
        47                         -0.0789690              -2.1489
        48                         -0.0537994              -1.4640
        49                         -0.0505859              -1.3765
        50                         -0.0411075              -1.1186
        51                         -0.0306647              -0.8344
       ...                                ...                  ...
        79                          0.5409148              14.7190
      -------------------------------------------------------------
                  HL-Gap            0.1305302 Eh            3.5519 eV

     #   Z          covCN         q      C6AA      α(0)
     1   6 C        3.754    -0.125    22.951     6.831
     2   6 C        3.789     0.037    19.969     6.364
     3   7 N        2.826     0.023    20.838     6.780
     4   6 C        3.084     0.070    26.343     8.414
     5   7 N        2.826     0.024    20.825     6.778
     6   6 C        3.126     0.039    26.933     8.498
     7   6 C        3.116     0.045    26.839     8.486
     8   6 C        2.909    -0.031    28.783     8.797
     9   6 C        2.924    -0.019    28.490     8.753
    10   6 C        2.925    -0.018    28.451     8.747
    11   6 C        2.909    -0.033    28.821     8.803
    12   6 C        3.788     0.033    20.024     6.373
    13   6 C        3.755    -0.126    22.964     6.833
    14   6 C        3.755    -0.126    22.976     6.835
    15   6 C        3.755    -0.125    22.951     6.831
    16   1 H        0.925     0.065     2.139     2.287
    17   1 H        0.925     0.078     2.001     2.212
    18   1 H        0.925     0.057     2.240     2.340
    19   1 H        0.924     0.065     2.143     2.290
    20   1 H        0.926     0.101     1.778     2.085
    21   1 H        0.926     0.071     2.074     2.252
    22   1 H        0.926     0.079     1.992     2.207
    23   1 H        0.926     0.079     1.987     2.204
    24   1 H        0.926     0.069     2.098     2.265
    25   1 H        0.924     0.076     2.017     2.221
    26   1 H        0.925     0.058     2.225     2.333
    27   1 H        0.925     0.080     1.982     2.201
    28   1 H        0.925     0.058     2.217     2.328
    29   1 H        0.925     0.059     2.215     2.327
    30   1 H        0.925     0.080     1.982     2.201
    31   1 H        0.925     0.058     2.223     2.332
    32   1 H        0.925     0.078     1.995     2.209
    33   1 H        0.925     0.056     2.244     2.342
    34   1 H        0.925     0.065     2.145     2.291

Wiberg/Mayer (AO) data.
largest (>0.10) Wiberg bond orders for each atom

     #   Z sym  total        # sym  WBO       # sym  WBO       # sym  WBO
 ---------------------------------------------------------------------------
     1   6 C    3.984 --     2 C    0.998    18 H    0.984    16 H    0.980
                            17 H    0.978
     2   6 C    3.942 --     1 C    0.998    15 C    0.997    19 H    0.961
                             3 N    0.943
     3   7 N    3.679 --     4 C    1.375     7 C    1.130     2 C    0.943
                             5 N    0.105
     4   6 C    3.957 --     3 N    1.375     5 N    1.373    20 H    0.952
     5   7 N    3.679 --     4 C    1.373     6 C    1.133    12 C    0.943
                             3 N    0.105
     6   6 C    3.954 --    11 C    1.336     7 C    1.272     5 N    1.133
     7   6 C    3.953 --     8 C    1.336     6 C    1.272     3 N    1.130
     8   6 C    3.986 --     9 C    1.499     7 C    1.336    21 H    0.959
                            11 C    0.119
     9   6 C    3.986 --     8 C    1.499    10 C    1.374    22 H    0.966
    10   6 C    3.984 --    11 C    1.499     9 C    1.374    23 H    0.966
    11   6 C    3.987 --    10 C    1.499     6 C    1.336    24 H    0.961
                             8 C    0.119
    12   6 C    3.942 --    14 C    0.999    13 C    0.997    25 H    0.958
                             5 N    0.943
    13   6 C    3.984 --    12 C    0.997    28 H    0.984    26 H    0.983
                            27 H    0.978
    14   6 C    3.984 --    12 C    0.999    29 H    0.984    31 H    0.983
                            30 H    0.978
    15   6 C    3.984 --     2 C    0.997    33 H    0.984    34 H    0.980
                            32 H    0.977
    16   1 H    0.996 --     1 C    0.980
    17   1 H    0.993 --     1 C    0.978
    18   1 H    0.997 --     1 C    0.984
    19   1 H    0.995 --     2 C    0.961
    20   1 H    0.989 --     4 C    0.952
    21   1 H    0.994 --     8 C    0.959
    22   1 H    0.993 --     9 C    0.966
    23   1 H    0.993 --    10 C    0.966
    24   1 H    0.995 --    11 C    0.961
    25   1 H    0.994 --    12 C    0.958
    26   1 H    0.997 --    13 C    0.983
    27   1 H    0.993 --    13 C    0.978
    28   1 H    0.997 --    13 C    0.984
    29   1 H    0.997 --    14 C    0.984
    30   1 H    0.993 --    14 C    0.978
    31   1 H    0.997 --    14 C    0.983
    32   1 H    0.993 --    15 C    0.977
    33   1 H    0.997 --    15 C    0.984
    34   1 H    0.996 --    15 C    0.980
 ---------------------------------------------------------------------------

molecular dipole:
                 x           y           z       tot (Debye)
 q only:        2.293      -2.237       6.095
   full:        2.305      -2.412       6.072      17.610

           -------------------------------------------------
          | TOTAL ENERGY              -43.040402460378 Eh   |
          | GRADIENT NORM               0.000511778301 Eh/α |
          | HOMO-LUMO GAP               3.551906774181 eV   |
           -------------------------------------------------

 * finished run on 2024/12/20 at 07:11:01.998
