   * xtb version 6.7.1 (edcfbbe) compiled by 'conda@3ef47c1a292c' on 2024-11-25

   ID    Z sym.   atoms
    1    8 O      1
    2    6 C      2, 3, 5-7
    3    7 N      4
    4    1 H      8-21

          program call               : xtb C1105.xyz --opt --namespace C1105 --charge +1
          :  Hamiltonian                  GFN2-xTB          :
 * total energy  :   -24.4115329 Eh     change       -0.1902478E-10 Eh
 * total energy  :   -24.4180231 Eh     change       -0.6490166E-02 Eh
 * total energy  :   -24.4195743 Eh     change       -0.1551277E-02 Eh
 * total energy  :   -24.4196761 Eh     change       -0.1017812E-03 Eh
 * total energy  :   -24.4198237 Eh     change       -0.1475653E-03 Eh
 * total energy  :   -24.4198943 Eh     change       -0.7060311E-04 Eh
 * total energy  :   -24.4200456 Eh     change       -0.1512667E-03 Eh
 * total energy  :   -24.4201369 Eh     change       -0.9134105E-04 Eh
 * total energy  :   -24.4202046 Eh     change       -0.6772158E-04 Eh
 * total energy  :   -24.4202606 Eh     change       -0.5599810E-04 Eh
 * total energy  :   -24.4208888 Eh     change       -0.5729046E-04 Eh
 * total energy  :   -24.4209309 Eh     change       -0.4211877E-04 Eh
 * total energy  :   -24.4209754 Eh     change       -0.4449483E-04 Eh
 * total energy  :   -24.4210029 Eh     change       -0.2755108E-04 Eh
 * total energy  :   -24.4210431 Eh     change       -0.4020219E-04 Eh
 * total energy  :   -24.4210754 Eh     change       -0.3224269E-04 Eh
 * total energy  :   -24.4210855 Eh     change       -0.1016635E-04 Eh
 * total energy  :   -24.4210965 Eh     change       -0.1096838E-04 Eh
 * total energy  :   -24.4210997 Eh     change       -0.3234413E-05 Eh
   *** GEOMETRY OPTIMIZATION CONVERGED AFTER 26 ITERATIONS ***

 final structure:
================
21
 xtb: 6.7.1 (edcfbbe)
O            1.17618375777137        0.21056329061526        0.41443352523583
C            0.54804449138598       -0.96631589536428        0.86743536745629
C            1.16290143816170       -2.19528382934990        0.18566154922497
N            2.64734635279130       -2.32626046510899        0.28729316424000
C            3.12228621421768       -2.00180625222360        1.64404435211932
C            3.01457036974165       -3.71891824316378       -0.03326908804563
C            3.30460855403876       -1.42641934684905       -0.68224866333903
H            0.62781187808606        0.97630482631041        0.61263712564282
H            0.62616387890317       -1.04679659055853        1.96044645371749
H           -0.51741378127697       -0.97262745481738        0.60773580386662
H            0.70405776145829       -3.07823624938994        0.63437880531821
H            0.91137832324412       -2.16964216074826       -0.87618734794220
H            2.57903124743466       -2.58583256765587        2.38495514845834
H            4.18266046215424       -2.23258648717513        1.72797420487329
H            2.98268559246134       -0.94107339372553        1.84105577597542
H            2.60796054836438       -4.00373117088846       -1.00224219547652
H            4.09804075787207       -3.81912731097850       -0.06913061528437
H            2.62765849431669       -4.39986458859868        0.72314838082496
H            3.06048262566769       -1.72816740072350       -1.69874742997979
H            2.95943927564426       -0.40661771065220       -0.52497213322401
H            4.38414175756150       -1.46722099895432       -0.55394218366158

          :  Hamiltonian                  GFN2-xTB          :
         :: total energy             -24.421099734632 Eh    ::
         :: gradient norm              0.000583555133 Eh/a0 ::
         :: HOMO-LUMO gap              9.143017272013 eV    ::
         :: SCC energy               -24.713365180403 Eh    ::
         :: -> dispersion             -0.012393363408 Eh    ::
         :: repulsion energy           0.292265445771 Eh    ::

    * Orbital Energies and Occupations

         #    Occupation            Energy/Eh            Energy/eV
      -------------------------------------------------------------
         1        2.0000           -0.8700682             -23.6758
       ...           ...                  ...                  ...
        10        2.0000           -0.7226574             -19.6645
        11        2.0000           -0.7187001             -19.5568
        12        2.0000           -0.6919683             -18.8294
        13        2.0000           -0.6728019             -18.3079
        14        2.0000           -0.6633521             -18.0507
        15        2.0000           -0.6619194             -18.0117
        16        2.0000           -0.6487911             -17.6545
        17        2.0000           -0.6448301             -17.5467
        18        2.0000           -0.6429442             -17.4954
        19        2.0000           -0.6386171             -17.3777
        20        2.0000           -0.6371357             -17.3373
        21        2.0000           -0.6106708             -16.6172
        22        2.0000           -0.5675851             -15.4448 (HOMO)
        23                         -0.2315854              -6.3018 (LUMO)
        24                         -0.1636967              -4.4544
        25                         -0.1523634              -4.1460
        26                         -0.1455225              -3.9599
        27                         -0.1094644              -2.9787
        28                         -0.0599531              -1.6314
        29                         -0.0508267              -1.3831
        30                         -0.0163610              -0.4452
        31                         -0.0074899              -0.2038
        32                          0.0135828               0.3696
        33                          0.0264160               0.7188
       ...                                ...                  ...
        42                          0.1145395               3.1168
      -------------------------------------------------------------
                  HL-Gap            0.3359997 Eh            9.1430 eV

     #   Z          covCN         q      C6AA      α(0)
     1   8 O        1.656    -0.439    21.615     6.276
     2   6 C        3.672     0.070    19.635     6.351
     3   6 C        3.761    -0.046    21.437     6.600
     4   7 N        3.622     0.153    18.652     6.414
     5   6 C        3.720    -0.101    22.557     6.783
     6   6 C        3.727    -0.102    22.546     6.779
     7   6 C        3.723    -0.108    22.688     6.802
     8   1 H        0.805     0.316     0.676     1.291
     9   1 H        0.923     0.053     2.286     2.365
    10   1 H        0.924     0.066     2.134     2.285
    11   1 H        0.924     0.091     1.872     2.139
    12   1 H        0.924     0.102     1.765     2.077
    13   1 H        0.925     0.096     1.820     2.109
    14   1 H        0.925     0.101     1.780     2.086
    15   1 H        0.925     0.117     1.642     2.004
    16   1 H        0.925     0.100     1.784     2.089
    17   1 H        0.925     0.104     1.745     2.066
    18   1 H        0.925     0.099     1.797     2.096
    19   1 H        0.925     0.097     1.814     2.106
    20   1 H        0.925     0.134     1.503     1.917
    21   1 H        0.925     0.098     1.808     2.102

Wiberg/Mayer (AO) data.
largest (>0.10) Wiberg bond orders for each atom

     #   Z sym  total        # sym  WBO       # sym  WBO       # sym  WBO
 ---------------------------------------------------------------------------
     1   8 O    1.960 --     2 C    1.006     8 H    0.884
     2   6 C    3.958 --     1 O    1.006     3 C    1.003     9 H    0.965
                            10 H    0.963
     3   6 C    3.940 --     2 C    1.003    11 H    0.967    12 H    0.965
                             4 N    0.936
     4   7 N    3.820 --     6 C    0.958     5 C    0.957     7 C    0.951
                             3 C    0.936
     5   6 C    3.923 --    13 H    0.976    14 H    0.974    15 H    0.970
                             4 N    0.957
     6   6 C    3.927 --    16 H    0.975    18 H    0.975    17 H    0.973
                             4 N    0.958
     7   6 C    3.913 --    19 H    0.975    21 H    0.975    20 H    0.959
                             4 N    0.951
     8   1 H    0.900 --     1 O    0.884
     9   1 H    0.997 --     2 C    0.965
    10   1 H    0.995 --     2 C    0.963
    11   1 H    0.992 --     3 C    0.967
    12   1 H    0.990 --     3 C    0.965
    13   1 H    0.991 --     5 C    0.976
    14   1 H    0.990 --     5 C    0.974
    15   1 H    0.986 --     5 C    0.970
    16   1 H    0.990 --     6 C    0.975
    17   1 H    0.989 --     6 C    0.973
    18   1 H    0.990 --     6 C    0.975
    19   1 H    0.991 --     7 C    0.975
    20   1 H    0.982 --     7 C    0.959
    21   1 H    0.990 --     7 C    0.975
 ---------------------------------------------------------------------------

molecular dipole:
                 x           y           z       tot (Debye)
 q only:        4.411      -4.110       0.799
   full:        4.194      -4.118       0.888      15.110

           -------------------------------------------------
          | TOTAL ENERGY              -24.421099734632 Eh   |
          | GRADIENT NORM               0.000583555133 Eh/α |
          | HOMO-LUMO GAP               9.143017272013 eV   |
           -------------------------------------------------

 * finished run on 2024/12/20 at 07:11:20.528
