   * xtb version 6.7.1 (edcfbbe) compiled by 'conda@3ef47c1a292c' on 2024-11-25

   ID    Z sym.   atoms
    1    6 C      1, 2, 5, 6, 8-15
    2    8 O      3
    3    7 N      4, 7
    4   17 Cl     16, 17
    5    1 H      18-30

          program call               : xtb C1102.xyz --opt --namespace C1102 --charge +1
          :  Hamiltonian                  GFN2-xTB          :
 * total energy  :   -50.9098199 Eh     change       -0.1132207E-08 Eh
 * total energy  :   -50.9165295 Eh     change       -0.6709630E-02 Eh
 * total energy  :   -50.9183151 Eh     change       -0.1785560E-02 Eh
 * total energy  :   -50.9186228 Eh     change       -0.3077459E-03 Eh
 * total energy  :   -50.9189320 Eh     change       -0.3091202E-03 Eh
 * total energy  :   -50.9191359 Eh     change       -0.2039744E-03 Eh
 * total energy  :   -50.9194232 Eh     change       -0.2872319E-03 Eh
 * total energy  :   -50.9197764 Eh     change       -0.3532376E-03 Eh
 * total energy  :   -50.9200614 Eh     change       -0.2850058E-03 Eh
 * total energy  :   -50.9202695 Eh     change       -0.2080452E-03 Eh
 * total energy  :   -50.9204740 Eh     change       -0.7842313E-04 Eh
 * total energy  :   -50.9205347 Eh     change       -0.6066610E-04 Eh
 * total energy  :   -50.9206190 Eh     change       -0.8428251E-04 Eh
 * total energy  :   -50.9207836 Eh     change       -0.1646155E-03 Eh
 * total energy  :   -50.9208539 Eh     change       -0.7036444E-04 Eh
 * total energy  :   -50.9208909 Eh     change       -0.3692674E-04 Eh
 * total energy  :   -50.9209036 Eh     change       -0.1273382E-04 Eh
 * total energy  :   -50.9209082 Eh     change       -0.4655282E-05 Eh
 * total energy  :   -50.9209118 Eh     change       -0.3597961E-05 Eh
   *** GEOMETRY OPTIMIZATION CONVERGED AFTER 20 ITERATIONS ***

 final structure:
================
30
 xtb: 6.7.1 (edcfbbe)
C            1.29940627071722        0.02414804489800       -0.59790764013628
C            0.63412306614136       -1.27054899652566       -0.16666832024307
O            1.02092027794657       -1.69235765483848        1.15599003345582
N            2.31776355158018       -2.05866071202872        1.28032634158061
C            3.31609807591118       -1.27497744321602        1.77045065555859
C            4.43639900383935       -2.04896367313861        1.78912466451703
N            4.10115440505856       -3.27680129744996        1.30577779444786
C            2.80767446308383       -3.26769289070432        1.00413848511790
C            4.98685874832772       -4.42464360987699        1.22947411541975
C            4.95535599047946       -5.19736487125250        2.52629124769443
C            5.89683436041711       -4.95331063834817        3.52018296089867
C            5.87847779673166       -5.64587445635181        4.71495190522484
C            4.89884286970525       -6.60719306034368        4.93449616620342
C            3.94512226608866       -6.86863230753900        3.95798000555044
C            3.97780317274118       -6.16159752812603        2.76919833945955
Cl           2.78033348957908       -6.51923039095138        1.57236387903712
Cl           4.86074146642922       -7.47974267157951        6.40950157203990
H            1.11081982109722        0.80794945970262        0.13056591564197
H            0.88017335668009        0.33446537375602       -1.54994912361573
H            2.37344778988644       -0.09736832055501       -0.72408301930525
H           -0.44341712214660       -1.14102313385210       -0.05940861612733
H            0.83090473924099       -2.07852266139317       -0.87993095114880
H            3.15398324043335       -0.25939711738254        2.06919494089406
H            5.43057976653951       -1.80500368837712        2.10438609528115
H            2.24533301986438       -4.10169166709653        0.62827824610813
H            4.65692082392896       -5.06286899268223        0.40765569912506
H            5.99794118460803       -4.06482801668950        1.03284025821540
H            6.66847862804462       -4.21783651366670        3.35059532830573
H            6.61967200772712       -5.45030493930795        5.47214501094024
H            3.18898346932083       -7.61848562508357        4.12765800985862

          :  Hamiltonian                  GFN2-xTB          :
         :: total energy             -50.920911847906 Eh    ::
         :: gradient norm              0.000790121436 Eh/a0 ::
         :: HOMO-LUMO gap              2.631159307077 eV    ::
         :: SCC energy               -51.558031411828 Eh    ::
         :: -> dispersion             -0.030591316546 Eh    ::
         :: repulsion energy           0.637119563923 Eh    ::

    * Orbital Energies and Occupations

         #    Occupation            Energy/Eh            Energy/eV
      -------------------------------------------------------------
         1        2.0000           -1.1799820             -32.1089
       ...           ...                  ...                  ...
        33        2.0000           -0.6127119             -16.6727
        34        2.0000           -0.5977124             -16.2646
        35        2.0000           -0.5911571             -16.0862
        36        2.0000           -0.5857269             -15.9384
        37        2.0000           -0.5856259             -15.9357
        38        2.0000           -0.5779896             -15.7279
        39        2.0000           -0.5762518             -15.6806
        40        2.0000           -0.5686149             -15.4728
        41        2.0000           -0.5629960             -15.3199
        42        2.0000           -0.5453576             -14.8399
        43        2.0000           -0.5282710             -14.3750
        44        2.0000           -0.5195833             -14.1386
        45        2.0000           -0.5098419             -13.8735 (HOMO)
        46                         -0.4131486             -11.2423 (LUMO)
        47                         -0.3781029             -10.2887
        48                         -0.3688929             -10.0381
        49                         -0.3648115              -9.9270
        50                         -0.2701967              -7.3524
        51                         -0.2517692              -6.8510
        52                         -0.2380229              -6.4769
        53                         -0.2285233              -6.2184
        54                         -0.1454614              -3.9582
        55                         -0.1129390              -3.0732
        56                         -0.1090077              -2.9663
       ...                                ...                  ...
        91                          0.4968210              13.5192
      -------------------------------------------------------------
                  HL-Gap            0.0966933 Eh            2.6312 eV

     #   Z          covCN         q      C6AA      α(0)
     1   6 C        3.750    -0.129    23.043     6.846
     2   6 C        3.682     0.059    19.790     6.370
     3   8 O        1.766    -0.219    17.628     5.669
     4   7 N        2.910     0.211    17.777     6.262
     5   6 C        3.042    -0.018    28.417     8.743
     6   6 C        3.080    -0.010    28.169     8.701
     7   7 N        2.874     0.078    19.886     6.623
     8   6 C        3.067     0.030    27.273     8.563
     9   6 C        3.747    -0.036    21.280     6.580
    10   6 C        2.997    -0.012    28.309     8.728
    11   6 C        2.926    -0.031    28.782     8.798
    12   6 C        2.952    -0.038    28.945     8.824
    13   6 C        2.888     0.110    25.569     8.290
    14   6 C        3.001    -0.046    29.123     8.852
    15   6 C        2.891     0.092    25.961     8.354
    16  17 Cl       0.967    -0.151   103.874    15.592
    17  17 Cl       0.971    -0.101   102.307    15.474
    18   1 H        0.925     0.073     2.055     2.242
    19   1 H        0.925     0.079     1.989     2.205
    20   1 H        0.925     0.049     2.338     2.391
    21   1 H        0.924     0.106     1.731     2.058
    22   1 H        0.924     0.055     2.264     2.353
    23   1 H        0.926     0.127     1.562     1.954
    24   1 H        0.926     0.116     1.649     2.008
    25   1 H        0.926     0.140     1.462     1.891
    26   1 H        0.924     0.109     1.705     2.042
    27   1 H        0.924     0.103     1.760     2.074
    28   1 H        0.926     0.071     2.078     2.254
    29   1 H        0.926     0.091     1.865     2.135
    30   1 H        0.926     0.096     1.825     2.112

Wiberg/Mayer (AO) data.
largest (>0.10) Wiberg bond orders for each atom

     #   Z sym  total        # sym  WBO       # sym  WBO       # sym  WBO
 ---------------------------------------------------------------------------
     1   6 C    3.987 --     2 C    1.021    20 H    0.984    18 H    0.982
                            19 H    0.975
     2   6 C    3.901 --     1 C    1.021    22 H    0.971    21 H    0.955
                             3 O    0.911
     3   8 O    2.073 --     4 N    1.010     2 C    0.911
     4   7 N    3.732 --     8 C    1.338     5 C    1.215     3 O    1.010
     5   6 C    3.944 --     6 C    1.585     4 N    1.215    23 H    0.957
     6   6 C    3.946 --     5 C    1.585     7 N    1.230    24 H    0.959
     7   7 N    3.720 --     8 C    1.368     6 C    1.230     9 C    0.956
     8   6 C    3.937 --     7 N    1.368     4 N    1.338    25 H    0.944
     9   6 C    3.934 --    10 C    0.986    27 H    0.960     7 N    0.956
                            26 H    0.955
    10   6 C    3.977 --    11 C    1.403    15 C    1.365     9 C    0.986
    11   6 C    3.988 --    12 C    1.452    10 C    1.403    28 H    0.963
                            14 C    0.101
    12   6 C    3.984 --    11 C    1.452    13 C    1.382    29 H    0.962
    13   6 C    3.933 --    14 C    1.386    12 C    1.382    17 Cl   1.031
    14   6 C    3.983 --    15 C    1.420    13 C    1.386    30 H    0.960
                            11 C    0.101
    15   6 C    3.924 --    14 C    1.420    10 C    1.365    16 Cl   0.982
    16  17 Cl   1.136 --    15 C    0.982
    17  17 Cl   1.191 --    13 C    1.031
    18   1 H    0.995 --     1 C    0.982
    19   1 H    0.993 --     1 C    0.975
    20   1 H    0.998 --     1 C    0.984
    21   1 H    0.988 --     2 C    0.955
    22   1 H    0.997 --     2 C    0.971
    23   1 H    0.984 --     5 C    0.957
    24   1 H    0.986 --     6 C    0.959
    25   1 H    0.980 --     8 C    0.944
    26   1 H    0.987 --     9 C    0.955
    27   1 H    0.988 --     9 C    0.960
    28   1 H    0.995 --    11 C    0.963
    29   1 H    0.991 --    12 C    0.962
    30   1 H    0.990 --    14 C    0.960
 ---------------------------------------------------------------------------

molecular dipole:
                 x           y           z       tot (Debye)
 q only:        7.010      -4.837       2.277
   full:        6.861      -5.441       2.467      23.123

           -------------------------------------------------
          | TOTAL ENERGY              -50.920911847906 Eh   |
          | GRADIENT NORM               0.000790121436 Eh/α |
          | HOMO-LUMO GAP               2.631159307077 eV   |
           -------------------------------------------------

 * finished run on 2024/12/20 at 07:11:18.671
