   * xtb version 6.7.1 (edcfbbe) compiled by 'conda@3ef47c1a292c' on 2024-11-25

   ID    Z sym.   atoms
    1    6 C      1-3, 5-8
    2   16 S      4
    3    1 H      9-25

          program call               : xtb C1108.xyz --opt --namespace C1108 --charge +1
          :  Hamiltonian                  GFN2-xTB          :
 * total energy  :   -26.4707745 Eh     change       -0.3541700E-10 Eh
 * total energy  :   -26.4736918 Eh     change       -0.2917270E-02 Eh
 * total energy  :   -26.4744341 Eh     change       -0.7423752E-03 Eh
 * total energy  :   -26.4746496 Eh     change       -0.2154483E-03 Eh
 * total energy  :   -26.4747310 Eh     change       -0.8146523E-04 Eh
 * total energy  :   -26.4747928 Eh     change       -0.6176140E-04 Eh
 * total energy  :   -26.4748663 Eh     change       -0.7346803E-04 Eh
 * total energy  :   -26.4749473 Eh     change       -0.8103303E-04 Eh
 * total energy  :   -26.4750055 Eh     change       -0.5821512E-04 Eh
 * total energy  :   -26.4750383 Eh     change       -0.3278787E-04 Eh
 * total energy  :   -26.4750670 Eh     change       -0.2865274E-04 Eh
 * total energy  :   -26.4750877 Eh     change       -0.2074071E-04 Eh
 * total energy  :   -26.4751107 Eh     change       -0.2296286E-04 Eh
 * total energy  :   -26.4751247 Eh     change       -0.1407373E-04 Eh
 * total energy  :   -26.4751341 Eh     change       -0.9345392E-05 Eh
 * total energy  :   -26.4751446 Eh     change       -0.1049409E-04 Eh
 * total energy  :   -26.4751536 Eh     change       -0.9027396E-05 Eh
 * total energy  :   -26.4751591 Eh     change       -0.5504584E-05 Eh
 * total energy  :   -26.4751616 Eh     change       -0.2528852E-05 Eh
   *** GEOMETRY OPTIMIZATION CONVERGED AFTER 19 ITERATIONS ***

 final structure:
================
25
 xtb: 6.7.1 (edcfbbe)
C            0.72312344298077        0.42664783579640       -0.00701425243403
C            0.75752714908415        0.52185788847669       -1.52588962269107
C            1.45740394552620       -0.66194538546515       -2.17812536001863
S            0.49954249235201       -2.20285167552153       -1.87641428332017
C            0.87297817141355       -3.16619423560295       -3.39378499750125
C            2.33574738491685       -3.42439337955350       -3.68001796176725
C            1.39231815044038       -3.15848772328923       -0.56843706971966
C            2.80542860310257       -2.73910746161817       -0.23218723653250
H            0.17267414619022       -0.45506638977458        0.31615117829399
H            0.22610833802269        1.29887097834121        0.40646431499893
H            1.72843566770754        0.39197908994837        0.40551607537983
H           -0.25980251792799        0.60216438607748       -1.91215735822546
H            1.29435223458312        1.42521674800089       -1.82145535109736
H            1.48158995631510       -0.53961033807716       -3.25992953079136
H            2.46688761834927       -0.78915748037074       -1.79627015110534
H            0.32329040822297       -4.09986707924378       -3.27186433740146
H            0.40438995692521       -2.59793154015720       -4.19775619826102
H            2.79022008096981       -4.06148425313863       -2.92654692070896
H            2.40807642453581       -3.94500874671585       -4.63277898681469
H            2.90507887967395       -2.50245721215526       -3.76649122844706
H            0.75151053705456       -3.05991780203224        0.30772308573310
H            1.35153495449497       -4.19226119490104       -0.90905122577332
H            2.83602219010495       -1.74787291708098        0.21146003228607
H            3.18739725540616       -3.43635227128825        0.51145729870926
H            3.47220452955434       -2.77765984065480       -1.08931991279093

          :  Hamiltonian                  GFN2-xTB          :
         :: total energy             -26.475161645060 Eh    ::
         :: gradient norm              0.000326497336 Eh/a0 ::
         :: HOMO-LUMO gap              5.045754953342 eV    ::
         :: SCC energy               -26.842701442835 Eh    ::
         :: -> dispersion             -0.017508513622 Eh    ::
         :: repulsion energy           0.367539797775 Eh    ::

    * Orbital Energies and Occupations

         #    Occupation            Energy/Eh            Energy/eV
      -------------------------------------------------------------
         1        2.0000           -0.9278718             -25.2487
       ...           ...                  ...                  ...
        13        2.0000           -0.6636645             -18.0592
        14        2.0000           -0.6568662             -17.8742
        15        2.0000           -0.6483120             -17.6415
        16        2.0000           -0.6398022             -17.4099
        17        2.0000           -0.6380508             -17.3622
        18        2.0000           -0.6201197             -16.8743
        19        2.0000           -0.6163083             -16.7706
        20        2.0000           -0.6088046             -16.5664
        21        2.0000           -0.6016674             -16.3722
        22        2.0000           -0.5989175             -16.2974
        23        2.0000           -0.5931300             -16.1399
        24        2.0000           -0.5821233             -15.8404
        25        2.0000           -0.5734353             -15.6040 (HOMO)
        26                         -0.3880073             -10.5582 (LUMO)
        27                         -0.3792870             -10.3209
        28                         -0.3075892              -8.3699
        29                         -0.1989391              -5.4134
        30                         -0.1787254              -4.8634
        31                         -0.1482250              -4.0334
        32                         -0.0635003              -1.7279
        33                         -0.0494346              -1.3452
        34                         -0.0425249              -1.1572
        35                         -0.0307870              -0.8378
        36                         -0.0250465              -0.6816
       ...                                ...                  ...
        54                          0.2354602               6.4072
      -------------------------------------------------------------
                  HL-Gap            0.1854281 Eh            5.0458 eV

     #   Z          covCN         q      C6AA      α(0)
     1   6 C        3.752    -0.119    22.846     6.816
     2   6 C        3.835    -0.069    21.798     6.642
     3   6 C        3.794    -0.062    21.704     6.634
     4  16 S        2.960     0.286   129.914    19.184
     5   6 C        3.792    -0.061    21.680     6.631
     6   6 C        3.764    -0.124    22.916     6.823
     7   6 C        3.791    -0.057    21.615     6.621
     8   6 C        3.760    -0.124    22.921     6.825
     9   1 H        0.925     0.043     2.412     2.429
    10   1 H        0.925     0.072     2.064     2.246
    11   1 H        0.925     0.052     2.301     2.372
    12   1 H        0.924     0.064     2.153     2.295
    13   1 H        0.924     0.081     1.974     2.197
    14   1 H        0.925     0.090     1.878     2.143
    15   1 H        0.925     0.097     1.810     2.104
    16   1 H        0.925     0.094     1.840     2.121
    17   1 H        0.925     0.094     1.841     2.122
    18   1 H        0.925     0.069     2.091     2.261
    19   1 H        0.925     0.090     1.878     2.143
    20   1 H        0.925     0.065     2.144     2.290
    21   1 H        0.925     0.096     1.826     2.113
    22   1 H        0.925     0.094     1.844     2.124
    23   1 H        0.925     0.073     2.051     2.240
    24   1 H        0.925     0.091     1.872     2.140
    25   1 H        0.925     0.067     2.124     2.279

Wiberg/Mayer (AO) data.
largest (>0.10) Wiberg bond orders for each atom

     #   Z sym  total        # sym  WBO       # sym  WBO       # sym  WBO
 ---------------------------------------------------------------------------
     1   6 C    3.991 --     2 C    1.021    11 H    0.984    10 H    0.981
                             9 H    0.980
     2   6 C    3.985 --     1 C    1.021     3 C    1.011    12 H    0.973
                            13 H    0.959
     3   6 C    3.943 --     2 C    1.011    14 H    0.959    15 H    0.956
                             4 S    0.945
     4  16 S    3.040 --     5 C    0.955     3 C    0.945     7 C    0.939
     5   6 C    3.952 --     6 C    1.029    16 H    0.960    17 H    0.959
                             4 S    0.955
     6   6 C    3.982 --     5 C    1.029    20 H    0.980    18 H    0.979
                            19 H    0.964
     7   6 C    3.948 --     8 C    1.030    21 H    0.962    22 H    0.958
                             4 S    0.939
     8   6 C    3.982 --     7 C    1.030    25 H    0.978    23 H    0.976
                            24 H    0.961
     9   1 H    0.998 --     1 C    0.980
    10   1 H    0.995 --     1 C    0.981
    11   1 H    0.997 --     1 C    0.984
    12   1 H    0.996 --     2 C    0.973
    13   1 H    0.993 --     2 C    0.959
    14   1 H    0.992 --     3 C    0.959
    15   1 H    0.991 --     3 C    0.956
    16   1 H    0.991 --     5 C    0.960
    17   1 H    0.991 --     5 C    0.959
    18   1 H    0.995 --     6 C    0.979
    19   1 H    0.992 --     6 C    0.964
    20   1 H    0.996 --     6 C    0.980
    21   1 H    0.991 --     7 C    0.962
    22   1 H    0.991 --     7 C    0.958
    23   1 H    0.995 --     8 C    0.976
    24   1 H    0.991 --     8 C    0.961
    25   1 H    0.996 --     8 C    0.978
 ---------------------------------------------------------------------------

molecular dipole:
                 x           y           z       tot (Debye)
 q only:        2.479      -4.075      -3.550
   full:        2.616      -4.179      -3.669      15.620

           -------------------------------------------------
          | TOTAL ENERGY              -26.475161645060 Eh   |
          | GRADIENT NORM               0.000326497336 Eh/α |
          | HOMO-LUMO GAP               5.045754953342 eV   |
           -------------------------------------------------

 * finished run on 2024/12/20 at 07:11:23.760
