   * xtb version 6.7.1 (edcfbbe) compiled by 'conda@3ef47c1a292c' on 2024-11-25

   ID    Z sym.   atoms
    1    6 C      1-8, 10-12, 14-16, 18-22, 24-26, 29, 30, 32-43, 46-48
    2    7 N      9, 17, 23, 31
    3   17 Cl     13, 44, 45, 51
    4    8 O      27, 28, 49, 50
    5    1 H      52-102

          program call               : xtb C1101.xyz --opt --namespace C1101 --charge +1
          :  Hamiltonian                  GFN2-xTB          :
 * total energy  :  -155.4296599 Eh     change       -0.6303253E-08 Eh
 * total energy  :  -155.4532154 Eh     change       -0.2355542E-01 Eh
 * total energy  :  -155.4627904 Eh     change       -0.9575097E-02 Eh
 * total energy  :  -155.4654825 Eh     change       -0.2692092E-02 Eh
 * total energy  :  -155.4677407 Eh     change       -0.2258187E-02 Eh
 * total energy  :  -155.4693475 Eh     change       -0.1606735E-02 Eh
 * total energy  :  -155.4708921 Eh     change       -0.1544627E-02 Eh
 * total energy  :  -155.4725373 Eh     change       -0.1645180E-02 Eh
 * total energy  :  -155.4742468 Eh     change       -0.1709479E-02 Eh
 * total energy  :  -155.4759450 Eh     change       -0.1698246E-02 Eh
 * total energy  :  -155.4954063 Eh     change       -0.1091887E-04 Eh
 * total energy  :  -155.4954156 Eh     change       -0.9250417E-05 Eh
 * total energy  :  -155.4954249 Eh     change       -0.9262643E-05 Eh
 * total energy  :  -155.4954332 Eh     change       -0.8318053E-05 Eh
 * total energy  :  -155.4954401 Eh     change       -0.6965252E-05 Eh
 * total energy  :  -155.4954465 Eh     change       -0.6411891E-05 Eh
 * total energy  :  -155.4954529 Eh     change       -0.6368529E-05 Eh
 * total energy  :  -155.4954583 Eh     change       -0.5394002E-05 Eh
 * total energy  :  -155.4954622 Eh     change       -0.3884874E-05 Eh
   *** GEOMETRY OPTIMIZATION CONVERGED AFTER 88 ITERATIONS ***

 final structure:
================
102
 xtb: 6.7.1 (edcfbbe)
C            2.56367693220437        0.80278783115582        2.07143036346887
C            1.74721311128358        1.65401963532811        3.03664929874801
C            1.62615511977237        3.11659796295256        2.60421302464431
C            0.88105568529620        3.33968977727085        1.28624091975905
C           -0.61203169563471        3.00695908882970        1.34254801357721
C           -1.44590782184303        4.05850199950826        2.08081707553186
C           -1.77921305098309        5.28303189030043        1.22572290146639
C           -2.86559572983443        5.00920665353725        0.17833336112126
N           -4.16050704441791        4.77953474904612        0.77534882697783
C           -4.69190217460786        3.53251334052095        1.00617298786767
C           -4.21354869667448        2.26039530820980        0.73404431825010
C           -5.00935423459791        1.18499915402044        1.09350555785141
Cl          -4.44765705938400       -0.40798718903660        0.78279598215003
C           -6.26095605326130        1.37767783333174        1.70127878743878
C           -6.73995697392382        2.64927632939292        1.97468474808624
C           -5.93919377989585        3.72411296762478        1.62379655729784
N           -6.11469747066870        5.08460754934311        1.76962980916865
C           -5.03080618029726        5.72722060217308        1.24392732732023
C           -4.75195988822163        7.09251478311645        1.12677093150976
C           -5.44614038966472        8.22059094354676        1.52940928991980
C           -4.91904978853569        9.47669903561258        1.24910658535201
C           -5.36089338729695       10.76724359248576        1.51956252412278
N           -6.54280649327385       11.20518568219028        2.05939686900786
C           -7.65274909906831       10.42814278277566        2.53640239117247
C           -7.49513554596788       10.08523582033974        4.02484836475714
C           -8.49006494807120        9.02115953652184        4.43446147450813
O           -8.73394914280171        8.04665647149658        3.76952650089233
O           -9.04652048061546        9.27761650740375        5.60397631530958
C           -6.51280694306815       12.58102372110952        2.15037011669175
C           -5.28319917768055       13.00265384155393        1.62141634641307
N           -4.60151522534791       11.87435202422232        1.23052640848621
C           -3.27092783628883       11.93584213267234        0.67180800822135
C           -2.19218989715870       12.04486919885672        1.75656852702541
C           -2.02866290497617       10.77587723677486        2.59531446802818
C           -1.29421894437597        9.64895285406510        1.86225631166121
C            0.22768194084766        9.81450174880815        1.87334697951895
C            0.88269544259936        9.43021825803999        3.20177189637969
C            0.89655568710074        7.92836595775418        3.49380716445893
C            1.78790299383956        7.13935818979607        2.54220657255577
C           -4.95023145027907       14.34563597085795        1.56382821189193
C           -5.87744261795071       15.25819814132383        2.04683971803559
C           -7.10510990932718       14.83529407949958        2.57780375543301
C           -7.43632039746853       13.48846428254005        2.63763091354670
Cl          -8.22382561011203       15.99652564719701        3.17122625142401
Cl          -5.50475457395125       16.93471706600740        1.99420387937409
C           -7.29774952496745        5.67597231828176        2.34177806629099
C           -8.25179161613367        6.22075844864918        1.27778787976493
C           -9.07981234737888        5.12110520144078        0.64905945361659
O           -9.31618039720987        4.06142322350872        1.15973438229150
O           -9.53735230329480        5.48163224778802       -0.54800829054909
Cl          -7.22201644268984        0.01629074407803        2.11423891242121
H            2.05730731213945        0.69134697007913        1.11598026086604
H            2.71698308633437       -0.19027110935912        2.48645952200946
H            3.53787877414010        1.25372330032468        1.89606473698824
H            0.75528505052546        1.21487562591257        3.15895715923112
H            2.23048200652114        1.63404291477776        4.01607206853020
H            1.12940612946566        3.67301927757413        3.40297702436217
H            2.63341406980379        3.52661477158241        2.49813991285869
H            1.00551848840714        4.38372115506453        0.98998233192619
H            1.34829487625884        2.73024194696376        0.51250195233290
H           -0.97755771045741        2.89989086329056        0.31897718867319
H           -0.74350020106630        2.04270371947802        1.83313679577137
H           -2.37463072410408        3.60786389278732        2.43752956865320
H           -0.89271314701567        4.39126429093298        2.95944846736548
H           -2.11513865558210        6.09516269888395        1.87376678915733
H           -0.88187111475983        5.61962080872251        0.70606722265552
H           -2.93699294070640        5.84566314459888       -0.52155916404802
H           -2.61364425214801        4.11979000307878       -0.39890715128158
H           -3.25857498522533        2.08345983064100        0.27080871864987
H           -7.71775124377458        2.76991063305912        2.40868988444145
H           -3.82187769988989        7.29756594530927        0.61705274364215
H           -6.36658547946970        8.12174827228482        2.07457671851532
H           -3.96696083344888        9.44728583049745        0.74178117641052
H           -8.56069122791963       11.01722213423379        2.38820150033980
H           -7.74825095028688        9.51678484869371        1.94495414960346
H           -6.49403834517984        9.68081420993742        4.19913415133334
H           -7.62486757713509       10.96487359175771        4.65337075686281
H           -9.67458944472877        8.58646278649021        5.87320924316152
H           -3.09856612181079       11.06573656706144        0.03905974213015
H           -3.23256654161660       12.82040966201376        0.03162214541219
H           -1.24671476836321       12.28432451579343        1.26950761971685
H           -2.44928833491402       12.87852472322319        2.41255538739938
H           -1.46988254282453       11.02846602554425        3.49668231774648
H           -3.01339617721353       10.42876681799536        2.91546439637113
H           -1.55357531314461        8.69676908308845        2.32701706927701
H           -1.62995872991498        9.60497727685389        0.82387935456024
H            0.65832793402680        9.20633186615699        1.07736576361310
H            0.47471446709034       10.85421910065123        1.65075823516771
H            1.91454681350963        9.78648027513863        3.19305788935844
H            0.37019236721638        9.94171753761760        4.01930434198653
H            1.26300689987927        7.78576502944346        4.51253445269016
H           -0.11929276558641        7.52794219658230        3.45720148685715
H            2.79462914906320        7.54998564552652        2.53850020213768
H            1.84504493028133        6.10018881397164        2.85498302716195
H            1.40394409278676        7.16659785689717        1.52505652812279
H           -4.01309938752805       14.69518871768002        1.16569371692333
H           -8.38414972380052       13.19215564708854        3.05353969087424
H           -7.81970308934180        4.89815418165096        2.90125120415260
H           -7.01595567122211        6.46126306501452        3.04298625210792
H           -8.94950347061052        6.90473285099175        1.76590871731460
H           -7.72661356179500        6.76177950559259        0.49101905150855
H          -10.10643537872651        4.79278750741597       -0.92848936182235

          :  Hamiltonian                  GFN2-xTB          :
         :: total energy            -155.495462196960 Eh    ::
         :: gradient norm              0.000364565734 Eh/a0 ::
         :: HOMO-LUMO gap              1.659090969738 eV    ::
         :: SCC energy              -157.475631871281 Eh    ::
         :: -> dispersion             -0.124855601001 Eh    ::
         :: repulsion energy           1.980169674321 Eh    ::

    * Orbital Energies and Occupations

         #    Occupation            Energy/Eh            Energy/eV
      -------------------------------------------------------------
         1        2.0000           -1.1369876             -30.9390
       ...           ...                  ...                  ...
       127        2.0000           -0.4983535             -13.5609
       128        2.0000           -0.4975145             -13.5381
       129        2.0000           -0.4944774             -13.4554
       130        2.0000           -0.4940117             -13.4427
       131        2.0000           -0.4933237             -13.4240
       132        2.0000           -0.4909570             -13.3596
       133        2.0000           -0.4878952             -13.2763
       134        2.0000           -0.4867595             -13.2454
       135        2.0000           -0.4852670             -13.2048
       136        2.0000           -0.4806868             -13.0802
       137        2.0000           -0.4773971             -12.9906
       138        2.0000           -0.4771420             -12.9837
       139        2.0000           -0.4491528             -12.2221 (HOMO)
       140                         -0.3881823             -10.5630 (LUMO)
       141                         -0.3460571              -9.4167
       142                         -0.3429981              -9.3335
       143                         -0.3308992              -9.0042
       144                         -0.3278975              -8.9225
       145                         -0.3245740              -8.8321
       146                         -0.3211023              -8.7376
       147                         -0.2872918              -7.8176
       148                         -0.2326131              -6.3297
       149                         -0.2296332              -6.2486
       150                         -0.2230546              -6.0696
       ...                                ...                  ...
       275                          0.5774375              15.7129
      -------------------------------------------------------------
                  HL-Gap            0.0609705 Eh            1.6591 eV

     #   Z          covCN         q      C6AA      α(0)
     1   6 C        3.751    -0.104    22.550     6.772
     2   6 C        3.799    -0.054    21.542     6.608
     3   6 C        3.800    -0.058    21.619     6.620
     4   6 C        3.800    -0.062    21.684     6.630
     5   6 C        3.800    -0.061    21.682     6.630
     6   6 C        3.801    -0.064    21.730     6.637
     7   6 C        3.801    -0.066    21.760     6.641
     8   6 C        3.740    -0.014    20.901     6.523
     9   7 N        2.823    -0.017    21.575     6.899
    10   6 C        3.066     0.039    27.058     8.530
    11   6 C        2.954    -0.060    29.479     8.905
    12   6 C        2.922     0.087    26.070     8.373
    13  17 Cl       1.001    -0.109   102.563    15.494
    14   6 C        2.922     0.088    26.043     8.369
    15   6 C        2.953    -0.057    29.410     8.895
    16   6 C        3.070     0.037    27.106     8.537
    17   7 N        2.817    -0.015    21.545     6.894
    18   6 C        3.020     0.107    25.613     8.302
    19   6 C        2.910    -0.098    30.461     9.050
    20   6 C        2.890    -0.027    28.680     8.780
    21   6 C        2.910    -0.102    30.560     9.065
    22   6 C        3.007     0.107    25.619     8.303
    23   7 N        2.818    -0.024    21.708     6.920
    24   6 C        3.743    -0.010    20.835     6.512
    25   6 C        3.803    -0.102    22.438     6.744
    26   6 C        2.690     0.365    20.806     7.465
    27   8 O        0.856    -0.427    22.220     6.320
    28   8 O        1.660    -0.348    19.870     6.018
    29   6 C        3.065     0.035    27.146     8.544
    30   6 C        3.063     0.040    27.051     8.529
    31   7 N        2.822    -0.020    21.631     6.908
    32   6 C        3.741    -0.014    20.895     6.522
    33   6 C        3.801    -0.070    21.831     6.652
    34   6 C        3.801    -0.064    21.728     6.637
    35   6 C        3.800    -0.059    21.632     6.622
    36   6 C        3.801    -0.062    21.697     6.632
    37   6 C        3.801    -0.061    21.681     6.629
    38   6 C        3.799    -0.053    21.526     6.606
    39   6 C        3.751    -0.104    22.557     6.773
    40   6 C        2.953    -0.059    29.463     8.903
    41   6 C        2.922     0.087    26.062     8.372
    42   6 C        2.922     0.087    26.073     8.374
    43   6 C        2.953    -0.061    29.505     8.909
    44  17 Cl       0.999    -0.109   102.567    15.494
    45  17 Cl       1.000    -0.108   102.537    15.492
    46   6 C        3.742    -0.015    20.925     6.526
    47   6 C        3.803    -0.106    22.527     6.757
    48   6 C        2.689     0.362    20.865     7.475
    49   8 O        0.856    -0.403    21.740     6.251
    50   8 O        1.660    -0.369    20.264     6.077
    51  17 Cl       1.001    -0.105   102.443    15.485
    52   1 H        0.925     0.034     2.531     2.488
    53   1 H        0.925     0.037     2.489     2.467
    54   1 H        0.925     0.037     2.492     2.469
    55   1 H        0.924     0.029     2.597     2.520
    56   1 H        0.924     0.032     2.555     2.500
    57   1 H        0.924     0.025     2.661     2.551
    58   1 H        0.924     0.034     2.528     2.486
    59   1 H        0.924     0.029     2.597     2.520
    60   1 H        0.925     0.041     2.431     2.438
    61   1 H        0.924     0.024     2.674     2.557
    62   1 H        0.925     0.044     2.394     2.420
    63   1 H        0.924     0.029     2.603     2.523
    64   1 H        0.924     0.050     2.324     2.384
    65   1 H        0.924     0.040     2.450     2.448
    66   1 H        0.924     0.059     2.207     2.323
    67   1 H        0.924     0.060     2.194     2.316
    68   1 H        0.925     0.076     2.023     2.224
    69   1 H        0.926     0.087     1.912     2.162
    70   1 H        0.926     0.105     1.737     2.061
    71   1 H        0.926     0.053     2.277     2.360
    72   1 H        0.926     0.051     2.304     2.373
    73   1 H        0.926     0.057     2.231     2.336
    74   1 H        0.924     0.078     2.002     2.213
    75   1 H        0.924     0.087     1.911     2.162
    76   1 H        0.924     0.085     1.932     2.174
    77   1 H        0.925     0.087     1.912     2.162
    78   1 H        0.804     0.347     0.594     1.211
    79   1 H        0.925     0.068     2.104     2.269
    80   1 H        0.924     0.069     2.096     2.264
    81   1 H        0.925     0.061     2.186     2.312
    82   1 H        0.924     0.048     2.349     2.397
    83   1 H        0.925     0.051     2.313     2.379
    84   1 H        0.924     0.027     2.635     2.539
    85   1 H        0.924     0.035     2.522     2.483
    86   1 H        0.924     0.022     2.708     2.573
    87   1 H        0.924     0.039     2.465     2.455
    88   1 H        0.924     0.033     2.538     2.491
    89   1 H        0.924     0.039     2.460     2.453
    90   1 H        0.924     0.030     2.590     2.517
    91   1 H        0.924     0.034     2.536     2.490
    92   1 H        0.924     0.023     2.696     2.568
    93   1 H        0.925     0.040     2.450     2.448
    94   1 H        0.925     0.038     2.472     2.459
    95   1 H        0.925     0.028     2.613     2.528
    96   1 H        0.926     0.085     1.931     2.173
    97   1 H        0.926     0.080     1.974     2.197
    98   1 H        0.924     0.099     1.796     2.096
    99   1 H        0.925     0.082     1.959     2.189
   100   1 H        0.924     0.114     1.661     2.016
   101   1 H        0.925     0.077     2.006     2.215
   102   1 H        0.804     0.342     0.608     1.224

Wiberg/Mayer (AO) data.
largest (>0.10) Wiberg bond orders for each atom

     #   Z sym  total        # sym  WBO       # sym  WBO       # sym  WBO
 ---------------------------------------------------------------------------
     1   6 C    3.997 --     2 C    1.020    54 H    0.987    53 H    0.987
                            52 H    0.986
     2   6 C    3.997 --     1 C    1.020     3 C    1.008    56 H    0.978
                            55 H    0.974
     3   6 C    3.997 --     4 C    1.008     2 C    1.008    58 H    0.976
                            57 H    0.973
     4   6 C    3.997 --     3 C    1.008     5 C    1.008    60 H    0.974
                            59 H    0.973
     5   6 C    3.996 --     4 C    1.008     6 C    1.007    62 H    0.972
                            61 H    0.972
     6   6 C    3.994 --     7 C    1.008     5 C    1.007    63 H    0.976
                            64 H    0.970
     7   6 C    3.988 --     6 C    1.008     8 C    0.990    65 H    0.974
                            66 H    0.968
     8   6 C    3.953 --     7 C    0.990     9 N    0.980    67 H    0.961
                            68 H    0.960
     9   7 N    3.580 --    18 C    1.205    10 C    1.142     8 C    0.980
    10   6 C    3.960 --    11 C    1.350    16 C    1.257     9 N    1.142
    11   6 C    3.968 --    12 C    1.422    10 C    1.350    69 H    0.955
    12   6 C    3.917 --    11 C    1.422    14 C    1.315    13 Cl   1.018
    13  17 Cl   1.168 --    12 C    1.018
    14   6 C    3.918 --    15 C    1.421    12 C    1.315    51 Cl   1.020
    15   6 C    3.967 --    14 C    1.421    16 C    1.356    70 H    0.950
    16   6 C    3.958 --    15 C    1.356    10 C    1.257    17 N    1.132
    17   7 N    3.580 --    18 C    1.209    16 C    1.132    46 C    0.984
    18   6 C    3.919 --    19 C    1.296    17 N    1.209     9 N    1.205
    19   6 C    3.934 --    20 C    1.441    18 C    1.296    71 H    0.949
    20   6 C    3.960 --    19 C    1.441    21 C    1.400    72 H    0.950
    21   6 C    3.935 --    20 C    1.400    22 C    1.333    73 H    0.943
    22   6 C    3.912 --    21 C    1.333    31 N    1.191    23 N    1.182
    23   7 N    3.562 --    22 C    1.182    29 C    1.127    24 C    0.993
    24   6 C    3.960 --    23 N    0.993    25 C    0.983    74 H    0.964
                            75 H    0.955
    25   6 C    3.988 --    24 C    0.983    77 H    0.970    26 C    0.970
                            76 H    0.946
    26   6 C    3.917 --    27 O    1.733    28 O    1.181    25 C    0.970
    27   8 O    2.022 --    26 C    1.733    28 O    0.181
    28   8 O    2.244 --    26 C    1.181    78 H    0.853    27 O    0.181
    29   6 C    3.959 --    43 C    1.365    30 C    1.257    23 N    1.127
    30   6 C    3.964 --    40 C    1.358    29 C    1.257    31 N    1.142
    31   7 N    3.572 --    22 C    1.191    30 C    1.142    32 C    0.980
    32   6 C    3.954 --    33 C    0.990    31 N    0.980    80 H    0.964
                            79 H    0.957
    33   6 C    3.986 --    34 C    1.008    32 C    0.990    82 H    0.975
                            81 H    0.968
    34   6 C    3.995 --    33 C    1.008    35 C    1.007    84 H    0.975
                            83 H    0.971
    35   6 C    3.997 --    36 C    1.007    34 C    1.007    86 H    0.972
                            85 H    0.972
    36   6 C    3.996 --    37 C    1.008    35 C    1.007    88 H    0.974
                            87 H    0.974
    37   6 C    3.996 --    36 C    1.008    38 C    1.008    89 H    0.976
                            90 H    0.974
    38   6 C    3.998 --    39 C    1.020    37 C    1.008    91 H    0.978
                            92 H    0.974
    39   6 C    3.996 --    38 C    1.020    93 H    0.987    95 H    0.985
                            94 H    0.984
    40   6 C    3.966 --    41 C    1.412    30 C    1.358    96 H    0.959
    41   6 C    3.918 --    40 C    1.412    42 C    1.325    45 Cl   1.019
    42   6 C    3.915 --    43 C    1.408    41 C    1.325    44 Cl   1.018
    43   6 C    3.968 --    42 C    1.408    29 C    1.365    97 H    0.959
    44  17 Cl   1.167 --    42 C    1.018
    45  17 Cl   1.169 --    41 C    1.019
    46   6 C    3.953 --    47 C    0.994    17 N    0.984    98 H    0.957
                            99 H    0.955
    47   6 C    3.988 --    46 C    0.994    48 C    0.973   101 H    0.963
                           100 H    0.932
    48   6 C    3.918 --    49 O    1.764    50 O    1.149    47 C    0.973
    49   8 O    2.048 --    48 C    1.764    50 O    0.176
    50   8 O    2.213 --    48 C    1.149   102 H    0.858    49 O    0.176
    51  17 Cl   1.171 --    14 C    1.020
    52   1 H    0.999 --     1 C    0.986
    53   1 H    0.999 --     1 C    0.987
    54   1 H    0.999 --     1 C    0.987
    55   1 H    0.999 --     2 C    0.974
    56   1 H    0.999 --     2 C    0.978
    57   1 H    0.999 --     3 C    0.973
    58   1 H    0.999 --     3 C    0.976
    59   1 H    0.999 --     4 C    0.973
    60   1 H    0.998 --     4 C    0.974
    61   1 H    0.999 --     5 C    0.972
    62   1 H    0.998 --     5 C    0.972
    63   1 H    0.999 --     6 C    0.976
    64   1 H    0.997 --     6 C    0.970
    65   1 H    0.998 --     7 C    0.974
    66   1 H    0.995 --     7 C    0.968
    67   1 H    0.995 --     8 C    0.961
    68   1 H    0.993 --     8 C    0.960
    69   1 H    0.992 --    11 C    0.955
    70   1 H    0.988 --    15 C    0.950
    71   1 H    0.996 --    19 C    0.949
    72   1 H    0.997 --    20 C    0.950
    73   1 H    0.996 --    21 C    0.943
    74   1 H    0.993 --    24 C    0.964
    75   1 H    0.992 --    24 C    0.955
    76   1 H    0.993 --    25 C    0.946
    77   1 H    0.992 --    25 C    0.970
    78   1 H    0.879 --    28 O    0.853
    79   1 H    0.994 --    32 C    0.957
    80   1 H    0.993 --    32 C    0.964
    81   1 H    0.995 --    33 C    0.968
    82   1 H    0.998 --    33 C    0.975
    83   1 H    0.997 --    34 C    0.971
    84   1 H    0.999 --    34 C    0.975
    85   1 H    0.999 --    35 C    0.972
    86   1 H    1.000 --    35 C    0.972
    87   1 H    0.998 --    36 C    0.974
    88   1 H    0.999 --    36 C    0.974
    89   1 H    0.998 --    37 C    0.976
    90   1 H    0.999 --    37 C    0.974
    91   1 H    0.999 --    38 C    0.978
    92   1 H    0.999 --    38 C    0.974
    93   1 H    0.998 --    39 C    0.987
    94   1 H    0.998 --    39 C    0.984
    95   1 H    0.999 --    39 C    0.985
    96   1 H    0.992 --    40 C    0.959
    97   1 H    0.993 --    43 C    0.959
    98   1 H    0.989 --    46 C    0.957
    99   1 H    0.992 --    46 C    0.955
   100   1 H    0.986 --    47 C    0.932
   101   1 H    0.994 --    47 C    0.963
   102   1 H    0.883 --    50 O    0.858
 ---------------------------------------------------------------------------

molecular dipole:
                 x           y           z       tot (Debye)
 q only:       -8.910      16.034       3.111
   full:       -9.507      16.142       3.167      48.292

           -------------------------------------------------
          | TOTAL ENERGY             -155.495462196960 Eh   |
          | GRADIENT NORM               0.000364565734 Eh/α |
          | HOMO-LUMO GAP               1.659090969738 eV   |
           -------------------------------------------------

 * finished run on 2024/12/20 at 07:11:17.600
