   * xtb version 6.7.1 (edcfbbe) compiled by 'conda@3ef47c1a292c' on 2024-11-25

   ID    Z sym.   atoms
    1    6 C      1, 2, 4-10
    2    7 N      3
    3    1 H      11-24

          program call               : xtb C1107.xyz --opt --namespace C1107 --charge +1
          :  Hamiltonian                  GFN2-xTB          :
 * total energy  :   -28.9409062 Eh     change       -0.9055157E-10 Eh
 * total energy  :   -28.9448514 Eh     change       -0.3945213E-02 Eh
 * total energy  :   -28.9453578 Eh     change       -0.5064812E-03 Eh
 * total energy  :   -28.9454594 Eh     change       -0.1015850E-03 Eh
 * total energy  :   -28.9456407 Eh     change       -0.1812899E-03 Eh
 * total energy  :   -28.9458140 Eh     change       -0.1732639E-03 Eh
 * total energy  :   -28.9460113 Eh     change       -0.1972726E-03 Eh
 * total energy  :   -28.9462883 Eh     change       -0.2770284E-03 Eh
 * total energy  :   -28.9465536 Eh     change       -0.2652873E-03 Eh
 * total energy  :   -28.9466806 Eh     change       -0.1270606E-03 Eh
 * total energy  :   -28.9474544 Eh     change       -0.3962313E-04 Eh
 * total energy  :   -28.9475123 Eh     change       -0.5793639E-04 Eh
 * total energy  :   -28.9475277 Eh     change       -0.1538960E-04 Eh
 * total energy  :   -28.9475410 Eh     change       -0.1326622E-04 Eh
 * total energy  :   -28.9475505 Eh     change       -0.9534882E-05 Eh
 * total energy  :   -28.9475594 Eh     change       -0.8938710E-05 Eh
 * total energy  :   -28.9475677 Eh     change       -0.8273572E-05 Eh
 * total energy  :   -28.9475755 Eh     change       -0.7837055E-05 Eh
 * total energy  :   -28.9475796 Eh     change       -0.4079348E-05 Eh
   *** GEOMETRY OPTIMIZATION CONVERGED AFTER 25 ITERATIONS ***

 final structure:
================
24
 xtb: 6.7.1 (edcfbbe)
C            1.30575794515848        0.81510897107171        0.58931038251343
C            0.21968571260544        1.03525764404300       -0.46275579897926
N            0.78572936844361        1.56678557991159       -1.70028906484536
C            0.90218512938295        2.90779116879360       -1.85362706770072
C            0.38232454333387        3.84036571005252       -0.81670392657147
C            1.49199393754462        3.41791601680311       -2.99963982289588
C            1.96078873600116        2.56689889335199       -3.98477802299720
C            1.81758397393911        1.20292511804143       -3.80188062697352
C            1.22573856448169        0.70734873767564       -2.65046779638614
C            1.05954328777222       -0.76235728199584       -2.48365662789807
H            2.05588187609068        0.10718707057060        0.24760556620207
H            0.85019963097392        0.41904979844653        1.49200165922403
H            1.81235504735816        1.74244759880031        0.84205724321861
H           -0.28529123727168        0.09469366457619       -0.67679655047707
H           -0.52751547794840        1.73106963944962       -0.08451549166049
H            0.79218595366611        3.63330561887366        0.16916639730839
H            0.63875022823950        4.86215623784558       -1.08086565868427
H           -0.70488807371183        3.78044568033976       -0.75065234871183
H            1.58114359388326        4.48593881214674       -3.11274913487772
H            2.42546517880501        2.95796684331032       -4.87568973856810
H            2.16504157526505        0.51159163054296       -4.55203236736991
H            1.54536922443665       -1.28159837726353       -3.30462698314629
H            1.49000316821103       -1.12469548919259       -1.55303064745044
H            0.00421811333952       -1.03774928619477       -2.49848357227269

          :  Hamiltonian                  GFN2-xTB          :
         :: total energy             -28.947579628048 Eh    ::
         :: gradient norm              0.000436013445 Eh/a0 ::
         :: HOMO-LUMO gap              3.673054039327 eV    ::
         :: SCC energy               -29.436372093028 Eh    ::
         :: -> dispersion             -0.018298527865 Eh    ::
         :: repulsion energy           0.488792464979 Eh    ::

    * Orbital Energies and Occupations

         #    Occupation            Energy/Eh            Energy/eV
      -------------------------------------------------------------
         1        2.0000           -0.8640835             -23.5129
       ...           ...                  ...                  ...
        15        2.0000           -0.6619234             -18.0119
        16        2.0000           -0.6563645             -17.8606
        17        2.0000           -0.6502833             -17.6951
        18        2.0000           -0.6462271             -17.5847
        19        2.0000           -0.6324168             -17.2089
        20        2.0000           -0.6273013             -17.0697
        21        2.0000           -0.6226339             -16.9427
        22        2.0000           -0.6164544             -16.7746
        23        2.0000           -0.6088044             -16.5664
        24        2.0000           -0.6045552             -16.4508
        25        2.0000           -0.5962648             -16.2252
        26        2.0000           -0.5957541             -16.2113
        27        2.0000           -0.5769010             -15.6983 (HOMO)
        28                         -0.4419187             -12.0252 (LUMO)
        29                         -0.4089278             -11.1275
        30                         -0.2932309              -7.9792
        31                         -0.1752418              -4.7686
        32                         -0.0981207              -2.6700
        33                         -0.0508338              -1.3833
        34                         -0.0435779              -1.1858
        35                         -0.0393061              -1.0696
        36                         -0.0330328              -0.8989
        37                         -0.0224483              -0.6108
        38                          0.0046619               0.1269
       ...                                ...                  ...
        54                          0.4488805              12.2147
      -------------------------------------------------------------
                  HL-Gap            0.1349823 Eh            3.6731 eV

     #   Z          covCN         q      C6AA      α(0)
     1   6 C        3.752    -0.120    22.864     6.819
     2   6 C        3.753    -0.032    21.201     6.566
     3   7 N        2.752     0.064    20.129     6.663
     4   6 C        2.921     0.089    26.017     8.364
     5   6 C        3.759    -0.138    23.201     6.867
     6   6 C        2.923    -0.032    28.808     8.802
     7   6 C        2.918     0.006    27.886     8.660
     8   6 C        2.923    -0.032    28.809     8.802
     9   6 C        2.921     0.089    26.017     8.365
    10   6 C        3.759    -0.138    23.202     6.867
    11   1 H        0.925     0.061     2.183     2.310
    12   1 H        0.925     0.082     1.958     2.188
    13   1 H        0.925     0.061     2.182     2.310
    14   1 H        0.925     0.091     1.868     2.137
    15   1 H        0.925     0.091     1.868     2.137
    16   1 H        0.925     0.096     1.824     2.112
    17   1 H        0.925     0.092     1.855     2.130
    18   1 H        0.924     0.095     1.827     2.114
    19   1 H        0.926     0.096     1.824     2.112
    20   1 H        0.926     0.098     1.804     2.100
    21   1 H        0.926     0.096     1.824     2.112
    22   1 H        0.925     0.092     1.855     2.130
    23   1 H        0.925     0.096     1.825     2.112
    24   1 H        0.924     0.095     1.827     2.114

Wiberg/Mayer (AO) data.
largest (>0.10) Wiberg bond orders for each atom

     #   Z sym  total        # sym  WBO       # sym  WBO       # sym  WBO
 ---------------------------------------------------------------------------
     1   6 C    3.983 --     2 C    0.999    11 H    0.981    13 H    0.981
                            12 H    0.976
     2   6 C    3.939 --     1 C    0.999     3 N    0.962    14 H    0.959
                            15 H    0.959
     3   7 N    3.727 --     9 C    1.280     4 C    1.280     2 C    0.962
     4   6 C    3.960 --     6 C    1.422     3 N    1.280     5 C    1.047
     5   6 C    3.981 --     4 C    1.047    17 H    0.974    16 H    0.952
                            18 H    0.943
     6   6 C    3.985 --     7 C    1.428     4 C    1.422    19 H    0.960
     7   6 C    3.974 --     8 C    1.428     6 C    1.428    20 H    0.962
     8   6 C    3.985 --     7 C    1.428     9 C    1.422    21 H    0.960
     9   6 C    3.960 --     8 C    1.422     3 N    1.280    10 C    1.047
    10   6 C    3.981 --     9 C    1.047    22 H    0.974    23 H    0.952
                            24 H    0.943
    11   1 H    0.996 --     1 C    0.981
    12   1 H    0.992 --     1 C    0.976
    13   1 H    0.996 --     1 C    0.981
    14   1 H    0.991 --     2 C    0.959
    15   1 H    0.991 --     2 C    0.959
    16   1 H    0.991 --     5 C    0.952
    17   1 H    0.991 --     5 C    0.974
    18   1 H    0.991 --     5 C    0.943
    19   1 H    0.990 --     6 C    0.960
    20   1 H    0.990 --     7 C    0.962
    21   1 H    0.990 --     8 C    0.960
    22   1 H    0.991 --    10 C    0.974
    23   1 H    0.991 --    10 C    0.952
    24   1 H    0.991 --    10 C    0.943
 ---------------------------------------------------------------------------

molecular dipole:
                 x           y           z       tot (Debye)
 q only:        1.824       3.117      -3.506
   full:        1.803       3.138      -3.574      12.929

           -------------------------------------------------
          | TOTAL ENERGY              -28.947579628048 Eh   |
          | GRADIENT NORM               0.000436013445 Eh/α |
          | HOMO-LUMO GAP               3.673054039327 eV   |
           -------------------------------------------------

 * finished run on 2024/12/20 at 07:11:23.281
