   * xtb version 6.7.1 (edcfbbe) compiled by 'conda@3ef47c1a292c' on 2024-11-25

   ID    Z sym.   atoms
    1    6 C      1-3, 6-14, 16-22
    2    7 N      4, 15
    3    8 O      5
    4   17 Cl     23, 24
    5    1 H      25-43

          program call               : xtb C1113.xyz --opt --namespace C1113 --charge +1
          :  Hamiltonian                  GFN2-xTB          :
 * total energy  :   -68.9667292 Eh     change       -0.1406121E-08 Eh
 * total energy  :   -68.9753847 Eh     change       -0.8655436E-02 Eh
 * total energy  :   -68.9778562 Eh     change       -0.2471549E-02 Eh
 * total energy  :   -68.9784997 Eh     change       -0.6434456E-03 Eh
 * total energy  :   -68.9789046 Eh     change       -0.4049318E-03 Eh
 * total energy  :   -68.9790581 Eh     change       -0.1534872E-03 Eh
 * total energy  :   -68.9792372 Eh     change       -0.1791139E-03 Eh
 * total energy  :   -68.9794414 Eh     change       -0.2041931E-03 Eh
 * total energy  :   -68.9796842 Eh     change       -0.2428378E-03 Eh
 * total energy  :   -68.9799712 Eh     change       -0.2869718E-03 Eh
 * total energy  :   -68.9870699 Eh     change       -0.2310860E-04 Eh
 * total energy  :   -68.9870889 Eh     change       -0.1903895E-04 Eh
 * total energy  :   -68.9871033 Eh     change       -0.1440582E-04 Eh
 * total energy  :   -68.9871159 Eh     change       -0.1261453E-04 Eh
 * total energy  :   -68.9871282 Eh     change       -0.1223512E-04 Eh
 * total energy  :   -68.9871404 Eh     change       -0.1220984E-04 Eh
 * total energy  :   -68.9871515 Eh     change       -0.1114263E-04 Eh
 * total energy  :   -68.9871592 Eh     change       -0.7636610E-05 Eh
 * total energy  :   -68.9871639 Eh     change       -0.4751983E-05 Eh
   *** GEOMETRY OPTIMIZATION CONVERGED AFTER 108 ITERATIONS ***

 final structure:
================
43
 xtb: 6.7.1 (edcfbbe)
C           -1.24433462187773       -1.20105144681145       -0.24341438648409
C           -0.21650564054875       -2.14188867604018       -0.88644056534003
C            0.67716507182692       -2.72987789072098        0.13530037213211
N            0.49634470692819       -3.93631334827864        0.68572081892045
O           -0.50281200667845       -4.77939809513040        0.32422326206093
C           -0.03586658634927       -6.03816588962694       -0.21393313232928
C            0.93675139450045       -5.84179322371803       -1.34429210573048
C            2.30028892172733       -6.01484193974752       -1.13761367253823
C            3.19334703360191       -5.81532105345960       -2.17606774763282
C            2.73161883261306       -5.43001029899382       -3.42371926852697
C            1.37481289744622       -5.24051934959785       -3.63159497735620
C            0.48022762285264       -5.44496116823642       -2.59641009035196
C            1.44428405733646       -4.15685132675863        1.64117058381075
C            2.21803232949409       -3.04278392982696        1.67030872303447
N            1.72524393037936       -2.16835551725785        0.74483425720790
C            2.31745463030668       -0.87481618599593        0.46329141510308
C            3.79327910803080       -1.01314256141735        0.18798956973654
C            4.73969246596690       -0.41990489357244        1.01504931584995
C            6.09262456157591       -0.53761656472034        0.75903892240099
C            6.52061159343117       -1.26956697190877       -0.34151932004230
C            5.59462222233698       -1.87641495262420       -1.18173170303953
C            4.24510770310323       -1.74113592777698       -0.91203310684699
Cl           3.10640628487283       -2.49862682016879       -1.97873993253480
Cl           8.19567693952074       -1.42811961827011       -0.67550408232632
H           -1.86800950288010       -1.74409393543353        0.46132712647210
H           -1.88375699286383       -0.78526664102345       -1.01572415034357
H           -0.75806994680969       -0.38119493355318        0.27872948329683
H           -0.74088545372784       -2.95731175862548       -1.38661765055326
H            0.37215760622900       -1.60401194645042       -1.63076662231567
H            0.40278277472106       -6.64273254127898        0.58636817388610
H           -0.96221218766956       -6.50557133509475       -0.55060398547163
H            2.66612791425777       -6.32714934836847       -0.16924751050723
H            4.24912172827909       -5.96572369894509       -2.00942903904018
H            3.42751785048682       -5.28110067768705       -4.23504332044712
H            1.01237753915017       -4.94228119935873       -4.60325514061513
H           -0.57928636382404       -5.31275915108672       -2.76126314273938
H            1.48795707553140       -5.05540198216416        2.22079294750520
H            3.07297711181792       -2.81166651183409        2.27193938604141
H            1.81394749976290       -0.44705062023219       -0.40548193280859
H            2.16164031735636       -0.21812228752026        1.32362428720081
H            4.41237573670983        0.15460204229579        1.86835211794541
H            6.81405462077101       -0.06460427504678        1.40479975333943
H            5.92761922032405       -2.43885154794552       -2.03893393003634

          :  Hamiltonian                  GFN2-xTB          :
         :: total energy             -68.987163914448 Eh    ::
         :: gradient norm              0.000686481261 Eh/a0 ::
         :: HOMO-LUMO gap              3.163495601555 eV    ::
         :: SCC energy               -69.966901103862 Eh    ::
         :: -> dispersion             -0.053559712856 Eh    ::
         :: repulsion energy           0.979737189415 Eh    ::

    * Orbital Energies and Occupations

         #    Occupation            Energy/Eh            Energy/eV
      -------------------------------------------------------------
         1        2.0000           -1.1790926             -32.0847
       ...           ...                  ...                  ...
        50        2.0000           -0.5753984             -15.6574
        51        2.0000           -0.5699234             -15.5084
        52        2.0000           -0.5660327             -15.4025
        53        2.0000           -0.5639981             -15.3472
        54        2.0000           -0.5583742             -15.1941
        55        2.0000           -0.5429928             -14.7756
        56        2.0000           -0.5350266             -14.5588
        57        2.0000           -0.5322562             -14.4834
        58        2.0000           -0.5261156             -14.3163
        59        2.0000           -0.5175176             -14.0824
        60        2.0000           -0.5168940             -14.0654
        61        2.0000           -0.5152639             -14.0210
        62        2.0000           -0.5068033             -13.7908 (HOMO)
        63                         -0.3905470             -10.6273 (LUMO)
        64                         -0.3655779              -9.9479
        65                         -0.3614825              -9.8364
        66                         -0.3609947              -9.8232
        67                         -0.3418368              -9.3019
        68                         -0.3348926              -9.1129
        69                         -0.2678434              -7.2884
        70                         -0.2453509              -6.6763
        71                         -0.2286134              -6.2209
        72                         -0.2267773              -6.1709
        73                         -0.2084273              -5.6716
       ...                                ...                  ...
       125                          0.5509989              14.9934
      -------------------------------------------------------------
                  HL-Gap            0.1162563 Eh            3.1635 eV

     #   Z          covCN         q      C6AA      α(0)
     1   6 C        3.754    -0.115    22.767     6.804
     2   6 C        3.803    -0.068    21.795     6.646
     3   6 C        3.081     0.095    25.815     8.329
     4   7 N        2.920     0.182    18.204     6.337
     5   8 O        1.765    -0.218    17.611     5.667
     6   6 C        3.691     0.054    19.848     6.376
     7   6 C        2.968    -0.012    28.308     8.727
     8   6 C        2.923    -0.039    28.970     8.827
     9   6 C        2.919    -0.023    28.580     8.767
    10   6 C        2.920    -0.020    28.506     8.755
    11   6 C        2.919    -0.024    28.601     8.770
    12   6 C        2.923    -0.035    28.860     8.810
    13   6 C        3.022    -0.023    28.555     8.765
    14   6 C        3.064    -0.011    28.226     8.712
    15   7 N        2.879     0.049    20.390     6.706
    16   6 C        3.747    -0.026    21.111     6.554
    17   6 C        2.998    -0.011    28.268     8.721
    18   6 C        2.926    -0.032    28.787     8.799
    19   6 C        2.952    -0.038    28.953     8.825
    20   6 C        2.888     0.109    25.596     8.295
    21   6 C        2.997    -0.047    29.159     8.858
    22   6 C        2.891     0.092    25.946     8.351
    23  17 Cl       0.965    -0.167   104.398    15.632
    24  17 Cl       0.971    -0.107   102.479    15.487
    25   1 H        0.925     0.064     2.152     2.294
    26   1 H        0.925     0.079     1.993     2.208
    27   1 H        0.925     0.054     2.269     2.356
    28   1 H        0.924     0.093     1.854     2.129
    29   1 H        0.924     0.086     1.921     2.167
    30   1 H        0.924     0.058     2.228     2.334
    31   1 H        0.924     0.099     1.794     2.094
    32   1 H        0.925     0.032     2.562     2.503
    33   1 H        0.926     0.048     2.346     2.395
    34   1 H        0.926     0.052     2.292     2.367
    35   1 H        0.926     0.053     2.287     2.365
    36   1 H        0.926     0.045     2.387     2.416
    37   1 H        0.927     0.111     1.688     2.032
    38   1 H        0.926     0.107     1.725     2.054
    39   1 H        0.924     0.103     1.756     2.072
    40   1 H        0.924     0.096     1.820     2.110
    41   1 H        0.926     0.074     2.045     2.237
    42   1 H        0.926     0.091     1.868     2.137
    43   1 H        0.926     0.092     1.857     2.131

Wiberg/Mayer (AO) data.
largest (>0.10) Wiberg bond orders for each atom

     #   Z sym  total        # sym  WBO       # sym  WBO       # sym  WBO
 ---------------------------------------------------------------------------
     1   6 C    3.983 --    27 H    0.986    25 H    0.986     2 C    0.980
                            26 H    0.979
     2   6 C    3.976 --     3 C    1.029     1 C    0.980    28 H    0.959
                            29 H    0.952
     3   6 C    3.941 --    15 N    1.325     4 N    1.306     2 C    1.029
     4   7 N    3.706 --     3 C    1.306    13 C    1.194     5 O    1.009
     5   8 O    2.085 --     4 N    1.009     6 C    0.908
     6   6 C    3.903 --     7 C    1.002    30 H    0.969    31 H    0.952
                             5 O    0.908
     7   6 C    3.984 --     8 C    1.416    12 C    1.411     6 C    1.002
                            10 C    0.110
     8   6 C    3.992 --     9 C    1.442     7 C    1.416    32 H    0.968
                            11 C    0.110
     9   6 C    3.991 --     8 C    1.442    10 C    1.440    33 H    0.970
                            12 C    0.111
    10   6 C    3.990 --     9 C    1.440    11 C    1.436    34 H    0.970
                             7 C    0.110
    11   6 C    3.991 --    12 C    1.447    10 C    1.436    35 H    0.969
                             8 C    0.110
    12   6 C    3.991 --    11 C    1.447     7 C    1.411    36 H    0.968
                             9 C    0.111
    13   6 C    3.944 --    14 C    1.605     4 N    1.194    37 H    0.960
    14   6 C    3.948 --    13 C    1.605    15 N    1.210    38 H    0.960
    15   7 N    3.693 --     3 C    1.325    14 C    1.210    16 C    0.963
    16   6 C    3.943 --    17 C    0.996    15 N    0.963    40 H    0.954
                            39 H    0.951
    17   6 C    3.980 --    18 C    1.406    22 C    1.364    16 C    0.996
    18   6 C    3.987 --    19 C    1.448    17 C    1.406    41 H    0.963
                            21 C    0.101
    19   6 C    3.984 --    18 C    1.448    20 C    1.386    42 H    0.962
    20   6 C    3.933 --    19 C    1.386    21 C    1.385    24 Cl   1.026
    21   6 C    3.984 --    22 C    1.422    20 C    1.385    43 H    0.961
                            18 C    0.101
    22   6 C    3.920 --    21 C    1.422    17 C    1.364    23 Cl   0.976
    23  17 Cl   1.118 --    22 C    0.976
    24  17 Cl   1.184 --    20 C    1.026
    25   1 H    0.996 --     1 C    0.986
    26   1 H    0.993 --     1 C    0.979
    27   1 H    0.997 --     1 C    0.986
    28   1 H    0.991 --     2 C    0.959
    29   1 H    0.993 --     2 C    0.952
    30   1 H    0.996 --     6 C    0.969
    31   1 H    0.990 --     6 C    0.952
    32   1 H    0.999 --     8 C    0.968
    33   1 H    0.997 --     9 C    0.970
    34   1 H    0.997 --    10 C    0.970
    35   1 H    0.997 --    11 C    0.969
    36   1 H    0.998 --    12 C    0.968
    37   1 H    0.987 --    13 C    0.960
    38   1 H    0.989 --    14 C    0.960
    39   1 H    0.988 --    16 C    0.951
    40   1 H    0.990 --    16 C    0.954
    41   1 H    0.995 --    18 C    0.963
    42   1 H    0.991 --    19 C    0.962
    43   1 H    0.991 --    21 C    0.961
 ---------------------------------------------------------------------------

molecular dipole:
                 x           y           z       tot (Debye)
 q only:        2.998      -5.108       0.718
   full:        3.421      -5.423       0.426      16.334

           -------------------------------------------------
          | TOTAL ENERGY              -68.987163914448 Eh   |
          | GRADIENT NORM               0.000686481261 Eh/α |
          | HOMO-LUMO GAP               3.163495601555 eV   |
           -------------------------------------------------

 * finished run on 2024/12/20 at 07:11:39.396
