   * xtb version 6.7.1 (edcfbbe) compiled by 'conda@3ef47c1a292c' on 2024-11-25

   ID    Z sym.   atoms
    1    6 C      1, 2, 4, 6, 8, 10-22
    2    8 O      3, 5
    3    7 N      7, 9
    4    1 H      23-41

          program call               : xtb C1111.xyz --opt --namespace C1111 --charge +1
          :  Hamiltonian                  GFN2-xTB          :
 * total energy  :   -61.8486586 Eh     change       -0.5857999E-09 Eh
 * total energy  :   -61.8562576 Eh     change       -0.7598994E-02 Eh
 * total energy  :   -61.8574135 Eh     change       -0.1155910E-02 Eh
 * total energy  :   -61.8576069 Eh     change       -0.1933266E-03 Eh
 * total energy  :   -61.8576927 Eh     change       -0.8588124E-04 Eh
 * total energy  :   -61.8577406 Eh     change       -0.4784125E-04 Eh
 * total energy  :   -61.8578059 Eh     change       -0.6527623E-04 Eh
 * total energy  :   -61.8578897 Eh     change       -0.8388789E-04 Eh
 * total energy  :   -61.8580108 Eh     change       -0.1210753E-03 Eh
 * total energy  :   -61.8581721 Eh     change       -0.1613293E-03 Eh
 * total energy  :   -61.8656085 Eh     change       -0.7753583E-05 Eh
 * total energy  :   -61.8656149 Eh     change       -0.6435122E-05 Eh
 * total energy  :   -61.8656211 Eh     change       -0.6189580E-05 Eh
 * total energy  :   -61.8656292 Eh     change       -0.8084892E-05 Eh
 * total energy  :   -61.8656401 Eh     change       -0.1095390E-04 Eh
 * total energy  :   -61.8656523 Eh     change       -0.1218898E-04 Eh
 * total energy  :   -61.8656627 Eh     change       -0.1035099E-04 Eh
 * total energy  :   -61.8656707 Eh     change       -0.7990515E-05 Eh
 * total energy  :   -61.8656750 Eh     change       -0.4363854E-05 Eh
   *** GEOMETRY OPTIMIZATION CONVERGED AFTER 136 ITERATIONS ***

 final structure:
================
41
 xtb: 6.7.1 (edcfbbe)
C            1.39875088977983        1.53196914516361       -1.08181493050814
C            2.65298723209720        0.73166872090285       -1.38662108464816
O            2.41190522965257       -0.22196524441199       -2.44367584588336
C            1.94545932084207       -1.39765083047073       -2.11832800266994
O            1.72244031419881       -1.82843480609973       -1.01897013891712
C            1.69236773686159       -2.25670946256457       -3.38418754542619
N            1.63367885046014       -3.63271795442215       -2.98836210490913
C            0.77683257336292       -4.10930270858078       -2.08542542802373
N            1.07624437499093       -5.35649602756614       -1.74889133678184
C            2.21030765358579       -5.72225126061625       -2.44319759866295
C            2.57295632742978       -4.61506100139899       -3.23603067845121
C            3.68345920871736       -4.65676093345534       -4.06988231227754
C            4.41462107930085       -5.82655805519732       -4.08115618760639
C            4.05789699759235       -6.92454062586568       -3.29300519051933
C            2.95567873333783       -6.89591543490698       -2.46465402541511
C            0.38759959240404       -6.12582605771034       -0.73195936227060
C            0.63679527908740       -5.52368178009331        0.63346450825672
C           -0.42082925386033       -5.08203238146292        1.41467796662827
C           -0.17963300868141       -4.52390719353922        2.65857146318501
C            1.11845072825342       -4.39269247224042        3.12048015927477
C            2.17755198064503       -4.82641401564124        2.34004930723503
C            1.93876924765194       -5.39244269381477        1.10119014993413
H            1.03188827064888        2.01900373224347       -1.98172450666370
H            1.63196593017540        2.29196402980501       -0.34255369987294
H            0.62087455836597        0.88521237515199       -0.68249039759409
H            3.44810815035614        1.37176516086558       -1.77063666917951
H            2.99592305313374        0.19168314368044       -0.49975554204921
H            0.74353915182179       -1.93487164405437       -3.82416899046606
H            2.48911612290868       -2.09796012039599       -4.10974531662991
H           -0.05361037776842       -3.56087438777027       -1.68375763435415
H            3.96772248740657       -3.81802345608307       -4.68403268959148
H            5.28480256073610       -5.89826936766563       -4.71370859845473
H            4.66198747543295       -7.81661482655949       -3.33638198718778
H            2.69059993597247       -7.74952970743149       -1.86231366075768
H           -0.68271739600743       -6.13197167414400       -0.95279207938483
H            0.75884289264244       -7.15151455318437       -0.77604083053545
H           -1.43564616095682       -5.18412398790915        1.05821144702463
H           -1.00764706898547       -4.18969751523304        3.26437136367864
H            1.30548924581010       -3.95471194932991        4.08838592084838
H            3.19079950731049       -4.72780263058495        2.69762751273235
H            2.76754057329228       -5.73567954737842        0.49725457688391

          :  Hamiltonian                  GFN2-xTB          :
         :: total energy             -61.865675033692 Eh    ::
         :: gradient norm              0.000363733329 Eh/a0 ::
         :: HOMO-LUMO gap              2.651319213423 eV    ::
         :: SCC energy               -62.828749346125 Eh    ::
         :: -> dispersion             -0.041125592419 Eh    ::
         :: repulsion energy           0.963074312433 Eh    ::

    * Orbital Energies and Occupations

         #    Occupation            Energy/Eh            Energy/eV
      -------------------------------------------------------------
         1        2.0000           -0.8786375             -23.9089
       ...           ...                  ...                  ...
        44        2.0000           -0.5780349             -15.7291
        45        2.0000           -0.5766559             -15.6916
        46        2.0000           -0.5719150             -15.5626
        47        2.0000           -0.5699711             -15.5097
        48        2.0000           -0.5644639             -15.3598
        49        2.0000           -0.5580564             -15.1855
        50        2.0000           -0.5504391             -14.9782
        51        2.0000           -0.5488170             -14.9341
        52        2.0000           -0.5404930             -14.7076
        53        2.0000           -0.5264352             -14.3250
        54        2.0000           -0.5233018             -14.2398
        55        2.0000           -0.5068866             -13.7931
        56        2.0000           -0.5059723             -13.7682 (HOMO)
        57                         -0.4085381             -11.1169 (LUMO)
        58                         -0.3625712              -9.8661
        59                         -0.3602259              -9.8022
        60                         -0.3521157              -9.5816
        61                         -0.3303962              -8.9905
        62                         -0.3248293              -8.8391
        63                         -0.2349035              -6.3920
        64                         -0.2019862              -5.4963
        65                         -0.1668490              -4.5402
        66                         -0.1353382              -3.6827
        67                         -0.1151041              -3.1321
       ...                                ...                  ...
       107                          0.5621077              15.2957
      -------------------------------------------------------------
                  HL-Gap            0.0974342 Eh            2.6513 eV

     #   Z          covCN         q      C6AA      α(0)
     1   6 C        3.751    -0.121    22.887     6.823
     2   6 C        3.698     0.069    19.584     6.330
     3   8 O        1.702    -0.232    17.844     5.703
     4   6 C        2.715     0.362    20.861     7.476
     5   8 O        0.856    -0.398    21.635     6.236
     6   6 C        3.743    -0.051    21.561     6.624
     7   7 N        2.831     0.036    20.607     6.742
     8   6 C        3.072     0.076    26.237     8.399
     9   7 N        2.829     0.041    20.518     6.728
    10   6 C        3.119     0.043    26.870     8.490
    11   6 C        3.113     0.040    26.959     8.506
    12   6 C        2.908    -0.033    28.814     8.802
    13   6 C        2.925    -0.018    28.450     8.747
    14   6 C        2.925    -0.018    28.467     8.750
    15   6 C        2.909    -0.030    28.757     8.793
    16   6 C        3.748    -0.023    21.057     6.545
    17   6 C        2.973    -0.001    28.057     8.689
    18   6 C        2.922    -0.035    28.864     8.810
    19   6 C        2.920    -0.021    28.534     8.760
    20   6 C        2.920    -0.020    28.516     8.757
    21   6 C        2.920    -0.021    28.541     8.761
    22   6 C        2.923    -0.034    28.853     8.809
    23   1 H        0.925     0.067     2.121     2.278
    24   1 H        0.925     0.073     2.051     2.239
    25   1 H        0.925     0.061     2.188     2.313
    26   1 H        0.924     0.082     1.956     2.187
    27   1 H        0.924     0.071     2.071     2.251
    28   1 H        0.924     0.107     1.724     2.053
    29   1 H        0.925     0.111     1.687     2.031
    30   1 H        0.926     0.117     1.639     2.002
    31   1 H        0.926     0.067     2.115     2.274
    32   1 H        0.926     0.080     1.977     2.199
    33   1 H        0.926     0.080     1.974     2.197
    34   1 H        0.926     0.072     2.065     2.247
    35   1 H        0.924     0.080     1.976     2.198
    36   1 H        0.924     0.088     1.903     2.157
    37   1 H        0.926     0.041     2.438     2.441
    38   1 H        0.926     0.055     2.256     2.349
    39   1 H        0.926     0.056     2.247     2.344
    40   1 H        0.926     0.051     2.303     2.373
    41   1 H        0.925     0.030     2.581     2.512

Wiberg/Mayer (AO) data.
largest (>0.10) Wiberg bond orders for each atom

     #   Z sym  total        # sym  WBO       # sym  WBO       # sym  WBO
 ---------------------------------------------------------------------------
     1   6 C    3.986 --     2 C    1.014    25 H    0.984    23 H    0.984
                            24 H    0.978
     2   6 C    3.895 --     1 C    1.014    27 H    0.970    26 H    0.968
                             3 O    0.901
     3   8 O    2.365 --     4 C    1.217     2 C    0.901     5 O    0.191
     4   6 C    3.934 --     5 O    1.739     3 O    1.217     6 C    0.912
     5   8 O    2.067 --     4 C    1.739     3 O    0.191
     6   6 C    3.953 --     7 N    0.999    29 H    0.956    28 H    0.942
                             4 C    0.912
     7   7 N    3.670 --     8 C    1.346    11 C    1.118     6 C    0.999
     8   6 C    3.952 --     9 N    1.382     7 N    1.346    30 H    0.952
     9   7 N    3.687 --     8 C    1.382    10 C    1.129    16 C    0.959
    10   6 C    3.953 --    15 C    1.338    11 C    1.272     9 N    1.129
    11   6 C    3.949 --    12 C    1.342    10 C    1.272     7 N    1.118
    12   6 C    3.986 --    13 C    1.493    11 C    1.342    31 H    0.962
                            15 C    0.118
    13   6 C    3.984 --    12 C    1.493    14 C    1.378    32 H    0.966
    14   6 C    3.984 --    15 C    1.496    13 C    1.378    33 H    0.966
    15   6 C    3.985 --    14 C    1.496    10 C    1.338    34 H    0.961
                            12 C    0.118
    16   6 C    3.936 --    17 C    0.980    35 H    0.960     9 N    0.959
                            36 H    0.958
    17   6 C    3.977 --    18 C    1.419    22 C    1.411    16 C    0.980
                            20 C    0.109
    18   6 C    3.990 --    19 C    1.438    17 C    1.419    37 H    0.968
                            21 C    0.110
    19   6 C    3.990 --    20 C    1.443    18 C    1.438    38 H    0.969
                            22 C    0.112
    20   6 C    3.990 --    19 C    1.443    21 C    1.435    39 H    0.969
                            17 C    0.109
    21   6 C    3.991 --    22 C    1.448    20 C    1.435    40 H    0.969
                            18 C    0.110
    22   6 C    3.992 --    21 C    1.448    17 C    1.411    41 H    0.969
                            19 C    0.112
    23   1 H    0.996 --     1 C    0.984
    24   1 H    0.994 --     1 C    0.978
    25   1 H    0.996 --     1 C    0.984
    26   1 H    0.993 --     2 C    0.968
    27   1 H    0.995 --     2 C    0.970
    28   1 H    0.987 --     6 C    0.942
    29   1 H    0.987 --     6 C    0.956
    30   1 H    0.985 --     8 C    0.952
    31   1 H    0.995 --    12 C    0.962
    32   1 H    0.993 --    13 C    0.966
    33   1 H    0.993 --    14 C    0.966
    34   1 H    0.994 --    15 C    0.961
    35   1 H    0.992 --    16 C    0.960
    36   1 H    0.992 --    16 C    0.958
    37   1 H    0.998 --    18 C    0.968
    38   1 H    0.996 --    19 C    0.969
    39   1 H    0.996 --    20 C    0.969
    40   1 H    0.997 --    21 C    0.969
    41   1 H    0.999 --    22 C    0.969
 ---------------------------------------------------------------------------

molecular dipole:
                 x           y           z       tot (Debye)
 q only:        3.416      -7.440      -4.036
   full:        3.301      -7.354      -4.203      23.107

           -------------------------------------------------
          | TOTAL ENERGY              -61.865675033692 Eh   |
          | GRADIENT NORM               0.000363733329 Eh/α |
          | HOMO-LUMO GAP               2.651319213423 eV   |
           -------------------------------------------------

 * finished run on 2024/12/20 at 07:11:35.338
