   * xtb version 6.7.1 (edcfbbe) compiled by 'conda@3ef47c1a292c' on 2024-11-25

   ID    Z sym.   atoms
    1    6 C      1-4, 6-8
    2    7 N      5
    3    1 H      9-18

          program call               : xtb C1116.xyz --opt --namespace C1116 --charge +1
          :  Hamiltonian                  GFN2-xTB          :
 * total energy  :   -22.6045033 Eh     change       -0.9599432E-10 Eh
 * total energy  :   -22.6066244 Eh     change       -0.2121166E-02 Eh
 * total energy  :   -22.6069028 Eh     change       -0.2783063E-03 Eh
 * total energy  :   -22.6069196 Eh     change       -0.1686266E-04 Eh
 * total energy  :   -22.6069221 Eh     change       -0.2511387E-05 Eh
   *** GEOMETRY OPTIMIZATION CONVERGED AFTER 5 ITERATIONS ***

 final structure:
================
18
 xtb: 6.7.1 (edcfbbe)
C            0.99800435883171        0.01631298684683        0.00757676908231
C            0.48085252336444        0.74164396979838        1.18738123754029
C           -0.27378309929004        0.10583629808901        2.17968412376423
C           -0.72976023624083        0.81459445053660        3.26488090423861
N           -0.46908395465663        2.12242784664544        3.40647389280326
C            0.25016631117243        2.76271325555651        2.47565065336493
C            0.73284877398224        2.10658341887939        1.36840430980492
C           -0.98076680695228        2.82192974092012        4.56316219679731
H            0.74152909742522        0.54585907256651       -0.90909396568871
H            0.61314081704280       -0.99769032989736       -0.04294088196665
H            2.08734494406689       -0.02653670672252        0.04903681547290
H           -0.50360186397057       -0.94515140026190        2.10027002781014
H           -1.31499807207070        0.34428759044792        4.04167260592003
H            0.43571113654978        3.81567245592591        2.62820602903156
H            1.30876042304829        2.65372320008092        0.63833563480501
H           -2.07192055839648        2.82999582677929        4.54508521736493
H           -0.65659794647534        2.32466058641835        5.47799583238358
H           -0.62408584743090        3.84923773739058        4.57674859747133

          :  Hamiltonian                  GFN2-xTB          :
         :: total energy             -22.606922129147 Eh    ::
         :: gradient norm              0.000907270436 Eh/a0 ::
         :: HOMO-LUMO gap              3.795879389606 eV    ::
         :: SCC energy               -23.000896432045 Eh    ::
         :: -> dispersion             -0.011638838689 Eh    ::
         :: repulsion energy           0.393974302898 Eh    ::

    * Orbital Energies and Occupations

         #    Occupation            Energy/Eh            Energy/eV
      -------------------------------------------------------------
         1        2.0000           -0.8796150             -23.9355
       ...           ...                  ...                  ...
         9        2.0000           -0.7246016             -19.7174
        10        2.0000           -0.7229273             -19.6719
        11        2.0000           -0.6886027             -18.7378
        12        2.0000           -0.6788597             -18.4727
        13        2.0000           -0.6715903             -18.2749
        14        2.0000           -0.6668872             -18.1469
        15        2.0000           -0.6516466             -17.7322
        16        2.0000           -0.6392320             -17.3944
        17        2.0000           -0.6272729             -17.0690
        18        2.0000           -0.6218762             -16.9221
        19        2.0000           -0.6136533             -16.6984
        20        2.0000           -0.6052650             -16.4701
        21        2.0000           -0.5926665             -16.1273 (HOMO)
        22                         -0.4531705             -12.3314 (LUMO)
        23                         -0.4248272             -11.5601
        24                         -0.3062283              -8.3329
        25                         -0.1692753              -4.6062
        26                         -0.0791273              -2.1532
        27                         -0.0462531              -1.2586
        28                         -0.0309595              -0.8425
        29                         -0.0247595              -0.6737
        30                         -0.0145113              -0.3949
        31                          0.0018448               0.0502
        32                          0.0403345               1.0976
       ...                                ...                  ...
        42                          0.4365507              11.8791
      -------------------------------------------------------------
                  HL-Gap            0.1394960 Eh            3.7959 eV

     #   Z          covCN         q      C6AA      α(0)
     1   6 C        3.758    -0.135    23.146     6.859
     2   6 C        2.969     0.073    26.357     8.421
     3   6 C        2.920    -0.025    28.627     8.774
     4   6 C        2.892     0.028    27.382     8.579
     5   7 N        2.748     0.109    19.370     6.537
     6   6 C        2.888     0.029    27.362     8.576
     7   6 C        2.921    -0.026    28.663     8.780
     8   6 C        3.709    -0.094    22.445     6.771
     9   1 H        0.925     0.101     1.776     2.084
    10   1 H        0.925     0.086     1.914     2.163
    11   1 H        0.924     0.107     1.727     2.055
    12   1 H        0.926     0.104     1.749     2.068
    13   1 H        0.926     0.108     1.714     2.047
    14   1 H        0.926     0.107     1.726     2.054
    15   1 H        0.926     0.104     1.747     2.067
    16   1 H        0.924     0.111     1.692     2.034
    17   1 H        0.924     0.110     1.699     2.038
    18   1 H        0.925     0.105     1.740     2.063

Wiberg/Mayer (AO) data.
largest (>0.10) Wiberg bond orders for each atom

     #   Z sym  total        # sym  WBO       # sym  WBO       # sym  WBO
 ---------------------------------------------------------------------------
     1   6 C    3.982 --     2 C    1.067    10 H    0.978     9 H    0.947
                            11 H    0.934
     2   6 C    3.970 --     7 C    1.363     3 C    1.359     1 C    1.067
     3   6 C    3.983 --     4 C    1.496     2 C    1.359    12 H    0.958
     4   6 C    3.958 --     3 C    1.496     5 N    1.307    13 H    0.956
     5   7 N    3.759 --     6 C    1.312     4 C    1.307     8 C    0.986
     6   6 C    3.958 --     7 C    1.492     5 N    1.312    14 H    0.954
     7   6 C    3.983 --     6 C    1.492     2 C    1.363    15 H    0.959
     8   6 C    3.931 --     5 N    0.986    18 H    0.974    17 H    0.961
                            16 H    0.958
     9   1 H    0.989 --     1 C    0.947
    10   1 H    0.992 --     1 C    0.978
    11   1 H    0.988 --     1 C    0.934
    12   1 H    0.989 --     3 C    0.958
    13   1 H    0.988 --     4 C    0.956
    14   1 H    0.988 --     6 C    0.954
    15   1 H    0.989 --     7 C    0.959
    16   1 H    0.987 --     8 C    0.958
    17   1 H    0.987 --     8 C    0.961
    18   1 H    0.989 --     8 C    0.974
 ---------------------------------------------------------------------------

molecular dipole:
                 x           y           z       tot (Debye)
 q only:       -0.211       3.064       4.901
   full:       -0.236       3.117       4.973      14.930

           -------------------------------------------------
          | TOTAL ENERGY              -22.606922129147 Eh   |
          | GRADIENT NORM               0.000907270436 Eh/α |
          | HOMO-LUMO GAP               3.795879389606 eV   |
           -------------------------------------------------

 * finished run on 2024/12/20 at 07:11:42.606
