   * xtb version 6.7.1 (edcfbbe) compiled by 'conda@3ef47c1a292c' on 2024-11-25

   ID    Z sym.   atoms
    1    6 C      1-4, 7-11, 13, 15-23
    2    8 O      5, 6
    3    7 N      12, 14
    4    1 H      24-48

          program call               : xtb C1119.xyz --opt --namespace C1119 --charge +1
          :  Hamiltonian                  GFN2-xTB          :
 * total energy  :   -67.0675425 Eh     change       -0.6799752E-09 Eh
 * total energy  :   -67.0756312 Eh     change       -0.8088682E-02 Eh
 * total energy  :   -67.0771388 Eh     change       -0.1507640E-02 Eh
 * total energy  :   -67.0775785 Eh     change       -0.4397247E-03 Eh
 * total energy  :   -67.0780566 Eh     change       -0.4780377E-03 Eh
 * total energy  :   -67.0784132 Eh     change       -0.3566150E-03 Eh
 * total energy  :   -67.0788638 Eh     change       -0.4506023E-03 Eh
 * total energy  :   -67.0794579 Eh     change       -0.5940828E-03 Eh
 * total energy  :   -67.0800689 Eh     change       -0.6109832E-03 Eh
 * total energy  :   -67.0806345 Eh     change       -0.5656458E-03 Eh
 * total energy  :   -67.0833922 Eh     change       -0.1211488E-04 Eh
 * total energy  :   -67.0834046 Eh     change       -0.1242816E-04 Eh
 * total energy  :   -67.0834197 Eh     change       -0.1505682E-04 Eh
 * total energy  :   -67.0834359 Eh     change       -0.1625849E-04 Eh
 * total energy  :   -67.0834495 Eh     change       -0.1360335E-04 Eh
 * total energy  :   -67.0834593 Eh     change       -0.9725561E-05 Eh
 * total energy  :   -67.0834665 Eh     change       -0.7227674E-05 Eh
 * total energy  :   -67.0834726 Eh     change       -0.6076215E-05 Eh
 * total energy  :   -67.0834753 Eh     change       -0.2756738E-05 Eh
   *** GEOMETRY OPTIMIZATION CONVERGED AFTER 44 ITERATIONS ***

 final structure:
================
48
 xtb: 6.7.1 (edcfbbe)
C            1.58199891514674        0.08482929220212       -0.46249821134165
C            0.65665771618823        1.20025534717763        0.01118723956303
C            1.25083800678421        2.57673786635154       -0.28603611614510
C            2.41358113779511        2.96697485910354        0.62479331105208
O            3.17101035641900        2.26548021208137        1.21544882182532
O            2.44648267629397        4.32253642339917        0.73238014776996
C            1.41431902562524        4.89330819467408       -0.05684797850674
C            0.33919181656739        3.80459931113674       -0.12746615573397
C           -0.46955414656268        3.70295892499030        1.18663674338349
C           -0.95154702999014        5.01468761898323        1.68922685357898
C           -2.00636908658840        5.78477883127642        1.28197671501477
N           -2.03209525545087        6.90384704049407        2.05613928925552
C           -1.02379309134742        6.82964022305244        2.91596528542900
N           -0.34758323350550        5.69868387949753        2.71546110166733
C            0.80547246318995        5.27195508794616        3.46716826434691
C           -3.00494592556469        7.97609144734638        1.94276630332090
C           -4.39280967171796        7.42459219967205        1.72410643876931
C           -4.98318660037689        7.55902390896190        0.47313501293291
C           -6.25014762103858        7.06078258379113        0.23238387158516
C           -6.93307479377547        6.41632376594961        1.24924940509140
C           -6.34885443888742        6.28018016515298        2.49555624357786
C           -5.07785097624430        6.77768951743688        2.75617691089167
C           -4.47796472746901        6.61914663578467        4.12128651639036
H            1.73540166595670        0.13954027434513       -1.53758527718238
H            1.14785886916267       -0.88288105050165       -0.22794698523911
H            2.54512991037826        0.16018867745409        0.03324639603444
H           -0.30607734249235        1.11775315397678       -0.49858007139552
H            0.48868271351982        1.08416419823107        1.08269603745848
H            1.64659931651999        2.56647562247746       -1.30924953566096
H            1.80299434340443        5.11839490865887       -1.05655963960812
H            1.10214489610259        5.82795443520884        0.41067442276097
H           -0.33151712220808        3.95772922462152       -0.97213869216026
H           -1.32646347466045        3.05134757478994        1.01268837400364
H            0.15761964162601        3.24152842608416        1.94976908134534
H           -2.73413597506287        5.60548183424757        0.51741737391730
H           -0.78702418064725        7.56514377818799        3.65997445108672
H            1.64085381595670        5.04875779696219        2.80098108137234
H            1.10236388260150        6.06293515331937        4.15171973910528
H            0.57111855226416        4.37726272940271        4.04606599760520
H           -2.72493389016057        8.60835361914035        1.09431855576162
H           -2.95413973036278        8.57670224741623        2.85362920222964
H           -4.44964338105550        8.06921411060551       -0.31610845390602
H           -6.70015919653426        7.17803505842869       -0.74049936279746
H           -7.92240688816964        6.02430995109542        1.07389935839235
H           -6.89001722732355        5.78261351798796        3.28587970274665
H           -5.20942436728106        6.19640335735729        4.80366390823847
H           -3.61543379443892        5.95213938254259        4.10065856311738
H           -4.15923655255933        7.57969868151034        4.52422975904812

          :  Hamiltonian                  GFN2-xTB          :
         :: total energy             -67.083475315461 Eh    ::
         :: gradient norm              0.000258349195 Eh/a0 ::
         :: HOMO-LUMO gap              2.881696130138 eV    ::
         :: SCC energy               -68.067382443652 Eh    ::
         :: -> dispersion             -0.048224421008 Eh    ::
         :: repulsion energy           0.983907128191 Eh    ::

    * Orbital Energies and Occupations

         #    Occupation            Energy/Eh            Energy/eV
      -------------------------------------------------------------
         1        2.0000           -0.8902002             -24.2236
       ...           ...                  ...                  ...
        49        2.0000           -0.5777618             -15.7217
        50        2.0000           -0.5760999             -15.6765
        51        2.0000           -0.5712498             -15.5445
        52        2.0000           -0.5651324             -15.3780
        53        2.0000           -0.5536126             -15.0646
        54        2.0000           -0.5448658             -14.8266
        55        2.0000           -0.5341692             -14.5355
        56        2.0000           -0.5335463             -14.5185
        57        2.0000           -0.5327542             -14.4970
        58        2.0000           -0.5291265             -14.3983
        59        2.0000           -0.5159192             -14.0389
        60        2.0000           -0.5081834             -13.8284
        61        2.0000           -0.5056506             -13.7595 (HOMO)
        62                         -0.3997502             -10.8778 (LUMO)
        63                         -0.3642671              -9.9122
        64                         -0.3409213              -9.2769
        65                         -0.3333790              -9.0717
        66                         -0.3320937              -9.0367
        67                         -0.2133881              -5.8066
        68                         -0.1715741              -4.6688
        69                         -0.1327191              -3.6115
        70                         -0.1075989              -2.9279
        71                         -0.0857470              -2.3333
        72                         -0.0699194              -1.9026
       ...                                ...                  ...
       117                          0.5873836              15.9835
      -------------------------------------------------------------
                  HL-Gap            0.1059004 Eh            2.8817 eV

     #   Z          covCN         q      C6AA      α(0)
     1   6 C        3.753    -0.116    22.778     6.806
     2   6 C        3.800    -0.055    21.568     6.612
     3   6 C        3.892    -0.057    21.545     6.599
     4   6 C        2.784     0.354    21.001     7.506
     5   8 O        0.856    -0.343    20.582     6.082
     6   8 O        1.706    -0.273    18.535     5.813
     7   6 C        3.782     0.066    19.497     6.290
     8   6 C        3.878    -0.031    21.072     6.527
     9   6 C        3.806    -0.078    21.983     6.675
    10   6 C        3.096     0.042    26.936     8.506
    11   6 C        3.077    -0.023    28.483     8.750
    12   7 N        2.859     0.062    20.158     6.668
    13   6 C        3.084     0.042    26.956     8.511
    14   7 N        2.866     0.052    20.333     6.697
    15   6 C        3.691    -0.084    22.291     6.756
    16   6 C        3.747    -0.025    21.092     6.551
    17   6 C        2.975    -0.013    28.333     8.731
    18   6 C        2.923    -0.039    28.962     8.825
    19   6 C        2.919    -0.028    28.689     8.783
    20   6 C        2.919    -0.022    28.560     8.764
    21   6 C        2.926    -0.034    28.837     8.806
    22   6 C        2.967     0.013    27.726     8.637
    23   6 C        3.757    -0.115    22.747     6.800
    24   1 H        0.925     0.044     2.398     2.421
    25   1 H        0.925     0.054     2.273     2.358
    26   1 H        0.925     0.066     2.135     2.285
    27   1 H        0.924     0.044     2.396     2.420
    28   1 H        0.924     0.043     2.407     2.426
    29   1 H        0.924     0.079     1.991     2.207
    30   1 H        0.924     0.063     2.169     2.303
    31   1 H        0.924     0.048     2.345     2.395
    32   1 H        0.925     0.058     2.228     2.334
    33   1 H        0.924     0.086     1.921     2.167
    34   1 H        0.924     0.079     1.985     2.203
    35   1 H        0.926     0.101     1.775     2.084
    36   1 H        0.926     0.106     1.728     2.056
    37   1 H        0.924     0.120     1.615     1.988
    38   1 H        0.925     0.094     1.839     2.121
    39   1 H        0.924     0.099     1.796     2.096
    40   1 H        0.924     0.087     1.910     2.161
    41   1 H        0.924     0.083     1.947     2.182
    42   1 H        0.926     0.040     2.448     2.447
    43   1 H        0.926     0.055     2.257     2.349
    44   1 H        0.926     0.058     2.225     2.332
    45   1 H        0.926     0.054     2.276     2.359
    46   1 H        0.925     0.063     2.163     2.300
    47   1 H        0.924     0.032     2.555     2.500
    48   1 H        0.925     0.049     2.326     2.385

Wiberg/Mayer (AO) data.
largest (>0.10) Wiberg bond orders for each atom

     #   Z sym  total        # sym  WBO       # sym  WBO       # sym  WBO
 ---------------------------------------------------------------------------
     1   6 C    3.990 --     2 C    1.017    24 H    0.987    25 H    0.985
                            26 H    0.983
     2   6 C    3.991 --     1 C    1.017     3 C    0.991    28 H    0.976
                            27 H    0.975
     3   6 C    3.987 --     2 C    0.991     8 C    0.979     4 C    0.949
                            29 H    0.934
     4   6 C    3.912 --     5 O    1.824     6 O    1.075     3 C    0.949
     5   8 O    2.112 --     4 C    1.824     6 O    0.159
     6   8 O    2.278 --     4 C    1.075     7 C    0.963     5 O    0.159
     7   6 C    3.939 --     8 C    0.989    31 H    0.969    30 H    0.966
                             6 O    0.963
     8   6 C    3.991 --     7 C    0.989     3 C    0.979    32 H    0.969
                             9 C    0.968
     9   6 C    3.985 --    10 C    1.028     8 C    0.968    34 H    0.962
                            33 H    0.958
    10   6 C    3.952 --    11 C    1.546    14 N    1.194     9 C    1.028
    11   6 C    3.945 --    10 C    1.546    12 N    1.224    35 H    0.961
    12   7 N    3.715 --    13 C    1.367    11 C    1.224    16 C    0.954
    13   6 C    3.945 --    12 N    1.367    14 N    1.348    36 H    0.954
    14   7 N    3.702 --    13 C    1.348    10 C    1.194    15 C    0.989
    15   6 C    3.931 --    14 N    0.989    38 H    0.975    39 H    0.961
                            37 H    0.954
    16   6 C    3.934 --    17 C    0.990    41 H    0.958    12 N    0.954
                            40 H    0.951
    17   6 C    3.974 --    18 C    1.415    22 C    1.383    16 C    0.990
                            20 C    0.106
    18   6 C    3.990 --    19 C    1.443    17 C    1.415    42 H    0.967
                            21 C    0.109
    19   6 C    3.990 --    18 C    1.443    20 C    1.434    43 H    0.969
                            22 C    0.107
    20   6 C    3.989 --    21 C    1.445    19 C    1.434    44 H    0.969
                            17 C    0.106
    21   6 C    3.990 --    20 C    1.445    22 C    1.414    45 H    0.967
                            18 C    0.109
    22   6 C    3.989 --    21 C    1.414    17 C    1.383    23 C    1.027
                            19 C    0.107
    23   6 C    3.994 --    22 C    1.027    46 H    0.982    47 H    0.972
                            48 H    0.970
    24   1 H    0.998 --     1 C    0.987
    25   1 H    0.997 --     1 C    0.985
    26   1 H    0.996 --     1 C    0.983
    27   1 H    0.998 --     2 C    0.975
    28   1 H    0.998 --     2 C    0.976
    29   1 H    0.992 --     3 C    0.934
    30   1 H    0.996 --     7 C    0.966
    31   1 H    0.997 --     7 C    0.969
    32   1 H    0.997 --     8 C    0.969
    33   1 H    0.993 --     9 C    0.958
    34   1 H    0.993 --     9 C    0.962
    35   1 H    0.989 --    11 C    0.961
    36   1 H    0.989 --    13 C    0.954
    37   1 H    0.985 --    15 C    0.954
    38   1 H    0.991 --    15 C    0.975
    39   1 H    0.990 --    15 C    0.961
    40   1 H    0.992 --    16 C    0.951
    41   1 H    0.992 --    16 C    0.958
    42   1 H    0.998 --    18 C    0.967
    43   1 H    0.996 --    19 C    0.969
    44   1 H    0.996 --    20 C    0.969
    45   1 H    0.997 --    21 C    0.967
    46   1 H    0.996 --    23 C    0.982
    47   1 H    0.999 --    23 C    0.972
    48   1 H    0.997 --    23 C    0.970
 ---------------------------------------------------------------------------

molecular dipole:
                 x           y           z       tot (Debye)
 q only:       -3.846      11.366       3.414
   full:       -3.905      11.734       3.348      32.564

           -------------------------------------------------
          | TOTAL ENERGY              -67.083475315461 Eh   |
          | GRADIENT NORM               0.000258349195 Eh/α |
          | HOMO-LUMO GAP               2.881696130138 eV   |
           -------------------------------------------------

 * finished run on 2024/12/20 at 07:11:47.571
