   * xtb version 6.7.1 (edcfbbe) compiled by 'conda@3ef47c1a292c' on 2024-11-25

   ID    Z sym.   atoms
    1    6 C      1, 3, 4, 6-10, 12, 13, 15, 16
    2    7 N      2, 5, 11, 14
    3    1 H      17-40

          program call               : xtb C1115.xyz --opt --namespace C1115 --charge +1
          :  Hamiltonian                  GFN2-xTB          :
 * total energy  :   -49.0445447 Eh     change       -0.9322321E-11 Eh
 * total energy  :   -49.0598464 Eh     change       -0.1530166E-01 Eh
 * total energy  :   -49.0624813 Eh     change       -0.2634934E-02 Eh
 * total energy  :   -49.0635229 Eh     change       -0.1041608E-02 Eh
 * total energy  :   -49.0644535 Eh     change       -0.9305121E-03 Eh
 * total energy  :   -49.0652385 Eh     change       -0.7850412E-03 Eh
 * total energy  :   -49.0662787 Eh     change       -0.1040183E-02 Eh
 * total energy  :   -49.0674647 Eh     change       -0.1186051E-02 Eh
 * total energy  :   -49.0682193 Eh     change       -0.7545702E-03 Eh
 * total energy  :   -49.0689767 Eh     change       -0.7574317E-03 Eh
 * total energy  :   -49.0759360 Eh     change       -0.1059781E-04 Eh
 * total energy  :   -49.0759466 Eh     change       -0.1063228E-04 Eh
 * total energy  :   -49.0759563 Eh     change       -0.9677675E-05 Eh
 * total energy  :   -49.0759655 Eh     change       -0.9227550E-05 Eh
 * total energy  :   -49.0759749 Eh     change       -0.9379113E-05 Eh
 * total energy  :   -49.0759840 Eh     change       -0.9126797E-05 Eh
 * total energy  :   -49.0759908 Eh     change       -0.6830082E-05 Eh
 * total energy  :   -49.0759934 Eh     change       -0.2573094E-05 Eh
 * total energy  :   -49.0759980 Eh     change       -0.4595181E-05 Eh
   *** GEOMETRY OPTIMIZATION CONVERGED AFTER 90 ITERATIONS ***

 final structure:
================
40
 xtb: 6.7.1 (edcfbbe)
C            1.05428504939161        0.06863399978179       -0.87264860723703
N            0.88883658319262       -1.29654943473220       -0.35574615293279
C           -0.21861802090727       -1.42617989536454        0.61235792159602
C           -0.75380014607016       -2.69429042798519        0.43997009323517
N           -0.23867963254710       -3.31686856177148       -0.71580893743972
C            0.53273412824118       -2.29626960358739       -1.39735174247646
C           -1.15262583647980       -4.07412604678491       -1.55321667174186
C           -0.41371474543475       -5.11187727275861       -2.39860847716039
C            0.35841656658065       -6.12163623505464       -1.54769284064392
C           -0.55878288452851       -7.14268666637726       -0.87265543798746
N           -1.35365625048386       -7.87003179514336       -1.84594615085500
C           -2.56436404766260       -8.45766202049817       -1.42308214812422
C           -2.73048593347575       -9.71494332064696       -1.98665967036756
N           -1.71943426621375       -9.82828270917188       -3.05443632361250
C           -0.65507387905024       -8.90920899776457       -2.57576111199765
C           -2.23546328402545       -9.43071875789810       -4.38870874548537
H            0.10784337253893        0.40493340074031       -1.29193141716454
H            1.82863270258191        0.10120559298670       -1.63735607411220
H            1.32603665925945        0.73476187993990       -0.05637069746104
H            1.78165242887147       -1.57971499145734        0.07521406055514
H           -0.11463178734431       -0.90289951361158        1.54235517314872
H           -1.54199434463760       -3.14746651042759        0.99864090726854
H            1.43220464287388       -2.71074362449883       -1.86217098207086
H           -0.07170537352204       -1.78667427585298       -2.16942664059571
H           -1.85592541780038       -4.57617250700239       -0.88965631883187
H           -1.72955459936580       -3.40780385811873       -2.21467112957118
H           -1.14727899446934       -5.64243175483618       -3.00625960826242
H            0.27751419435706       -4.60323949213547       -3.07276202374441
H            1.08162743847365       -6.64479401660042       -2.17576923291429
H            0.90941903383775       -5.59028606418059       -0.77120565345247
H            0.04750344344717       -7.82965059859213       -0.26082454720402
H           -1.25297206492833       -6.62932551650123       -0.20809427311026
H           -3.16199742563630       -7.99774367248969       -0.66816510258343
H           -3.65980266721484      -10.22773430307479       -2.13508926184259
H           -1.36949106904056      -10.78628850341235       -3.12587838137640
H           -0.09087338993103       -8.50119619542478       -3.41926953719864
H            0.03150290928216       -9.47048072385957       -1.91653890981790
H           -1.45640962562269       -9.50847942874766       -5.14567455850851
H           -3.06796409768563      -10.07668327340470       -4.65900938584597
H           -2.58937936886603       -8.40440430367315       -4.32230140208496

          :  Hamiltonian                  GFN2-xTB          :
         :: total energy             -49.075998004787 Eh    ::
         :: gradient norm              0.000615691640 Eh/a0 ::
         :: HOMO-LUMO gap              0.007830114864 eV    ::
         :: SCC energy               -49.722491239139 Eh    ::
         :: -> dispersion             -0.033224277557 Eh    ::
         :: repulsion energy           0.646493234352 Eh    ::

    * Orbital Energies and Occupations

         #    Occupation            Energy/Eh            Energy/eV
      -------------------------------------------------------------
         1        2.0000           -0.8152071             -22.1829
       ...           ...                  ...                  ...
        34        2.0000           -0.5774916             -15.7143
        35        2.0000           -0.5707358             -15.5305
        36        2.0000           -0.5686521             -15.4738
        37        2.0000           -0.5592201             -15.2172
        38        2.0000           -0.5561486             -15.1336
        39        2.0000           -0.5432138             -14.7816
        40        2.0000           -0.5396749             -14.6853
        41        2.0000           -0.5349025             -14.5554
        42        2.0000           -0.5138193             -13.9817
        43        2.0000           -0.5125100             -13.9461
        44        2.0000           -0.4507264             -12.2649
        45        2.0000           -0.4495973             -12.2342
        46        0.5378           -0.3024589              -8.2303 (HOMO)
        47        0.4622           -0.3021712              -8.2225 (LUMO)
        48                         -0.1711675              -4.6577
        49                         -0.1694144              -4.6100
        50                         -0.1069735              -2.9109
        51                         -0.1045462              -2.8448
        52                         -0.0932524              -2.5375
        53                         -0.0908844              -2.4731
        54                         -0.0745965              -2.0299
        55                         -0.0672559              -1.8301
        56                         -0.0555319              -1.5111
        57                         -0.0469300              -1.2770
       ...                                ...                  ...
        88                          0.4383858              11.9291
      -------------------------------------------------------------
                  HL-Gap            0.0002878 Eh            0.0078 eV

     #   Z          covCN         q      C6AA      α(0)
     1   6 C        3.693    -0.082    22.259     6.750
     2   7 N        3.607     0.057    20.241     6.682
     3   6 C        2.887    -0.128    31.272     9.168
     4   6 C        2.917    -0.045    29.118     8.849
     5   7 N        2.753    -0.136    23.951     7.269
     6   6 C        3.787     0.053    19.695     6.321
     7   6 C        3.747    -0.003    20.697     6.489
     8   6 C        3.802    -0.071    21.857     6.656
     9   6 C        3.802    -0.071    21.863     6.657
    10   6 C        3.746    -0.003    20.708     6.491
    11   7 N        2.756    -0.134    23.900     7.261
    12   6 C        2.921    -0.044    29.095     8.845
    13   6 C        2.895    -0.128    31.268     9.168
    14   7 N        3.610     0.053    20.315     6.694
    15   6 C        3.797     0.054    19.677     6.316
    16   6 C        3.693    -0.084    22.295     6.756
    17   1 H        0.925     0.100     1.783     2.088
    18   1 H        0.925     0.079     1.986     2.204
    19   1 H        0.925     0.097     1.815     2.107
    20   1 H        0.859     0.195     1.132     1.667
    21   1 H        0.926     0.036     2.497     2.471
    22   1 H        0.927     0.044     2.398     2.421
    23   1 H        0.924     0.062     2.177     2.307
    24   1 H        0.922     0.064     2.158     2.298
    25   1 H        0.925     0.063     2.163     2.300
    26   1 H        0.923     0.026     2.642     2.542
    27   1 H        0.924     0.055     2.256     2.349
    28   1 H        0.924     0.036     2.498     2.472
    29   1 H        0.924     0.037     2.493     2.469
    30   1 H        0.924     0.056     2.245     2.343
    31   1 H        0.923     0.027     2.637     2.539
    32   1 H        0.925     0.062     2.174     2.306
    33   1 H        0.927     0.042     2.423     2.434
    34   1 H        0.926     0.037     2.489     2.467
    35   1 H        0.859     0.201     1.102     1.645
    36   1 H        0.924     0.069     2.095     2.264
    37   1 H        0.922     0.057     2.234     2.337
    38   1 H        0.925     0.076     2.018     2.221
    39   1 H        0.925     0.092     1.860     2.133
    40   1 H        0.925     0.100     1.782     2.088

Wiberg/Mayer (AO) data.
largest (>0.10) Wiberg bond orders for each atom

     #   Z sym  total        # sym  WBO       # sym  WBO       # sym  WBO
 ---------------------------------------------------------------------------
     1   6 C    3.935 --    18 H    0.980    19 H    0.976    17 H    0.976
                             2 N    0.970
     2   7 N    3.763 --     1 C    0.970     6 C    0.947    20 H    0.919
                             3 C    0.886
     3   6 C    3.474 --     4 C    1.490    21 H    0.966     2 N    0.886
     4   6 C    3.595 --     3 C    1.490     5 N    1.071    22 H    0.969
     5   7 N    3.227 --     4 C    1.071     6 C    1.012     7 C    0.985
     6   6 C    3.947 --     5 N    1.012    23 H    0.969    24 H    0.956
                             2 N    0.947
     7   6 C    3.971 --     8 C    1.003     5 N    0.985    25 H    0.967
                            26 H    0.963
     8   6 C    3.996 --     9 C    1.008     7 C    1.003    28 H    0.977
                            27 H    0.972
     9   6 C    3.995 --     8 C    1.008    10 C    1.003    29 H    0.977
                            30 H    0.972
    10   6 C    3.972 --     9 C    1.003    11 N    0.986    32 H    0.968
                            31 H    0.963
    11   7 N    3.228 --    12 C    1.070    15 C    1.013    10 C    0.986
    12   6 C    3.596 --    13 C    1.489    11 N    1.070    33 H    0.969
    13   6 C    3.482 --    12 C    1.489    34 H    0.966    14 N    0.890
    14   7 N    3.759 --    15 C    0.950    16 C    0.949    35 H    0.930
                            13 C    0.890
    15   6 C    3.947 --    11 N    1.013    36 H    0.965    37 H    0.958
                            14 N    0.950
    16   6 C    3.929 --    38 H    0.979    40 H    0.978    39 H    0.978
                            14 N    0.949
    17   1 H    0.990 --     1 C    0.976
    18   1 H    0.993 --     1 C    0.980
    19   1 H    0.990 --     1 C    0.976
    20   1 H    0.955 --     2 N    0.919
    21   1 H    0.993 --     3 C    0.966
    22   1 H    0.998 --     4 C    0.969
    23   1 H    0.996 --     6 C    0.969
    24   1 H    0.994 --     6 C    0.956
    25   1 H    0.996 --     7 C    0.967
    26   1 H    0.997 --     7 C    0.963
    27   1 H    0.996 --     8 C    0.972
    28   1 H    0.999 --     8 C    0.977
    29   1 H    0.999 --     9 C    0.977
    30   1 H    0.996 --     9 C    0.972
    31   1 H    0.997 --    10 C    0.963
    32   1 H    0.996 --    10 C    0.968
    33   1 H    0.998 --    12 C    0.969
    34   1 H    0.994 --    13 C    0.966
    35   1 H    0.959 --    14 N    0.930
    36   1 H    0.995 --    15 C    0.965
    37   1 H    0.995 --    15 C    0.958
    38   1 H    0.993 --    16 C    0.979
    39   1 H    0.991 --    16 C    0.978
    40   1 H    0.990 --    16 C    0.978
 ---------------------------------------------------------------------------

molecular dipole:
                 x           y           z       tot (Debye)
 q only:        0.084     -10.053      -4.488
   full:        0.490     -10.260      -4.623      28.631

           -------------------------------------------------
          | TOTAL ENERGY              -49.075998004787 Eh   |
          | GRADIENT NORM               0.000615691640 Eh/α |
          | HOMO-LUMO GAP               0.007830114864 eV   |
           -------------------------------------------------

 * finished run on 2024/12/20 at 07:11:42.294
