   * xtb version 6.7.1 (edcfbbe) compiled by 'conda@3ef47c1a292c' on 2024-11-25

   ID    Z sym.   atoms
    1    7 N      1, 6, 9, 15
    2    6 C      2-5, 7, 8, 10-14
    3    1 H      16-30

          program call               : xtb C1118.xyz --opt --namespace C1118 --charge +1
          :  Hamiltonian                  GFN2-xTB          :
 * total energy  :   -42.3612821 Eh     change       -0.1865011E-08 Eh
 * total energy  :   -42.4280587 Eh     change       -0.6677659E-01 Eh
 * total energy  :   -42.4366629 Eh     change       -0.8604206E-02 Eh
 * total energy  :   -42.4401208 Eh     change       -0.3457922E-02 Eh
 * total energy  :   -42.4404978 Eh     change       -0.3770022E-03 Eh
 * total energy  :   -42.4438433 Eh     change       -0.3345531E-02 Eh
 * total energy  :   -42.4452994 Eh     change       -0.1456074E-02 Eh
 * total energy  :   -42.4468416 Eh     change       -0.1542232E-02 Eh
 * total energy  :   -42.4479561 Eh     change       -0.1114498E-02 Eh
 * total energy  :   -42.4491424 Eh     change       -0.1186267E-02 Eh
 * total energy  :   -42.4626137 Eh     change       -0.2369056E-04 Eh
 * total energy  :   -42.4626275 Eh     change       -0.1377229E-04 Eh
 * total energy  :   -42.4626420 Eh     change       -0.1445347E-04 Eh
 * total energy  :   -42.4626582 Eh     change       -0.1626413E-04 Eh
 * total energy  :   -42.4626694 Eh     change       -0.1120742E-04 Eh
 * total energy  :   -42.4626811 Eh     change       -0.1161841E-04 Eh
 * total energy  :   -42.4626910 Eh     change       -0.9885461E-05 Eh
 * total energy  :   -42.4626979 Eh     change       -0.6921573E-05 Eh
 * total energy  :   -42.4627013 Eh     change       -0.3449536E-05 Eh
   *** GEOMETRY OPTIMIZATION CONVERGED AFTER 67 ITERATIONS ***

 final structure:
================
30
 xtb: 6.7.1 (edcfbbe)
N            2.40571567060578       -0.18125870012307       -1.50849244935854
C            2.77388967442337       -0.16280341110327       -0.42561533074696
C            3.28006078909288       -0.20543208268377        0.91782664709715
C            4.62152592471211       -0.95067850333976        0.98529605669248
C            4.51253038137255       -2.43653973167541        0.62085775607505
N            4.22557677309681       -2.63204565812280       -0.78488661120818
C            3.07829067012576       -3.12768849864289       -1.32634360159044
C            3.20566220915112       -3.05813168462398       -2.67960070044226
N            4.43012152338208       -2.52276843135931       -2.94321421606347
C            5.03082342960174       -2.28127135888554       -1.78384018055814
C            4.97829720538106       -2.23133158937404       -4.24965117850248
C            4.23357402650553       -1.10106890910151       -4.97458216673269
C            4.05738885177641        0.17945732732053       -4.13710658967060
C            5.13596135686528        0.39353521898154       -3.21394373942076
N            5.96218833858650        0.48135202557354       -2.42699257920350
H            3.41689063288017        0.82379508438380        1.26227032781540
H            2.53363227715672       -0.68091053439280        1.56123859602499
H            5.34040388526599       -0.45965609183042        0.32680760439679
H            4.99963478575112       -0.88408754239114        2.00515582084152
H            5.45890506937106       -2.93165183507914        0.85523166249225
H            3.71795117773280       -2.91528538845494        1.19709788603751
H            2.26203066098239       -3.48404446679694       -0.73234269220282
H            2.52189392527036       -3.34763672502434       -3.45085038884971
H            6.00972988619764       -1.85506182255705       -1.67227348090815
H            6.02605622050579       -1.95593224248394       -4.11209259250224
H            4.93149099874433       -3.13711505899059       -4.86040384957758
H            4.80992363350564       -0.87800784710245       -5.87342627909320
H            3.24742371277868       -1.44302158880531       -5.28958813200438
H            3.97135139655949        1.04675291476920       -4.79435818639638
H            3.14612491261199        0.12621713191479       -3.53115741243596

          :  Hamiltonian                  GFN2-xTB          :
         :: total energy             -42.462701323315 Eh    ::
         :: gradient norm              0.000987791298 Eh/a0 ::
         :: HOMO-LUMO gap              3.774164651527 eV    ::
         :: SCC energy               -43.187609936244 Eh    ::
         :: -> dispersion             -0.029737502351 Eh    ::
         :: repulsion energy           0.724908612929 Eh    ::

    * Orbital Energies and Occupations

         #    Occupation            Energy/Eh            Energy/eV
      -------------------------------------------------------------
         1        2.0000           -0.8922132             -24.2784
       ...           ...                  ...                  ...
        27        2.0000           -0.6295892             -17.1320
        28        2.0000           -0.6227474             -16.9458
        29        2.0000           -0.6151376             -16.7387
        30        2.0000           -0.6087458             -16.5648
        31        2.0000           -0.6058572             -16.4862
        32        2.0000           -0.6012061             -16.3596
        33        2.0000           -0.5891421             -16.0314
        34        2.0000           -0.5850372             -15.9197
        35        2.0000           -0.5824942             -15.8505
        36        2.0000           -0.5790232             -15.7560
        37        2.0000           -0.5691538             -15.4875
        38        2.0000           -0.5532569             -15.0549
        39        2.0000           -0.5437981             -14.7975 (HOMO)
        40                         -0.4051001             -11.0233 (LUMO)
        41                         -0.3682528             -10.0207
        42                         -0.3390723              -9.2266
        43                         -0.3330777              -9.0635
        44                         -0.3276976              -8.9171
        45                         -0.3197487              -8.7008
        46                         -0.1884221              -5.1272
        47                         -0.1361049              -3.7036
        48                         -0.0805422              -2.1917
        49                         -0.0738637              -2.0099
        50                         -0.0557069              -1.5159
       ...                                ...                  ...
        75                          1.0217149              27.8023
      -------------------------------------------------------------
                  HL-Gap            0.1386980 Eh            3.7742 eV

     #   Z          covCN         q      C6AA      α(0)
     1   7 N        0.911    -0.262    26.788     7.486
     2   6 C        1.898     0.123    28.082     8.558
     3   6 C        3.803    -0.064    21.735     6.637
     4   6 C        3.807    -0.067    21.776     6.643
     5   6 C        3.741    -0.026    21.121     6.557
     6   7 N        2.870     0.063    20.141     6.665
     7   6 C        3.073    -0.003    28.013     8.678
     8   6 C        3.073    -0.002    27.988     8.674
     9   7 N        2.870     0.072    19.992     6.641
    10   6 C        3.102     0.049    26.767     8.478
    11   6 C        3.741    -0.026    21.117     6.556
    12   6 C        3.804    -0.063    21.701     6.632
    13   6 C        3.803    -0.075    21.926     6.666
    14   6 C        1.895     0.119    28.180     8.573
    15   7 N        0.911    -0.259    26.731     7.478
    16   1 H        0.924     0.102     1.763     2.077
    17   1 H        0.924     0.089     1.894     2.152
    18   1 H        0.924     0.076     2.025     2.225
    19   1 H        0.925     0.085     1.926     2.170
    20   1 H        0.924     0.092     1.864     2.135
    21   1 H        0.924     0.092     1.861     2.133
    22   1 H        0.926     0.106     1.731     2.058
    23   1 H        0.926     0.112     1.679     2.026
    24   1 H        0.926     0.125     1.572     1.961
    25   1 H        0.924     0.089     1.893     2.152
    26   1 H        0.924     0.093     1.852     2.128
    27   1 H        0.924     0.080     1.978     2.199
    28   1 H        0.924     0.070     2.081     2.256
    29   1 H        0.924     0.099     1.798     2.097
    30   1 H        0.924     0.111     1.686     2.030

Wiberg/Mayer (AO) data.
largest (>0.10) Wiberg bond orders for each atom

     #   Z sym  total        # sym  WBO       # sym  WBO       # sym  WBO
 ---------------------------------------------------------------------------
     1   7 N    3.009 --     2 C    2.827
     2   6 C    3.942 --     1 N    2.827     3 C    1.065
     3   6 C    3.993 --     2 C    1.065     4 C    0.980    17 H    0.939
                            16 H    0.934
     4   6 C    3.985 --     5 C    0.993     3 C    0.980    18 H    0.971
                            19 H    0.966
     5   6 C    3.941 --     4 C    0.993     6 N    0.969    21 H    0.967
                            20 H    0.959
     6   7 N    3.711 --    10 C    1.359     7 C    1.225     5 C    0.969
     7   6 C    3.949 --     8 C    1.594     6 N    1.225    22 H    0.961
     8   6 C    3.948 --     7 C    1.594     9 N    1.225    23 H    0.960
     9   7 N    3.719 --    10 C    1.370     8 C    1.225    11 C    0.969
    10   6 C    3.946 --     9 N    1.370     6 N    1.359    24 H    0.947
    11   6 C    3.940 --    12 C    0.990     9 N    0.969    25 H    0.967
                            26 H    0.958
    12   6 C    3.985 --    11 C    0.990    13 C    0.978    28 H    0.974
                            27 H    0.969
    13   6 C    3.990 --    14 C    1.066    12 C    0.978    29 H    0.938
                            30 H    0.919
    14   6 C    3.943 --    15 N    2.827    13 C    1.066
    15   7 N    3.000 --    14 C    2.827
    16   1 H    0.989 --     3 C    0.934
    17   1 H    0.992 --     3 C    0.939
    18   1 H    0.994 --     4 C    0.971
    19   1 H    0.992 --     4 C    0.966
    20   1 H    0.991 --     5 C    0.959
    21   1 H    0.991 --     5 C    0.967
    22   1 H    0.989 --     7 C    0.961
    23   1 H    0.987 --     8 C    0.960
    24   1 H    0.984 --    10 C    0.947
    25   1 H    0.992 --    11 C    0.967
    26   1 H    0.991 --    11 C    0.958
    27   1 H    0.993 --    12 C    0.969
    28   1 H    0.995 --    12 C    0.974
    29   1 H    0.990 --    13 C    0.938
    30   1 H    0.988 --    13 C    0.919
 ---------------------------------------------------------------------------

molecular dipole:
                 x           y           z       tot (Debye)
 q only:        7.796      -4.459      -3.227
   full:        7.648      -4.462      -3.077      23.826

           -------------------------------------------------
          | TOTAL ENERGY              -42.462701323315 Eh   |
          | GRADIENT NORM               0.000987791298 Eh/α |
          | HOMO-LUMO GAP               3.774164651527 eV   |
           -------------------------------------------------

 * finished run on 2024/12/20 at 07:11:45.310
