   * xtb version 6.7.1 (edcfbbe) compiled by 'conda@3ef47c1a292c' on 2024-11-25

   ID    Z sym.   atoms
    1    6 C      1, 3, 4
    2   16 S      2
    3    1 H      5-13

          program call               : xtb C1112.xyz --opt --namespace C1112 --charge +1
          :  Hamiltonian                  GFN2-xTB          :
 * total energy  :   -13.8069634 Eh     change       -0.1015898E-10 Eh
 * total energy  :   -13.8085843 Eh     change       -0.1620950E-02 Eh
 * total energy  :   -13.8087687 Eh     change       -0.1843491E-03 Eh
 * total energy  :   -13.8087791 Eh     change       -0.1039034E-04 Eh
 * total energy  :   -13.8087805 Eh     change       -0.1403118E-05 Eh
   *** GEOMETRY OPTIMIZATION CONVERGED AFTER 5 ITERATIONS ***

 final structure:
================
13
 xtb: 6.7.1 (edcfbbe)
C            1.04798342442677       -0.05533781607523       -0.03757972844657
S            0.57353322613124       -1.72730112077775       -0.54071443535754
C           -1.21707138003466       -1.51680424824104       -0.69281516260257
C            1.04798097281695       -1.68009497418138       -2.28610261929566
H            0.69008550679090        0.11194558843645        0.97476313818267
H            0.62808258536074        0.68601050669494       -0.71049817635545
H            2.13283496627230        0.00793570167916       -0.04009860397287
H           -1.45533514393997       -0.65825887201629       -1.31318887481478
H           -1.63215478708378       -2.42132351321943       -1.12923633518263
H           -1.63215355194535       -1.38641823637787        0.30298555666194
H            0.62807936494169       -0.80845633693653       -2.77870994155459
H            2.13283240536778       -1.65783903727464       -2.34538787763997
H            0.69008241089539       -2.58873764171039       -2.76274693962200

          :  Hamiltonian                  GFN2-xTB          :
         :: total energy             -13.808780460847 Eh    ::
         :: gradient norm              0.000082020256 Eh/a0 ::
         :: HOMO-LUMO gap              6.322862483915 eV    ::
         :: SCC energy               -13.988418402380 Eh    ::
         :: -> dispersion             -0.005970752758 Eh    ::
         :: repulsion energy           0.179637941532 Eh    ::

    * Orbital Energies and Occupations

         #    Occupation            Energy/Eh            Energy/eV
      -------------------------------------------------------------
         1        2.0000           -0.9543120             -25.9682
         2        2.0000           -0.7995221             -21.7561
         3        2.0000           -0.7995221             -21.7561
         4        2.0000           -0.7850760             -21.3630
         5        2.0000           -0.7088774             -19.2895
         6        2.0000           -0.7084025             -19.2766
         7        2.0000           -0.7084025             -19.2766
         8        2.0000           -0.6777814             -18.4434
         9        2.0000           -0.6777814             -18.4434
        10        2.0000           -0.6656024             -18.1120
        11        2.0000           -0.6537657             -17.7899
        12        2.0000           -0.6537657             -17.7899
        13        2.0000           -0.6330375             -17.2258 (HOMO)
        14                         -0.4006766             -10.9030 (LUMO)
        15                         -0.4006765             -10.9030
        16                         -0.2799743              -7.6185
        17                         -0.2079154              -5.6577
        18                         -0.2079154              -5.6577
        19                         -0.1531040              -4.1662
        20                         -0.0564162              -1.5352
        21                         -0.0174978              -0.4761
        22                         -0.0174978              -0.4761
        23                          0.0258251               0.7027
        24                          0.0258251               0.7027
       ...                                ...                  ...
        30                          0.2235929               6.0843
      -------------------------------------------------------------
                  HL-Gap            0.2323609 Eh            6.3229 eV

     #   Z          covCN         q      C6AA      α(0)
     1   6 C        3.745    -0.141    23.297     6.885
     2  16 S        2.911     0.388   126.218    18.909
     3   6 C        3.745    -0.141    23.297     6.885
     4   6 C        3.745    -0.141    23.297     6.885
     5   1 H        0.925     0.117     1.637     2.001
     6   1 H        0.925     0.111     1.689     2.032
     7   1 H        0.925     0.117     1.637     2.001
     8   1 H        0.925     0.111     1.689     2.032
     9   1 H        0.925     0.117     1.637     2.001
    10   1 H        0.925     0.117     1.637     2.001
    11   1 H        0.925     0.111     1.689     2.032
    12   1 H        0.925     0.117     1.637     2.001
    13   1 H        0.925     0.117     1.637     2.001

Wiberg/Mayer (AO) data.
largest (>0.10) Wiberg bond orders for each atom

     #   Z sym  total        # sym  WBO       # sym  WBO       # sym  WBO
 ---------------------------------------------------------------------------
     1   6 C    3.942 --     2 S    1.000     6 H    0.968     5 H    0.965
                             7 H    0.965
     2  16 S    3.107 --     3 C    1.000     1 C    1.000     4 C    1.000
     3   6 C    3.942 --     2 S    1.000     8 H    0.968    10 H    0.965
                             9 H    0.965
     4   6 C    3.942 --     2 S    1.000    11 H    0.968    13 H    0.965
                            12 H    0.965
     5   1 H    0.986 --     1 C    0.965
     6   1 H    0.988 --     1 C    0.968
     7   1 H    0.986 --     1 C    0.965
     8   1 H    0.988 --     3 C    0.968
     9   1 H    0.986 --     3 C    0.965
    10   1 H    0.986 --     3 C    0.965
    11   1 H    0.988 --     4 C    0.968
    12   1 H    0.986 --     4 C    0.965
    13   1 H    0.986 --     4 C    0.965
 ---------------------------------------------------------------------------

molecular dipole:
                 x           y           z       tot (Debye)
 q only:        0.672      -2.319      -1.705
   full:        0.604      -2.165      -1.816       7.345

           -------------------------------------------------
          | TOTAL ENERGY              -13.808780460847 Eh   |
          | GRADIENT NORM               0.000082020256 Eh/α |
          | HOMO-LUMO GAP               6.322862483915 eV   |
           -------------------------------------------------

 * finished run on 2024/12/20 at 07:11:35.390
