   * xtb version 6.7.1 (edcfbbe) compiled by 'conda@3ef47c1a292c' on 2024-11-25

   ID    Z sym.   atoms
    1    6 C      1, 4
    2    7 N      2, 3, 5, 6
    3    1 H      7-11

          program call               : xtb C1110.xyz --opt --namespace C1110 --charge +1
          :  Hamiltonian                  GFN2-xTB          :
 * total energy  :   -17.9753764 Eh     change       -0.4909140E-10 Eh
 * total energy  :   -17.9808396 Eh     change       -0.5463266E-02 Eh
 * total energy  :   -17.9821269 Eh     change       -0.1287321E-02 Eh
 * total energy  :   -17.9822072 Eh     change       -0.8025766E-04 Eh
 * total energy  :   -17.9822422 Eh     change       -0.3499538E-04 Eh
 * total energy  :   -17.9822456 Eh     change       -0.3365709E-05 Eh
   *** GEOMETRY OPTIMIZATION CONVERGED AFTER 6 ITERATIONS ***

 final structure:
================
11
 xtb: 6.7.1 (edcfbbe)
C           -1.14284069614483        0.10666084850552        0.02598923984600
N           -0.33803037409793        1.09930782058591        0.12044129178021
N            0.92512829217865        0.64485304607509        0.11111309506234
C            0.91227986138881       -0.63220018198125        0.01135407867735
N           -0.40524877521858       -1.06895365492472       -0.04874428842992
N           -0.88947578401399       -2.40771605419797       -0.17313236298326
H           -2.21136005377731        0.15305656712005        0.00773847588470
H            1.76580835494383       -1.27647727857861       -0.02045115434834
H           -1.31784408270293       -2.57682186047582       -1.10610097044998
H           -0.10007950658594       -3.07129588902300       -0.05405593250416
H           -1.60092723596979       -2.61694336310519        0.55539852746505

          :  Hamiltonian                  GFN2-xTB          :
         :: total energy             -17.982245565587 Eh    ::
         :: gradient norm              0.000696211996 Eh/a0 ::
         :: HOMO-LUMO gap              3.405945709895 eV    ::
         :: SCC energy               -18.197508419521 Eh    ::
         :: -> dispersion             -0.005755570544 Eh    ::
         :: repulsion energy           0.215262853934 Eh    ::

    * Orbital Energies and Occupations

         #    Occupation            Energy/Eh            Energy/eV
      -------------------------------------------------------------
         1        2.0000           -0.9767373             -26.5784
       ...           ...                  ...                  ...
         4        2.0000           -0.8804151             -23.9573
         5        2.0000           -0.8671132             -23.5954
         6        2.0000           -0.8231557             -22.3992
         7        2.0000           -0.8095045             -22.0277
         8        2.0000           -0.7716991             -20.9990
         9        2.0000           -0.7631733             -20.7670
        10        2.0000           -0.7406566             -20.1543
        11        2.0000           -0.6952691             -18.9192
        12        2.0000           -0.6904870             -18.7891
        13        2.0000           -0.6421850             -17.4747
        14        2.0000           -0.6104066             -16.6100
        15        2.0000           -0.5865004             -15.9595
        16        2.0000           -0.5431572             -14.7801 (HOMO)
        17                         -0.4179910             -11.3741 (LUMO)
        18                         -0.3743307             -10.1861
        19                         -0.3649051              -9.9296
        20                         -0.2622578              -7.1364
        21                         -0.1767183              -4.8088
        22                         -0.1434127              -3.9025
        23                         -0.0960873              -2.6147
        24                         -0.0929107              -2.5282
        25                         -0.0140539              -0.3824
        26                          0.0748213               2.0360
        27                          0.1836990               4.9987
       ...                                ...                  ...
        29                          0.3599164               9.7938
      -------------------------------------------------------------
                  HL-Gap            0.1251662 Eh            3.4059 eV

     #   Z          covCN         q      C6AA      α(0)
     1   6 C        3.043     0.071    26.374     8.423
     2   7 N        2.081    -0.085    23.513     7.193
     3   7 N        2.081    -0.085    23.510     7.193
     4   6 C        3.043     0.072    26.361     8.421
     5   7 N        2.907     0.006    21.153     6.831
     6   7 N        3.552    -0.045    22.106     6.983
     7   1 H        0.927     0.097     1.808     2.103
     8   1 H        0.927     0.096     1.823     2.111
     9   1 H        0.858     0.289     0.748     1.355
    10   1 H        0.858     0.294     0.732     1.340
    11   1 H        0.858     0.291     0.742     1.350

Wiberg/Mayer (AO) data.
largest (>0.10) Wiberg bond orders for each atom

     #   Z sym  total        # sym  WBO       # sym  WBO       # sym  WBO
 ---------------------------------------------------------------------------
     1   6 C    3.937 --     2 N    1.681     5 N    1.129     7 H    0.957
                             4 C    0.105
     2   7 N    3.094 --     1 C    1.681     3 N    1.220     5 N    0.113
     3   7 N    3.096 --     4 C    1.680     2 N    1.220     5 N    0.115
     4   6 C    3.938 --     3 N    1.680     5 N    1.129     8 H    0.956
                             1 C    0.105
     5   7 N    3.466 --     1 C    1.129     4 C    1.129     6 N    0.963
                             3 N    0.115     2 N    0.113
     6   7 N    3.706 --     5 N    0.963    11 H    0.894    10 H    0.894
                             9 H    0.894
     7   1 H    0.991 --     1 C    0.957
     8   1 H    0.991 --     4 C    0.956
     9   1 H    0.917 --     6 N    0.894
    10   1 H    0.914 --     6 N    0.894
    11   1 H    0.916 --     6 N    0.894
 ---------------------------------------------------------------------------

molecular dipole:
                 x           y           z       tot (Debye)
 q only:       -1.794      -4.910      -0.349
   full:       -2.138      -5.879      -0.435      15.940

           -------------------------------------------------
          | TOTAL ENERGY              -17.982245565587 Eh   |
          | GRADIENT NORM               0.000696211996 Eh/α |
          | HOMO-LUMO GAP               3.405945709895 eV   |
           -------------------------------------------------

 * finished run on 2024/12/20 at 07:11:31.513
