   * xtb version 6.7.1 (edcfbbe) compiled by 'conda@3ef47c1a292c' on 2024-11-25

   ID    Z sym.   atoms
    1    8 O      1
    2    6 C      2, 3, 5, 6, 8-13
    3    7 N      4, 7
    4    1 H      14-32

          program call               : xtb C1117.xyz --opt --namespace C1117 --charge +1
          :  Hamiltonian                  GFN2-xTB          :
 * total energy  :   -40.6450276 Eh     change       -0.2684146E-09 Eh
 * total energy  :   -40.6499702 Eh     change       -0.4942653E-02 Eh
 * total energy  :   -40.6511088 Eh     change       -0.1138551E-02 Eh
 * total energy  :   -40.6512977 Eh     change       -0.1889221E-03 Eh
 * total energy  :   -40.6514144 Eh     change       -0.1166779E-03 Eh
 * total energy  :   -40.6514643 Eh     change       -0.4994965E-04 Eh
 * total energy  :   -40.6515395 Eh     change       -0.7519137E-04 Eh
 * total energy  :   -40.6516049 Eh     change       -0.6541019E-04 Eh
 * total energy  :   -40.6516687 Eh     change       -0.6376123E-04 Eh
 * total energy  :   -40.6517331 Eh     change       -0.6444380E-04 Eh
 * total energy  :   -40.6593632 Eh     change       -0.2105932E-04 Eh
 * total energy  :   -40.6593863 Eh     change       -0.2304077E-04 Eh
 * total energy  :   -40.6594084 Eh     change       -0.2210828E-04 Eh
 * total energy  :   -40.6594251 Eh     change       -0.1675282E-04 Eh
 * total energy  :   -40.6594364 Eh     change       -0.1126869E-04 Eh
 * total energy  :   -40.6594445 Eh     change       -0.8125472E-05 Eh
 * total energy  :   -40.6594456 Eh     change       -0.1060834E-05 Eh
 * total energy  :   -40.6594525 Eh     change       -0.6907787E-05 Eh
 * total energy  :   -40.6594541 Eh     change       -0.1593382E-05 Eh
   *** GEOMETRY OPTIMIZATION CONVERGED AFTER 60 ITERATIONS ***

 final structure:
================
32
 xtb: 6.7.1 (edcfbbe)
O            1.36105109327389        0.01750296472484        0.05534835045307
C            0.48643847167613        0.01406567476834        1.16246652357772
C            1.00533081890953       -1.03738398260105        2.16274251768152
N            2.45645201096344       -0.99287998296600        2.15427963624987
C            3.28204418576605       -2.05197087700351        1.94332012418686
C            4.56047743614412       -1.58432926346696        1.97282075497907
N            4.49379748665829       -0.24458558481176        2.20196888301223
C            3.21149064118629        0.09029744211935        2.30388109824833
C            5.61911021522467        0.66427099851027        2.22424913855390
C            5.96665030093735        1.11929582737821        0.81030676292465
C            0.46040805771983       -0.84614110659420        3.59274163909928
C           -1.06592758896151       -0.88031292760030        3.59365319501511
C            1.00529442950255       -1.93548187367161        4.51530972987930
H            0.93233801025583        0.44276687889800       -0.69419933002466
H            0.46064293300672        1.00736834459773        1.63331652026503
H           -0.53068786544560       -0.25562047464997        0.86596267799965
H            0.72855384352443       -2.03222126621148        1.80128784383811
H            2.91778682888296       -3.04653608831156        1.78738231259868
H            5.48913956813824       -2.10316529498239        1.85115740659416
H            2.84984937266710        1.08460541015456        2.47467990925516
H            5.35973662325024        1.52329667683576        2.84587241318092
H            6.46902471967875        0.14711990624211        2.67400606626988
H            5.12459106770090        1.63228447234866        0.35297826222239
H            6.80933660238516        1.80252904969048        0.84679713347685
H            6.23796168146167        0.27141241551459        0.18715584450662
H            0.79240499111132        0.13070009743792        3.96097721873393
H           -1.42905396813320       -1.80948381681238        3.16211168864629
H           -1.42972459795709       -0.81824748526415        4.61531019416661
H           -1.48658886099776       -0.04754574585248        3.03837995643197
H            2.09168201683835       -1.91783688092143        4.56984423894063
H            0.61974875989697       -1.79089744602528        5.52023047169385
H            0.68867071473407       -2.91793606147583        4.17390081734141

          :  Hamiltonian                  GFN2-xTB          :
         :: total energy             -40.659454101030 Eh    ::
         :: gradient norm              0.000334423544 Eh/a0 ::
         :: HOMO-LUMO gap              4.168018083468 eV    ::
         :: SCC energy               -41.223656960395 Eh    ::
         :: -> dispersion             -0.025540617712 Eh    ::
         :: repulsion energy           0.564202859365 Eh    ::

    * Orbital Energies and Occupations

         #    Occupation            Energy/Eh            Energy/eV
      -------------------------------------------------------------
         1        2.0000           -0.8819964             -24.0003
       ...           ...                  ...                  ...
        25        2.0000           -0.6229743             -16.9520
        26        2.0000           -0.6143991             -16.7186
        27        2.0000           -0.6070741             -16.5193
        28        2.0000           -0.5973150             -16.2538
        29        2.0000           -0.5962510             -16.2248
        30        2.0000           -0.5935418             -16.1511
        31        2.0000           -0.5852626             -15.9258
        32        2.0000           -0.5787414             -15.7484
        33        2.0000           -0.5766688             -15.6920
        34        2.0000           -0.5670283             -15.4296
        35        2.0000           -0.5596147             -15.2279
        36        2.0000           -0.5583684             -15.1940
        37        2.0000           -0.5480421             -14.9130 (HOMO)
        38                         -0.3948702             -10.7450 (LUMO)
        39                         -0.3587313              -9.7616
        40                         -0.1826220              -4.9694
        41                         -0.1308793              -3.5614
        42                         -0.1111220              -3.0238
        43                         -0.0642700              -1.7489
        44                         -0.0473650              -1.2889
        45                         -0.0461900              -1.2569
        46                         -0.0311758              -0.8483
        47                         -0.0259718              -0.7067
        48                         -0.0249503              -0.6789
       ...                                ...                  ...
        71                          0.4763197              12.9613
      -------------------------------------------------------------
                  HL-Gap            0.1531718 Eh            4.1680 eV

     #   Z          covCN         q      C6AA      α(0)
     1   8 O        1.656    -0.448    21.796     6.302
     2   6 C        3.676     0.073    19.576     6.339
     3   6 C        3.794     0.010    20.409     6.433
     4   7 N        2.874     0.080    19.848     6.617
     5   6 C        3.079    -0.003    28.019     8.678
     6   6 C        3.075    -0.007    28.115     8.694
     7   7 N        2.873     0.066    20.085     6.656
     8   6 C        3.105     0.055    26.626     8.455
     9   6 C        3.741    -0.022    21.035     6.544
    10   6 C        3.753    -0.124    22.940     6.830
    11   6 C        3.850    -0.020    20.894     6.502
    12   6 C        3.756    -0.124    22.929     6.827
    13   6 C        3.756    -0.121    22.867     6.818
    14   1 H        0.805     0.312     0.685     1.300
    15   1 H        0.923     0.040     2.454     2.450
    16   1 H        0.924     0.059     2.214     2.327
    17   1 H        0.924     0.088     1.899     2.155
    18   1 H        0.926     0.106     1.730     2.057
    19   1 H        0.926     0.106     1.735     2.060
    20   1 H        0.926     0.111     1.684     2.029
    21   1 H        0.924     0.083     1.948     2.183
    22   1 H        0.924     0.090     1.879     2.144
    23   1 H        0.925     0.065     2.146     2.291
    24   1 H        0.925     0.083     1.948     2.183
    25   1 H        0.925     0.067     2.114     2.274
    26   1 H        0.924     0.044     2.402     2.423
    27   1 H        0.925     0.056     2.251     2.346
    28   1 H        0.925     0.071     2.079     2.255
    29   1 H        0.925     0.048     2.340     2.392
    30   1 H        0.925     0.032     2.554     2.499
    31   1 H        0.925     0.068     2.109     2.271
    32   1 H        0.925     0.055     2.263     2.352

Wiberg/Mayer (AO) data.
largest (>0.10) Wiberg bond orders for each atom

     #   Z sym  total        # sym  WBO       # sym  WBO       # sym  WBO
 ---------------------------------------------------------------------------
     1   8 O    1.946 --     2 C    1.004    14 H    0.889
     2   6 C    3.958 --     1 O    1.004     3 C    0.977    16 H    0.969
                            15 H    0.966
     3   6 C    3.939 --     2 C    0.977    11 C    0.962    17 H    0.957
                             4 N    0.957
     4   7 N    3.725 --     8 C    1.365     5 C    1.233     3 C    0.957
     5   6 C    3.950 --     6 C    1.588     4 N    1.233    18 H    0.961
     6   6 C    3.949 --     5 C    1.588     7 N    1.228    19 H    0.962
     7   7 N    3.715 --     8 C    1.363     6 C    1.228     9 C    0.967
     8   6 C    3.949 --     4 N    1.365     7 N    1.363    20 H    0.954
     9   6 C    3.940 --    10 C    1.000    21 H    0.967     7 N    0.967
                            22 H    0.965
    10   6 C    3.981 --     9 C    1.000    23 H    0.984    25 H    0.984
                            24 H    0.977
    11   6 C    3.986 --    13 C    1.009    12 C    1.006    26 H    0.966
                             3 C    0.962
    12   6 C    3.988 --    11 C    1.006    27 H    0.985    29 H    0.984
                            28 H    0.980
    13   6 C    3.991 --    11 C    1.009    30 H    0.986    32 H    0.985
                            31 H    0.981
    14   1 H    0.902 --     1 O    0.889
    15   1 H    0.998 --     2 C    0.966
    16   1 H    0.996 --     2 C    0.969
    17   1 H    0.992 --     3 C    0.957
    18   1 H    0.989 --     5 C    0.961
    19   1 H    0.988 --     6 C    0.962
    20   1 H    0.988 --     8 C    0.954
    21   1 H    0.993 --     9 C    0.967
    22   1 H    0.991 --     9 C    0.965
    23   1 H    0.996 --    10 C    0.984
    24   1 H    0.992 --    10 C    0.977
    25   1 H    0.995 --    10 C    0.984
    26   1 H    0.998 --    11 C    0.966
    27   1 H    0.997 --    12 C    0.985
    28   1 H    0.994 --    12 C    0.980
    29   1 H    0.998 --    12 C    0.984
    30   1 H    0.999 --    13 C    0.986
    31   1 H    0.995 --    13 C    0.981
    32   1 H    0.997 --    13 C    0.985
 ---------------------------------------------------------------------------

molecular dipole:
                 x           y           z       tot (Debye)
 q only:        5.724      -0.773       4.103
   full:        5.548      -0.632       4.021      17.490

           -------------------------------------------------
          | TOTAL ENERGY              -40.659454101030 Eh   |
          | GRADIENT NORM               0.000334423544 Eh/α |
          | HOMO-LUMO GAP               4.168018083468 eV   |
           -------------------------------------------------

 * finished run on 2024/12/20 at 07:11:43.848
