   * xtb version 6.7.1 (edcfbbe) compiled by 'conda@3ef47c1a292c' on 2024-11-25

   ID    Z sym.   atoms
    1    6 C      1
    2    7 N      2
    3    1 H      3-8

          program call               : xtb C1114.xyz --opt --namespace C1114 --charge +1
          :  Hamiltonian                  GFN2-xTB          :
 * total energy  :    -7.6654287 Eh     change       -0.4098943E-11 Eh
 * total energy  :    -7.6662686 Eh     change       -0.8399399E-03 Eh
 * total energy  :    -7.6662977 Eh     change       -0.2914770E-04 Eh
 * total energy  :    -7.6663031 Eh     change       -0.5376891E-05 Eh
 * total energy  :    -7.6663045 Eh     change       -0.1413849E-05 Eh
   *** GEOMETRY OPTIMIZATION CONVERGED AFTER 5 ITERATIONS ***

 final structure:
================
8
 xtb: 6.7.1 (edcfbbe)
C            0.99344824779564        0.09120712804074       -0.05267853409777
N            0.49866880347857       -0.33752604817543        1.27947243635792
H            0.63640984465628        1.09348464917749       -0.27905300029346
H            0.63641244057692       -0.59089692732718       -0.82114545681913
H            2.08117248027728        0.09480676647350       -0.06385775281463
H            0.83286086324397        0.30369463067262        2.01155377381108
H           -0.53014005988540       -0.34320972172666        1.29711960231040
H            0.83286737985675       -1.28537047713508        1.50013893154559

          :  Hamiltonian                  GFN2-xTB          :
         :: total energy              -7.666304532571 Eh    ::
         :: gradient norm              0.000127135343 Eh/a0 ::
         :: HOMO-LUMO gap             11.112679681498 eV    ::
         :: SCC energy                -7.775509528028 Eh    ::
         :: -> dispersion             -0.001378011696 Eh    ::
         :: repulsion energy           0.109204995457 Eh    ::

    * Orbital Energies and Occupations

         #    Occupation            Energy/Eh            Energy/eV
      -------------------------------------------------------------
         1        2.0000           -0.9134868             -24.8572
         2        2.0000           -0.8556358             -23.2830
         3        2.0000           -0.8183892             -22.2695
         4        2.0000           -0.8183892             -22.2695
         5        2.0000           -0.7594129             -20.6647
         6        2.0000           -0.6852704             -18.6472
         7        2.0000           -0.6852704             -18.6472 (HOMO)
         8                         -0.2768869              -7.5345 (LUMO)
         9                         -0.1621328              -4.4119
        10                         -0.1101613              -2.9976
        11                         -0.1101613              -2.9976
        12                         -0.0354435              -0.9645
        13                          0.0241656               0.6576
        14                          0.0241657               0.6576
      -------------------------------------------------------------
                  HL-Gap            0.4083835 Eh           11.1127 eV

     #   Z          covCN         q      C6AA      α(0)
     1   6 C        3.680    -0.101    22.671     6.820
     2   7 N        3.482    -0.110    23.389     7.183
     3   1 H        0.925     0.127     1.561     1.954
     4   1 H        0.925     0.127     1.561     1.954
     5   1 H        0.925     0.127     1.561     1.954
     6   1 H        0.859     0.277     0.786     1.389
     7   1 H        0.859     0.277     0.786     1.389
     8   1 H        0.859     0.277     0.786     1.389

Wiberg/Mayer (AO) data.
largest (>0.10) Wiberg bond orders for each atom

     #   Z sym  total        # sym  WBO       # sym  WBO       # sym  WBO
 ---------------------------------------------------------------------------
     1   6 C    3.877 --     4 H    0.973     3 H    0.973     5 H    0.973
                             2 N    0.956
     2   7 N    3.685 --     1 C    0.956     6 H    0.910     7 H    0.910
                             8 H    0.910
     3   1 H    0.984 --     1 C    0.973
     4   1 H    0.984 --     1 C    0.973
     5   1 H    0.984 --     1 C    0.973
     6   1 H    0.923 --     2 N    0.910
     7   1 H    0.923 --     2 N    0.910
     8   1 H    0.923 --     2 N    0.910
 ---------------------------------------------------------------------------

molecular dipole:
                 x           y           z       tot (Debye)
 q only:        1.103      -0.498       1.984
   full:        1.030      -0.562       2.183       6.299

           -------------------------------------------------
          | TOTAL ENERGY               -7.666304532571 Eh   |
          | GRADIENT NORM               0.000127135343 Eh/α |
          | HOMO-LUMO GAP              11.112679681498 eV   |
           -------------------------------------------------

 * finished run on 2024/12/20 at 07:11:39.427
