   * xtb version 6.7.1 (edcfbbe) compiled by 'conda@3ef47c1a292c' on 2024-11-25

   ID    Z sym.   atoms
    1    7 N      1, 5, 7, 19
    2    6 C      2-4, 6, 8-17, 20-26, 29
    3    8 O      18, 27, 28
    4    1 H      30-50

          program call               : xtb C1122.xyz --opt --namespace C1122 --charge +1
          :  Hamiltonian                  GFN2-xTB          :
 * total energy  :   -81.2626334 Eh     change       -0.6330367E-09 Eh
 * total energy  :   -81.3035070 Eh     change       -0.4087361E-01 Eh
 * total energy  :   -81.3100993 Eh     change       -0.6592265E-02 Eh
 * total energy  :   -81.3132428 Eh     change       -0.3143531E-02 Eh
 * total energy  :   -81.3150474 Eh     change       -0.1804555E-02 Eh
 * total energy  :   -81.3164894 Eh     change       -0.1442010E-02 Eh
 * total energy  :   -81.3174621 Eh     change       -0.9727614E-03 Eh
 * total energy  :   -81.3181379 Eh     change       -0.6757278E-03 Eh
 * total energy  :   -81.3186660 Eh     change       -0.5281740E-03 Eh
 * total energy  :   -81.3190515 Eh     change       -0.3854867E-03 Eh
 * total energy  :   -81.3266643 Eh     change       -0.3070421E-04 Eh
 * total energy  :   -81.3266883 Eh     change       -0.2396432E-04 Eh
 * total energy  :   -81.3267041 Eh     change       -0.1587334E-04 Eh
 * total energy  :   -81.3267151 Eh     change       -0.1094807E-04 Eh
 * total energy  :   -81.3267222 Eh     change       -0.7123227E-05 Eh
 * total energy  :   -81.3267251 Eh     change       -0.2882795E-05 Eh
 * total energy  :   -81.3267342 Eh     change       -0.9082752E-05 Eh
 * total energy  :   -81.3267404 Eh     change       -0.6235434E-05 Eh
 * total energy  :   -81.3267448 Eh     change       -0.4411447E-05 Eh
   *** GEOMETRY OPTIMIZATION CONVERGED AFTER 72 ITERATIONS ***

 final structure:
================
50
 xtb: 6.7.1 (edcfbbe)
N            1.81886855686485       -0.43098539820124        0.74291276403151
C            2.85422014547372       -0.43768758184736        0.26024090363153
C            4.21129685704092       -0.47992129535173       -0.23144151794060
C            5.17891201559420        0.03140589182921        0.86088096309201
N            4.66624229508952       -0.33588358435767        2.16197263298995
C            4.43934119441315       -1.58260066718252        2.56641071035945
N            3.71033721686559       -1.55905594791364        3.68066299120070
C            3.46654468760068       -0.24905973780169        4.01928711651636
C            4.07214569916766        0.50951929609653        3.05091069145639
C            2.71274505215029        0.19195667695640        5.18626583558128
C            2.89505570477359       -0.40158342256325        6.43576682672642
C            2.18624540355949        0.05791936188724        7.53020279928400
C            1.29864509763495        1.11302329507241        7.39613018342173
C            1.12137311622343        1.71152007329195        6.15893859317926
C            1.82179679463139        1.25712090696928        5.05775130427006
C            3.04862974650878       -2.72953794386246        4.20083988872147
C            2.20718337262037       -3.27180663765714        3.01331327101261
O            2.76584541801062       -3.83221589013361        2.09670643550530
N            0.90124893129986       -2.97713620802673        3.01350939993943
C            0.18029322478190       -2.16647767379848        3.92464815813875
C            0.06623211198172       -2.51574813074208        5.26622400087081
C           -0.61176121782141       -1.67968835633474        6.13149962364295
C           -1.19963127735835       -0.50967356925471        5.66133252089548
C           -1.11868421942713       -0.18673046843073        4.31054048537412
C           -0.42545566851784       -1.00954755690698        3.44487507952666
C           -1.88447129313376        0.37390390390824        6.64653288027420
O           -1.74380846859537        0.26257604727810        7.83897007461567
O           -2.63789186158666        1.29711597898211        6.05129113538847
C           -3.36134859741528        2.20286926524284        6.87959110934436
H            4.43213592079889       -1.51750712712197       -0.49739537606026
H            4.29639652218193        0.12968454860423       -1.13282825369925
H            6.17270404913822       -0.39698624655318        0.71145129850429
H            5.25477255317487        1.11981665203362        0.82738556350813
H            4.74124129123311       -2.48159387393672        2.06297755890144
H            4.12168584540657        1.57439226358651        2.95493141226733
H            3.62249792086530       -1.19015186621547        6.56266187958691
H            2.33478813856095       -0.40245466591430        8.49414789105479
H            0.74672651047142        1.46275711792918        8.25350801515199
H            0.43713465654770        2.53856364266192        6.05042564337502
H            1.67305524729569        1.71068840210745        4.09008823161622
H            3.78069280035804       -3.49190501320100        4.47756282383361
H            2.43734091927715       -2.45052351223593        5.05531881811338
H            0.41731593516738       -3.22031083955016        2.15552560117989
H            0.48325130130156       -3.44639136094611        5.62160234505125
H           -0.70552619426550       -1.92357049670634        7.17828081762153
H           -1.59158596602714        0.71145639799818        3.94780598775804
H           -0.33721391288112       -0.75856507007573        2.39881192564179
H           -4.42470435752638        2.07030124468530        6.68271686300443
H           -3.14581039531243        2.00329815437071        7.93023704092188
H           -3.06137882420664        3.21687102132467        6.61658705172206

          :  Hamiltonian                  GFN2-xTB          :
         :: total energy             -81.326744812393 Eh    ::
         :: gradient norm              0.000636668992 Eh/a0 ::
         :: HOMO-LUMO gap              2.775476640206 eV    ::
         :: SCC energy               -82.589481834137 Eh    ::
         :: -> dispersion             -0.065450136348 Eh    ::
         :: repulsion energy           1.262737021745 Eh    ::

    * Orbital Energies and Occupations

         #    Occupation            Energy/Eh            Energy/eV
      -------------------------------------------------------------
         1        2.0000           -0.8811435             -23.9771
       ...           ...                  ...                  ...
        61        2.0000           -0.5600922             -15.2409
        62        2.0000           -0.5562984             -15.1376
        63        2.0000           -0.5498596             -14.9624
        64        2.0000           -0.5424735             -14.7615
        65        2.0000           -0.5392891             -14.6748
        66        2.0000           -0.5368636             -14.6088
        67        2.0000           -0.5307807             -14.4433
        68        2.0000           -0.5276302             -14.3575
        69        2.0000           -0.5249425             -14.2844
        70        2.0000           -0.5211520             -14.1813
        71        2.0000           -0.5194442             -14.1348
        72        2.0000           -0.5112178             -13.9109
        73        2.0000           -0.5030735             -13.6893 (HOMO)
        74                         -0.4010766             -10.9138 (LUMO)
        75                         -0.3788633             -10.3094
        76                         -0.3719485             -10.1212
        77                         -0.3451227              -9.3913
        78                         -0.3431099              -9.3365
        79                         -0.3428837              -9.3303
        80                         -0.3399133              -9.2495
        81                         -0.3353295              -9.1248
        82                         -0.3168054              -8.6207
        83                         -0.2872419              -7.8162
        84                         -0.2115120              -5.7555
       ...                                ...                  ...
       137                          1.0098632              27.4798
      -------------------------------------------------------------
                  HL-Gap            0.1019969 Eh            2.7755 eV

     #   Z          covCN         q      C6AA      α(0)
     1   7 N        0.911    -0.228    25.984     7.372
     2   6 C        1.899     0.121    28.136     8.567
     3   6 C        3.804    -0.068    21.801     6.647
     4   6 C        3.749    -0.013    20.879     6.517
     5   7 N        2.856     0.049    20.387     6.706
     6   6 C        3.075     0.051    26.782     8.485
     7   7 N        2.878     0.047    20.416     6.711
     8   6 C        3.094     0.046    26.866     8.495
     9   6 C        3.073    -0.020    28.429     8.742
    10   6 C        2.973    -0.001    28.041     8.686
    11   6 C        2.922    -0.034    28.858     8.809
    12   6 C        2.919    -0.020    28.518     8.757
    13   6 C        2.919    -0.014    28.356     8.732
    14   6 C        2.919    -0.021    28.519     8.757
    15   6 C        2.925    -0.031    28.778     8.797
    16   6 C        3.745    -0.052    21.587     6.628
    17   6 C        2.752     0.273    22.387     7.748
    18   8 O        0.859    -0.417    22.018     6.291
    19   7 N        2.692    -0.148    24.205     7.307
    20   6 C        2.909     0.065    26.539     8.447
    21   6 C        2.919    -0.046    29.131     8.851
    22   6 C        2.925    -0.019    28.479     8.752
    23   6 C        2.973    -0.016    28.418     8.744
    24   6 C        2.921    -0.019    28.486     8.752
    25   6 C        2.922    -0.045    29.111     8.848
    26   6 C        2.723     0.353    21.005     7.503
    27   8 O        0.857    -0.408    21.849     6.267
    28   8 O        1.704    -0.252    18.170     5.755
    29   6 C        3.649     0.021    20.539     6.511
    30   1 H        0.924     0.102     1.770     2.081
    31   1 H        0.924     0.109     1.704     2.042
    32   1 H        0.924     0.094     1.843     2.123
    33   1 H        0.924     0.095     1.834     2.118
    34   1 H        0.926     0.128     1.554     1.949
    35   1 H        0.927     0.096     1.817     2.108
    36   1 H        0.926     0.043     2.408     2.427
    37   1 H        0.926     0.065     2.145     2.290
    38   1 H        0.926     0.074     2.041     2.234
    39   1 H        0.926     0.057     2.234     2.337
    40   1 H        0.926     0.046     2.364     2.404
    41   1 H        0.924     0.105     1.742     2.064
    42   1 H        0.925     0.101     1.772     2.082
    43   1 H        0.860     0.218     1.019     1.581
    44   1 H        0.926     0.057     2.237     2.339
    45   1 H        0.926     0.080     1.976     2.198
    46   1 H        0.926     0.075     2.028     2.227
    47   1 H        0.926     0.074     2.037     2.232
    48   1 H        0.925     0.075     2.032     2.229
    49   1 H        0.924     0.083     1.950     2.184
    50   1 H        0.925     0.069     2.092     2.262

Wiberg/Mayer (AO) data.
largest (>0.10) Wiberg bond orders for each atom

     #   Z sym  total        # sym  WBO       # sym  WBO       # sym  WBO
 ---------------------------------------------------------------------------
     1   7 N    3.012 --     2 C    2.856
     2   6 C    3.947 --     1 N    2.856     3 C    1.053
     3   6 C    3.988 --     2 C    1.053     4 C    0.966    30 H    0.939
                            31 H    0.939
     4   6 C    3.947 --     5 N    0.975    33 H    0.969     3 C    0.966
                            32 H    0.962
     5   7 N    3.696 --     6 C    1.350     9 C    1.211     4 C    0.975
     6   6 C    3.939 --     7 N    1.351     5 N    1.350    34 H    0.948
     7   7 N    3.695 --     6 C    1.351     8 C    1.173    16 C    0.977
     8   6 C    3.946 --     9 C    1.521     7 N    1.173    10 C    1.058
     9   6 C    3.942 --     8 C    1.521     5 N    1.211    35 H    0.963
    10   6 C    3.979 --    11 C    1.376    15 C    1.375     8 C    1.058
                            13 C    0.103
    11   6 C    3.990 --    12 C    1.452    10 C    1.376    36 H    0.967
                            14 C    0.105
    12   6 C    3.989 --    11 C    1.452    13 C    1.432    37 H    0.967
                            15 C    0.106
    13   6 C    3.982 --    12 C    1.432    14 C    1.431    38 H    0.967
                            10 C    0.103
    14   6 C    3.990 --    15 C    1.455    13 C    1.431    39 H    0.968
                            11 C    0.105
    15   6 C    3.989 --    14 C    1.455    10 C    1.375    40 H    0.969
                            12 C    0.106
    16   6 C    3.938 --     7 N    0.977    41 H    0.954    42 H    0.953
                            17 C    0.911
    17   6 C    3.959 --    18 O    1.687    19 N    1.287    16 C    0.911
    18   8 O    2.029 --    17 C    1.687    19 N    0.203
    19   7 N    3.501 --    17 C    1.287    20 C    1.011    43 H    0.911
                            18 O    0.203
    20   6 C    3.956 --    21 C    1.388    25 C    1.386    19 N    1.011
    21   6 C    3.989 --    22 C    1.451    20 C    1.388    44 H    0.964
                            24 C    0.105
    22   6 C    3.984 --    21 C    1.451    23 C    1.394    45 H    0.962
                            25 C    0.106
    23   6 C    3.985 --    22 C    1.394    24 C    1.391    26 C    0.986
    24   6 C    3.986 --    25 C    1.457    23 C    1.391    46 H    0.963
                            21 C    0.105
    25   6 C    3.987 --    24 C    1.457    20 C    1.386    47 H    0.963
                            22 C    0.106
    26   6 C    3.924 --    27 O    1.722    28 O    1.146    23 C    0.986
    27   8 O    2.039 --    26 C    1.722    28 O    0.181
    28   8 O    2.326 --    26 C    1.146    29 C    0.948    27 O    0.181
    29   6 C    3.911 --    50 H    0.976    48 H    0.975    49 H    0.974
                            28 O    0.948
    30   1 H    0.990 --     3 C    0.939
    31   1 H    0.988 --     3 C    0.939
    32   1 H    0.991 --     4 C    0.962
    33   1 H    0.991 --     4 C    0.969
    34   1 H    0.983 --     6 C    0.948
    35   1 H    0.990 --     9 C    0.963
    36   1 H    0.998 --    11 C    0.967
    37   1 H    0.995 --    12 C    0.967
    38   1 H    0.994 --    13 C    0.967
    39   1 H    0.996 --    14 C    0.968
    40   1 H    0.998 --    15 C    0.969
    41   1 H    0.988 --    16 C    0.954
    42   1 H    0.989 --    16 C    0.953
    43   1 H    0.952 --    19 N    0.911
    44   1 H    0.996 --    21 C    0.964
    45   1 H    0.993 --    22 C    0.962
    46   1 H    0.993 --    24 C    0.963
    47   1 H    0.994 --    25 C    0.963
    48   1 H    0.993 --    29 C    0.975
    49   1 H    0.993 --    29 C    0.974
    50   1 H    0.994 --    29 C    0.976
 ---------------------------------------------------------------------------

molecular dipole:
                 x           y           z       tot (Debye)
 q only:        5.913      -0.380       6.033
   full:        6.320      -0.409       5.635      21.548

           -------------------------------------------------
          | TOTAL ENERGY              -81.326744812393 Eh   |
          | GRADIENT NORM               0.000636668992 Eh/α |
          | HOMO-LUMO GAP               2.775476640206 eV   |
           -------------------------------------------------

 * finished run on 2024/12/20 at 07:11:55.820
