   * xtb version 6.7.1 (edcfbbe) compiled by 'conda@3ef47c1a292c' on 2024-11-25

   ID    Z sym.   atoms
    1    8 O      1, 34
    2    6 C      2-9, 11, 12, 14-16, 18-23, 25-33, 35
    3    7 N      10, 13, 17
    4   16 S      24
    5    1 H      36-59

          program call               : xtb C1126.xyz --opt --namespace C1126 --charge +1
          :  Hamiltonian                  GFN2-xTB          :
 * total energy  :   -94.0583272 Eh     change       -0.2524331E-08 Eh
 * total energy  :   -94.0709969 Eh     change       -0.1266968E-01 Eh
 * total energy  :   -94.0743816 Eh     change       -0.3384714E-02 Eh
 * total energy  :   -94.0753967 Eh     change       -0.1015149E-02 Eh
 * total energy  :   -94.0763560 Eh     change       -0.9592462E-03 Eh
 * total energy  :   -94.0769802 Eh     change       -0.6242359E-03 Eh
 * total energy  :   -94.0776665 Eh     change       -0.6862898E-03 Eh
 * total energy  :   -94.0784401 Eh     change       -0.7735677E-03 Eh
 * total energy  :   -94.0791801 Eh     change       -0.7399787E-03 Eh
 * total energy  :   -94.0797552 Eh     change       -0.5751161E-03 Eh
 * total energy  :   -94.0873085 Eh     change       -0.1020085E-04 Eh
 * total energy  :   -94.0873182 Eh     change       -0.9681579E-05 Eh
 * total energy  :   -94.0873239 Eh     change       -0.5695251E-05 Eh
 * total energy  :   -94.0873292 Eh     change       -0.5366414E-05 Eh
 * total energy  :   -94.0873364 Eh     change       -0.7128977E-05 Eh
 * total energy  :   -94.0873430 Eh     change       -0.6650257E-05 Eh
 * total energy  :   -94.0873509 Eh     change       -0.7846063E-05 Eh
 * total energy  :   -94.0873558 Eh     change       -0.4907851E-05 Eh
 * total energy  :   -94.0873600 Eh     change       -0.4250021E-05 Eh
   *** GEOMETRY OPTIMIZATION CONVERGED AFTER 92 ITERATIONS ***

 final structure:
================
59
 xtb: 6.7.1 (edcfbbe)
O            2.02141219819613        0.54448380322937       -1.63539129679443
C            3.03264073506421        0.02052713242918       -1.22947231678627
C            3.27023012377770       -0.37022516534401        0.15582749537603
C            4.50584545393351       -0.82462294698647        0.63067411591574
C            4.64793052431649       -1.16761449835341        1.96044379582088
C            3.57056195025269       -1.07204717583455        2.83033173539385
C            2.34229071273747       -0.61919185953610        2.37104238426460
C            2.19235265352805       -0.26706242927151        1.04557547424129
C            4.17677492040270       -0.25425082234043       -2.25220537261871
N            3.63764260084202       -0.07536171536393       -3.56670462438778
C            3.32263107907291       -1.05872937985613       -4.45696013016288
C            2.59499390349889       -0.48878679236000       -5.45429879815679
N            2.45779229614280        0.83715198342505       -5.15163254860760
C            3.08623728671512        1.06274381662672       -3.99759530305163
C            1.70216203934204        1.76898105540719       -5.88771319942062
C            2.15784363969215        3.03483427346061       -6.24599624994451
N            3.41337214967488        3.49297765492244       -6.00893798479948
C            3.97524983504037        4.73428476511225       -6.34641871260537
C            5.35623948550568        4.78633911833501       -6.52447025529020
C            5.97359409081266        5.98282497836911       -6.83275702693011
C            5.22237734644849        7.13970840188747       -6.96100841133725
C            3.85303106600787        7.09209514383267       -6.76483827975374
C            3.22495735502484        5.89910642045041       -6.45311957807980
S            0.94036866983930        3.89362612851945       -7.12063701888207
C           -0.17331864933686        2.55061409760157       -6.97751865308385
C            0.37627178446987        1.48675857861835       -6.31052893461204
C           -0.27346643397461        0.20255600231624       -6.00517571880927
C           -0.66311655277727       -0.65521855684564       -7.02962528509416
C           -1.24471824050833       -1.87381631491150       -6.73073273172518
C           -1.44012059831336       -2.24612609090133       -5.41053501779639
C           -1.04609466790933       -1.39941187381763       -4.38769460830870
C           -0.45840011583377       -0.18165167476471       -4.67949248923942
C           -1.49030477611679        2.88351507205928       -7.51754512112960
O           -1.61365505180902        3.95051535807926       -8.08165092440609
C           -2.62247104906917        1.91698951200579       -7.32350411465267
H            5.36129438629325       -0.89815145838038       -0.02331315448072
H            5.60383398806916       -1.51285715316615        2.32392187856167
H            3.69152663882102       -1.34654796309384        3.86671838184050
H            1.50537563961485       -0.54080029933491        3.04735739903877
H            1.24509171541976        0.08861940177417        0.66870789555353
H            4.98185302356389        0.46168662297908       -2.06275797964770
H            4.55575274477229       -1.27088695023193       -2.14985699985100
H            3.63550288452296       -2.07411267777187       -4.32744939033097
H            2.17227420626819       -0.92126456345103       -6.33701000865316
H            3.13471708460373        2.00905752614180       -3.49655659466206
H            4.10595174509897        2.78501888172780       -5.79682251295575
H            5.94429519050365        3.88340649653346       -6.42771027258369
H            7.04274895991499        6.01015258917750       -6.97522290193156
H            5.70360193338283        8.07285735810188       -7.20644476430197
H            3.26261980264667        7.99071994480447       -6.84974417151899
H            2.16230828289318        5.88798606244695       -6.27790580970790
H           -0.49839285056386       -0.36477744057985       -8.05698404638214
H           -1.54748927422324       -2.53309619805062       -7.52955077336251
H           -1.90074825569123       -3.19399981464615       -5.17985950957278
H           -1.19884846269387       -1.68459215259028       -3.35804547159379
H           -0.16170554567452        0.48182809731667       -3.87945159603813
H           -2.53267745287145        1.10219361688033       -8.03880650571134
H           -2.61339312731518        1.49608899614335       -6.32191284710533
H           -3.56072102207014        2.43404507716269       -7.50686453902670

          :  Hamiltonian                  GFN2-xTB          :
         :: total energy             -94.087360032406 Eh    ::
         :: gradient norm              0.000995037197 Eh/a0 ::
         :: HOMO-LUMO gap              1.547875239209 eV    ::
         :: SCC energy               -95.626700544813 Eh    ::
         :: -> dispersion             -0.074723595210 Eh    ::
         :: repulsion energy           1.539340512407 Eh    ::

    * Orbital Energies and Occupations

         #    Occupation            Energy/Eh            Energy/eV
      -------------------------------------------------------------
         1        2.0000           -0.8727400             -23.7485
       ...           ...                  ...                  ...
        74        2.0000           -0.5265325             -14.3277
        75        2.0000           -0.5225616             -14.2196
        76        2.0000           -0.5222922             -14.2123
        77        2.0000           -0.5222364             -14.2108
        78        2.0000           -0.5199505             -14.1486
        79        2.0000           -0.5129044             -13.9568
        80        2.0000           -0.5062869             -13.7768
        81        2.0000           -0.5048354             -13.7373
        82        2.0000           -0.5023054             -13.6684
        83        2.0000           -0.4947764             -13.4636
        84        2.0000           -0.4944397             -13.4544
        85        2.0000           -0.4803140             -13.0700
        86        2.0000           -0.4641551             -12.6303 (HOMO)
        87                         -0.4072718             -11.0824 (LUMO)
        88                         -0.3886256             -10.5750
        89                         -0.3758747             -10.2281
        90                         -0.3534664              -9.6183
        91                         -0.3387079              -9.2167
        92                         -0.3305751              -8.9954
        93                         -0.3230055              -8.7894
        94                         -0.3138648              -8.5407
        95                         -0.3112035              -8.4683
        96                         -0.3109813              -8.4622
        97                         -0.3013283              -8.1996
       ...                                ...                  ...
       169                          0.5979939              16.2722
      -------------------------------------------------------------
                  HL-Gap            0.0568834 Eh            1.5479 eV

     #   Z          covCN         q      C6AA      α(0)
     1   8 O        0.857    -0.356    20.813     6.117
     2   6 C        2.823     0.227    23.234     7.898
     3   6 C        2.970    -0.017    28.434     8.747
     4   6 C        2.919    -0.027    28.666     8.780
     5   6 C        2.917    -0.019    28.480     8.751
     6   6 C        2.920    -0.007    28.189     8.707
     7   6 C        2.916    -0.018    28.451     8.747
     8   6 C        2.927    -0.009    28.245     8.716
     9   6 C        3.743    -0.048    21.500     6.615
    10   7 N        2.868     0.063    20.146     6.666
    11   6 C        3.062    -0.010    28.192     8.707
    12   6 C        3.064    -0.004    28.069     8.688
    13   7 N        2.867     0.068    20.051     6.650
    14   6 C        3.088     0.052    26.740     8.476
    15   6 C        3.109    -0.025    28.472     8.742
    16   6 C        2.903     0.066    26.512     8.443
    17   7 N        2.713    -0.139    24.010     7.278
    18   6 C        2.907     0.063    26.580     8.454
    19   6 C        2.926    -0.051    29.273     8.873
    20   6 C        2.920    -0.023    28.568     8.765
    21   6 C        2.919    -0.028    28.690     8.784
    22   6 C        2.922    -0.021    28.521     8.758
    23   6 C        2.920    -0.046    29.142     8.853
    24  16 S        2.361     0.074   138.076    19.777
    25   6 C        2.996    -0.030    28.747     8.795
    26   6 C        3.114    -0.004    27.971     8.663
    27   6 C        2.975     0.006    27.893     8.663
    28   6 C        2.923    -0.035    28.880     8.813
    29   6 C        2.919    -0.026    28.649     8.777
    30   6 C        2.920    -0.025    28.638     8.776
    31   6 C        2.919    -0.027    28.683     8.783
    32   6 C        2.924    -0.039    28.968     8.826
    33   6 C        2.897     0.236    23.073     7.876
    34   8 O        0.865    -0.353    20.768     6.110
    35   6 C        3.754    -0.139    23.231     6.873
    36   1 H        0.926     0.042     2.422     2.434
    37   1 H        0.926     0.061     2.181     2.310
    38   1 H        0.926     0.067     2.113     2.273
    39   1 H        0.926     0.066     2.131     2.283
    40   1 H        0.926     0.073     2.053     2.240
    41   1 H        0.924     0.096     1.823     2.111
    42   1 H        0.925     0.098     1.807     2.102
    43   1 H        0.926     0.095     1.829     2.115
    44   1 H        0.927     0.102     1.771     2.081
    45   1 H        0.926     0.111     1.684     2.029
    46   1 H        0.860     0.169     1.276     1.770
    47   1 H        0.925     0.028     2.621     2.531
    48   1 H        0.926     0.050     2.315     2.379
    49   1 H        0.926     0.054     2.267     2.354
    50   1 H        0.926     0.057     2.240     2.340
    51   1 H        0.926     0.057     2.232     2.336
    52   1 H        0.926     0.039     2.458     2.452
    53   1 H        0.926     0.050     2.322     2.383
    54   1 H        0.926     0.049     2.326     2.385
    55   1 H        0.926     0.044     2.393     2.419
    56   1 H        0.926     0.036     2.497     2.471
    57   1 H        0.925     0.077     2.006     2.215
    58   1 H        0.925     0.062     2.175     2.306
    59   1 H        0.925     0.084     1.938     2.177

Wiberg/Mayer (AO) data.
largest (>0.10) Wiberg bond orders for each atom

     #   Z sym  total        # sym  WBO       # sym  WBO       # sym  WBO
 ---------------------------------------------------------------------------
     1   8 O    2.103 --     2 C    1.809
     2   6 C    3.929 --     1 O    1.809     3 C    1.080     9 C    0.919
     3   6 C    3.982 --     4 C    1.353     8 C    1.349     2 C    1.080
     4   6 C    3.991 --     5 C    1.472     3 C    1.353    36 H    0.967
                             7 C    0.102
     5   6 C    3.990 --     4 C    1.472     6 C    1.418    37 H    0.968
     6   6 C    3.985 --     7 C    1.427     5 C    1.418    38 H    0.968
     7   6 C    3.988 --     8 C    1.464     6 C    1.427    39 H    0.967
                             4 C    0.102
     8   6 C    3.984 --     7 C    1.464     3 C    1.349    40 H    0.964
     9   6 C    3.949 --    10 N    0.997    42 H    0.958    41 H    0.945
                             2 C    0.919
    10   7 N    3.694 --    14 C    1.326    11 C    1.212     9 C    0.997
    11   6 C    3.946 --    12 C    1.597    10 N    1.212    43 H    0.963
    12   6 C    3.946 --    11 C    1.597    13 N    1.203    44 H    0.961
    13   7 N    3.714 --    14 C    1.339    12 C    1.203    15 C    0.998
    14   6 C    3.938 --    13 N    1.339    10 N    1.326    45 H    0.955
    15   6 C    3.881 --    16 C    1.363    26 C    1.231    13 N    0.998
    16   6 C    3.961 --    15 C    1.363    17 N    1.207    24 S    1.196
    17   7 N    3.459 --    16 C    1.207    18 C    1.052    46 H    0.928
    18   6 C    3.952 --    23 C    1.377    19 C    1.367    17 N    1.052
    19   6 C    3.982 --    20 C    1.457    18 C    1.367    47 H    0.966
                            22 C    0.108
    20   6 C    3.990 --    19 C    1.457    21 C    1.428    48 H    0.970
                            23 C    0.106
    21   6 C    3.972 --    22 C    1.438    20 C    1.428    49 H    0.969
    22   6 C    3.989 --    23 C    1.444    21 C    1.438    50 H    0.969
                            19 C    0.108
    23   6 C    3.984 --    22 C    1.444    18 C    1.377    51 H    0.956
                            20 C    0.106
    24  16 S    2.663 --    16 C    1.196    25 C    1.088
    25   6 C    3.925 --    26 C    1.495    24 S    1.088    33 C    1.074
    26   6 C    3.982 --    25 C    1.495    15 C    1.231    27 C    1.023
    27   6 C    3.987 --    32 C    1.392    28 C    1.391    26 C    1.023
                            30 C    0.108
    28   6 C    3.991 --    29 C    1.448    27 C    1.391    52 H    0.969
                            31 C    0.110
    29   6 C    3.990 --    28 C    1.448    30 C    1.435    53 H    0.969
                            32 C    0.110
    30   6 C    3.987 --    31 C    1.438    29 C    1.435    54 H    0.970
                            27 C    0.108
    31   6 C    3.990 --    32 C    1.446    30 C    1.438    55 H    0.969
                            28 C    0.110
    32   6 C    3.988 --    31 C    1.446    27 C    1.392    56 H    0.970
                            29 C    0.110
    33   6 C    3.934 --    34 O    1.784    25 C    1.074    35 C    1.005
    34   8 O    2.075 --    33 C    1.784
    35   6 C    3.991 --    33 C    1.005    59 H    0.977    58 H    0.969
                            57 H    0.950
    36   1 H    0.998 --     4 C    0.967
    37   1 H    0.996 --     5 C    0.968
    38   1 H    0.995 --     6 C    0.968
    39   1 H    0.995 --     7 C    0.967
    40   1 H    0.995 --     8 C    0.964
    41   1 H    0.989 --     9 C    0.945
    42   1 H    0.990 --     9 C    0.958
    43   1 H    0.990 --    11 C    0.963
    44   1 H    0.989 --    12 C    0.961
    45   1 H    0.988 --    14 C    0.955
    46   1 H    0.970 --    17 N    0.928
    47   1 H    0.999 --    19 C    0.966
    48   1 H    0.997 --    20 C    0.970
    49   1 H    0.997 --    21 C    0.969
    50   1 H    0.996 --    22 C    0.969
    51   1 H    0.997 --    23 C    0.956
    52   1 H    0.998 --    28 C    0.969
    53   1 H    0.996 --    29 C    0.969
    54   1 H    0.997 --    30 C    0.970
    55   1 H    0.997 --    31 C    0.969
    56   1 H    0.999 --    32 C    0.970
    57   1 H    0.993 --    35 C    0.950
    58   1 H    0.996 --    35 C    0.969
    59   1 H    0.992 --    35 C    0.977
 ---------------------------------------------------------------------------

molecular dipole:
                 x           y           z       tot (Debye)
 q only:        6.798       0.239      -6.129
   full:        7.024      -0.287      -5.985      23.466

           -------------------------------------------------
          | TOTAL ENERGY              -94.087360032406 Eh   |
          | GRADIENT NORM               0.000995037197 Eh/α |
          | HOMO-LUMO GAP               1.547875239209 eV   |
           -------------------------------------------------

 * finished run on 2024/12/20 at 07:12:09.649
