   * xtb version 6.7.1 (edcfbbe) compiled by 'conda@3ef47c1a292c' on 2024-11-25

   ID    Z sym.   atoms
    1    6 C      1-12, 14, 15, 17, 19-21
    2    7 N      13
    3    8 O      16, 18
    4    1 H      22-59

          program call               : xtb C1127.xyz --opt --namespace C1127 --charge +1
          :  Hamiltonian                  GFN2-xTB          :
 * total energy  :   -68.5996047 Eh     change       -0.6001528E-09 Eh
 * total energy  :   -68.6086719 Eh     change       -0.9067215E-02 Eh
 * total energy  :   -68.6108308 Eh     change       -0.2158966E-02 Eh
 * total energy  :   -68.6111359 Eh     change       -0.3050258E-03 Eh
 * total energy  :   -68.6114833 Eh     change       -0.3474055E-03 Eh
 * total energy  :   -68.6116463 Eh     change       -0.1630425E-03 Eh
 * total energy  :   -68.6118960 Eh     change       -0.2497233E-03 Eh
 * total energy  :   -68.6120278 Eh     change       -0.1318094E-03 Eh
 * total energy  :   -68.6121186 Eh     change       -0.9079697E-04 Eh
 * total energy  :   -68.6121799 Eh     change       -0.6121505E-04 Eh
 * total energy  :   -68.6134975 Eh     change       -0.4088895E-04 Eh
 * total energy  :   -68.6135421 Eh     change       -0.4459527E-04 Eh
 * total energy  :   -68.6135849 Eh     change       -0.4279014E-04 Eh
 * total energy  :   -68.6136149 Eh     change       -0.3006817E-04 Eh
 * total energy  :   -68.6136327 Eh     change       -0.1773276E-04 Eh
 * total energy  :   -68.6136438 Eh     change       -0.1113841E-04 Eh
 * total energy  :   -68.6136536 Eh     change       -0.9768206E-05 Eh
 * total energy  :   -68.6136629 Eh     change       -0.9356122E-05 Eh
 * total energy  :   -68.6136672 Eh     change       -0.4253855E-05 Eh
   *** GEOMETRY OPTIMIZATION CONVERGED AFTER 44 ITERATIONS ***

 final structure:
================
59
 xtb: 6.7.1 (edcfbbe)
C            1.53748691761298        0.79040150726470        0.43345583721437
C            1.24645677507935        1.78083126588271       -0.68770171415489
C            1.57846774356872        1.23461314630520       -2.07733275783105
C            0.77901294827963       -0.00201291480563       -2.49371266874721
C           -0.73982482803347        0.18010189616597       -2.49457989902923
C           -1.25533579307798        1.28932650102793       -3.41334655853192
C           -0.92981261216856        1.10210881523153       -4.89674665970583
C           -1.45116347937847       -0.19736286433869       -5.51561210723289
C           -2.95226965615509       -0.44152218912537       -5.34477980747409
C           -3.84932969393336        0.62586262807688       -5.97710751106013
C           -3.87549934706822        0.57356327137453       -7.50981994696785
C           -4.65159557980347       -0.62402247354910       -8.07102625946355
N           -6.02993338582922       -0.33490812558725       -8.58514519674582
C           -6.05800699492645        0.67839183396593       -9.68567676957986
C           -5.04232035715001        0.55000475279594      -10.82513189270407
O           -5.37912389813489       -0.43504219804220      -11.79050188389778
C           -4.66333049881767       -1.58106520967242      -11.80150378159585
O           -3.89414302995185       -1.85494710577536      -10.91500992816180
C           -4.97572599242448       -2.41269690123413      -12.99689665058895
C           -6.60898239667704       -1.61203356924597       -9.04910415213464
C           -6.88337601588423        0.17959927764390       -7.49622112876930
H            0.88927153687876       -0.07991535823102        0.36860404583577
H            1.37545538741762        1.25972745195835        1.40102942784884
H            2.57108313127493        0.45484710511221        0.38540587840827
H            0.19772237107390        2.08091289714514       -0.64554586133908
H            1.84616991253202        2.67991754820684       -0.52680435678238
H            1.42665843348223        2.02933122569137       -2.81111822386862
H            2.63898798433760        0.97233480713975       -2.10228390669724
H            1.10928308479088       -0.30283226829414       -3.49056910158497
H            1.02002761521220       -0.82493358877232       -1.81853677733760
H           -1.19783315437012       -0.77057533343255       -2.77762387622837
H           -1.07241537323407        0.40127860194835       -1.47893132389605
H           -2.33786142527298        1.36834230565931       -3.28480883807525
H           -0.83024167354419        2.24180304128723       -3.09334483458230
H           -1.32849444391883        1.95834322340371       -5.44722111573489
H            0.15269885715419        1.12274260673412       -5.02891940759398
H           -1.19388363341350       -0.19997964168115       -6.57777485461261
H           -0.92580265718068       -1.03911112907301       -5.06323029568576
H           -3.18748729153392       -1.42252214459269       -5.76594651815677
H           -3.17926072080328       -0.48895396596602       -4.27993560671728
H           -4.85886852560593        0.51647776021815       -5.57640828504448
H           -3.48905524454904        1.60773805448054       -5.67277796352401
H           -4.26897322134217        1.51315375584740       -7.89721148182150
H           -2.84496419701995        0.50518196697191       -7.85814370095075
H           -4.09636262046179       -1.09856603605968       -8.88271872513066
H           -4.76423217458612       -1.36991840179370       -7.28195841495268
H           -7.05928308128766        0.66121721091359      -10.12298441295242
H           -5.90368643136125        1.66141936508627       -9.23891230973283
H           -5.05479339325166        1.50045661487377      -11.36705060754956
H           -4.02936183374719        0.36707680955433      -10.45507660475747
H           -5.95090687853654       -2.15576935745156      -13.39858246402804
H           -4.22284836905948       -2.20938987000586      -13.75805779345472
H           -4.91666312116474       -3.46823973891699      -12.74568023143094
H           -5.96353545669105       -2.07947221223252       -9.78700261920396
H           -6.71216363750228       -2.29838435066567       -8.21052539487276
H           -7.59183444848087       -1.44691131721580       -9.48685101562520
H           -6.92322721099993       -0.54449999287595       -6.68460173032771
H           -6.48833143705959        1.11596027856344       -7.10965614987361
H           -7.89554748301606        0.34968073225351       -7.85998311089211

          :  Hamiltonian                  GFN2-xTB          :
         :: total energy             -68.613667183811 Eh    ::
         :: gradient norm              0.000434317976 Eh/a0 ::
         :: HOMO-LUMO gap              2.861618456138 eV    ::
         :: SCC energy               -69.521241528114 Eh    ::
         :: -> dispersion             -0.048979860009 Eh    ::
         :: repulsion energy           0.907574344303 Eh    ::

    * Orbital Energies and Occupations

         #    Occupation            Energy/Eh            Energy/eV
      -------------------------------------------------------------
         1        2.0000           -0.8794285             -23.9305
       ...           ...                  ...                  ...
        51        2.0000           -0.5418745             -14.7452
        52        2.0000           -0.5359322             -14.5835
        53        2.0000           -0.5285641             -14.3830
        54        2.0000           -0.5259345             -14.3114
        55        2.0000           -0.5148133             -14.0088
        56        2.0000           -0.5106730             -13.8961
        57        2.0000           -0.5042240             -13.7206
        58        2.0000           -0.4941278             -13.4459
        59        2.0000           -0.4906179             -13.3504
        60        2.0000           -0.4870464             -13.2532
        61        2.0000           -0.4724280             -12.8554
        62        2.0000           -0.4685098             -12.7488
        63        2.0000           -0.4663973             -12.6913 (HOMO)
        64                         -0.3612347              -9.8297 (LUMO)
        65                         -0.2324449              -6.3251
        66                         -0.1740884              -4.7372
        67                         -0.1516896              -4.1277
        68                         -0.1457035              -3.9648
        69                         -0.1328252              -3.6144
        70                         -0.0627017              -1.7062
        71                         -0.0608041              -1.6546
        72                         -0.0521378              -1.4187
        73                         -0.0301043              -0.8192
        74                         -0.0228360              -0.6214
       ...                                ...                  ...
       122                          0.5172844              14.0760
      -------------------------------------------------------------
                  HL-Gap            0.1051625 Eh            2.8616 eV

     #   Z          covCN         q      C6AA      α(0)
     1   6 C        3.751    -0.103    22.520     6.768
     2   6 C        3.799    -0.052    21.517     6.605
     3   6 C        3.800    -0.058    21.616     6.620
     4   6 C        3.800    -0.058    21.616     6.620
     5   6 C        3.800    -0.058    21.613     6.619
     6   6 C        3.800    -0.059    21.631     6.622
     7   6 C        3.800    -0.059    21.644     6.624
     8   6 C        3.800    -0.061    21.678     6.629
     9   6 C        3.800    -0.064    21.730     6.637
    10   6 C        3.800    -0.069    21.831     6.652
    11   6 C        3.799    -0.074    21.918     6.666
    12   6 C        3.758    -0.052    21.561     6.620
    13   7 N        3.620     0.133    18.977     6.470
    14   6 C        3.759    -0.044    21.418     6.598
    15   6 C        3.695     0.061    19.717     6.352
    16   8 O        1.704    -0.266    18.411     5.793
    17   6 C        2.710     0.362    20.854     7.475
    18   8 O        0.856    -0.418    22.045     6.295
    19   6 C        3.754    -0.157    23.594     6.926
    20   6 C        3.726    -0.091    22.347     6.750
    21   6 C        3.728    -0.095    22.422     6.760
    22   1 H        0.925     0.034     2.536     2.491
    23   1 H        0.925     0.034     2.536     2.490
    24   1 H        0.925     0.036     2.507     2.476
    25   1 H        0.924     0.029     2.602     2.523
    26   1 H        0.924     0.029     2.598     2.521
    27   1 H        0.924     0.027     2.632     2.537
    28   1 H        0.924     0.032     2.559     2.502
    29   1 H        0.924     0.027     2.632     2.537
    30   1 H        0.924     0.035     2.515     2.480
    31   1 H        0.924     0.025     2.663     2.552
    32   1 H        0.924     0.036     2.506     2.476
    33   1 H        0.924     0.023     2.692     2.566
    34   1 H        0.924     0.039     2.469     2.457
    35   1 H        0.924     0.022     2.700     2.570
    36   1 H        0.924     0.042     2.424     2.435
    37   1 H        0.924     0.025     2.656     2.548
    38   1 H        0.924     0.045     2.377     2.411
    39   1 H        0.924     0.024     2.666     2.554
    40   1 H        0.925     0.051     2.313     2.378
    41   1 H        0.924     0.029     2.601     2.522
    42   1 H        0.925     0.060     2.204     2.322
    43   1 H        0.925     0.042     2.424     2.435
    44   1 H        0.925     0.076     2.024     2.225
    45   1 H        0.924     0.111     1.687     2.031
    46   1 H        0.924     0.091     1.872     2.140
    47   1 H        0.924     0.100     1.784     2.089
    48   1 H        0.924     0.094     1.842     2.122
    49   1 H        0.924     0.094     1.839     2.121
    50   1 H        0.924     0.088     1.903     2.157
    51   1 H        0.925     0.090     1.882     2.145
    52   1 H        0.925     0.111     1.692     2.034
    53   1 H        0.925     0.097     1.811     2.105
    54   1 H        0.925     0.104     1.747     2.067
    55   1 H        0.925     0.096     1.825     2.112
    56   1 H        0.925     0.092     1.862     2.134
    57   1 H        0.925     0.101     1.777     2.085
    58   1 H        0.925     0.103     1.760     2.075
    59   1 H        0.925     0.093     1.847     2.125

Wiberg/Mayer (AO) data.
largest (>0.10) Wiberg bond orders for each atom

     #   Z sym  total        # sym  WBO       # sym  WBO       # sym  WBO
 ---------------------------------------------------------------------------
     1   6 C    3.997 --     2 C    1.020    24 H    0.988    23 H    0.987
                            22 H    0.986
     2   6 C    3.998 --     1 C    1.020     3 C    1.008    26 H    0.978
                            25 H    0.976
     3   6 C    3.997 --     2 C    1.008     4 C    1.008    28 H    0.977
                            27 H    0.976
     4   6 C    3.997 --     5 C    1.008     3 C    1.008    29 H    0.975
                            30 H    0.975
     5   6 C    3.997 --     4 C    1.008     6 C    1.008    31 H    0.975
                            32 H    0.974
     6   6 C    3.997 --     5 C    1.008     7 C    1.008    33 H    0.975
                            34 H    0.974
     7   6 C    3.997 --     6 C    1.008     8 C    1.007    35 H    0.975
                            36 H    0.974
     8   6 C    3.996 --     9 C    1.008     7 C    1.007    37 H    0.974
                            38 H    0.974
     9   6 C    3.995 --     8 C    1.008    10 C    1.007    39 H    0.973
                            40 H    0.972
    10   6 C    3.992 --     9 C    1.007    11 C    1.005    41 H    0.975
                            42 H    0.970
    11   6 C    3.985 --    10 C    1.005    12 C    1.004    43 H    0.968
                            44 H    0.965
    12   6 C    3.912 --    11 C    1.004    46 H    0.961    45 H    0.952
                            13 N    0.916
    13   7 N    3.809 --    21 C    0.958    20 C    0.958    14 C    0.938
                            12 C    0.916
    14   6 C    3.943 --    15 C    1.001    47 H    0.963    48 H    0.961
                            13 N    0.938
    15   6 C    3.934 --    14 C    1.001    16 O    0.962    49 H    0.957
                            50 H    0.956
    16   8 O    2.291 --    17 C    1.097    15 C    0.962    18 O    0.161
    17   6 C    3.908 --    18 O    1.736    16 O    1.097    19 C    1.014
    18   8 O    2.040 --    17 C    1.736    16 O    0.161
    19   6 C    3.984 --    17 C    1.014    51 H    0.974    53 H    0.966
                            52 H    0.936
    20   6 C    3.927 --    56 H    0.975    55 H    0.975    54 H    0.969
                            13 N    0.958
    21   6 C    3.928 --    59 H    0.976    57 H    0.973    58 H    0.971
                            13 N    0.958
    22   1 H    0.999 --     1 C    0.986
    23   1 H    0.999 --     1 C    0.987
    24   1 H    0.999 --     1 C    0.988
    25   1 H    0.999 --     2 C    0.976
    26   1 H    0.999 --     2 C    0.978
    27   1 H    0.999 --     3 C    0.976
    28   1 H    0.999 --     3 C    0.977
    29   1 H    0.999 --     4 C    0.975
    30   1 H    0.999 --     4 C    0.975
    31   1 H    0.999 --     5 C    0.975
    32   1 H    0.999 --     5 C    0.974
    33   1 H    0.999 --     6 C    0.975
    34   1 H    0.999 --     6 C    0.974
    35   1 H    0.999 --     7 C    0.975
    36   1 H    0.998 --     7 C    0.974
    37   1 H    0.999 --     8 C    0.974
    38   1 H    0.998 --     8 C    0.974
    39   1 H    0.999 --     9 C    0.973
    40   1 H    0.997 --     9 C    0.972
    41   1 H    0.999 --    10 C    0.975
    42   1 H    0.996 --    10 C    0.970
    43   1 H    0.998 --    11 C    0.968
    44   1 H    0.994 --    11 C    0.965
    45   1 H    0.988 --    12 C    0.952
    46   1 H    0.992 --    12 C    0.961
    47   1 H    0.990 --    14 C    0.963
    48   1 H    0.991 --    14 C    0.961
    49   1 H    0.991 --    15 C    0.957
    50   1 H    0.992 --    15 C    0.956
    51   1 H    0.992 --    19 C    0.974
    52   1 H    0.987 --    19 C    0.936
    53   1 H    0.990 --    19 C    0.966
    54   1 H    0.989 --    20 C    0.969
    55   1 H    0.991 --    20 C    0.975
    56   1 H    0.991 --    20 C    0.975
    57   1 H    0.989 --    21 C    0.973
    58   1 H    0.989 --    21 C    0.971
    59   1 H    0.991 --    21 C    0.976
 ---------------------------------------------------------------------------

molecular dipole:
                 x           y           z       tot (Debye)
 q only:      -11.109      -0.342     -16.603
   full:      -11.238      -0.286     -16.762      51.298

           -------------------------------------------------
          | TOTAL ENERGY              -68.613667183811 Eh   |
          | GRADIENT NORM               0.000434317976 Eh/α |
          | HOMO-LUMO GAP               2.861618456138 eV   |
           -------------------------------------------------

 * finished run on 2024/12/20 at 07:12:12.405
