   * xtb version 6.7.1 (edcfbbe) compiled by 'conda@3ef47c1a292c' on 2024-11-25

   ID    Z sym.   atoms
    1    6 C      1-20, 22, 23, 25, 26
    2    7 N      21, 24
    3    1 H      27-73

          program call               : xtb C1129.xyz --opt --namespace C1129 --charge +1
          :  Hamiltonian                  GFN2-xTB          :
 * total energy  :   -80.8716320 Eh     change       -0.1894634E-08 Eh
 * total energy  :   -80.8759830 Eh     change       -0.4350932E-02 Eh
 * total energy  :   -80.8767905 Eh     change       -0.8075180E-03 Eh
 * total energy  :   -80.8769653 Eh     change       -0.1747847E-03 Eh
 * total energy  :   -80.8771414 Eh     change       -0.1761027E-03 Eh
 * total energy  :   -80.8772349 Eh     change       -0.9349614E-04 Eh
 * total energy  :   -80.8773781 Eh     change       -0.1432394E-03 Eh
 * total energy  :   -80.8775924 Eh     change       -0.2142485E-03 Eh
 * total energy  :   -80.8778261 Eh     change       -0.2337366E-03 Eh
 * total energy  :   -80.8780363 Eh     change       -0.2101549E-03 Eh
 * total energy  :   -80.8803145 Eh     change       -0.3873132E-04 Eh
 * total energy  :   -80.8803311 Eh     change       -0.1663849E-04 Eh
 * total energy  :   -80.8803493 Eh     change       -0.1823558E-04 Eh
 * total energy  :   -80.8803773 Eh     change       -0.2794142E-04 Eh
 * total energy  :   -80.8803857 Eh     change       -0.8421577E-05 Eh
 * total energy  :   -80.8803941 Eh     change       -0.8436002E-05 Eh
 * total energy  :   -80.8804005 Eh     change       -0.6366070E-05 Eh
 * total energy  :   -80.8804085 Eh     change       -0.7979174E-05 Eh
 * total energy  :   -80.8804133 Eh     change       -0.4815494E-05 Eh
   *** GEOMETRY OPTIMIZATION CONVERGED AFTER 40 ITERATIONS ***

 final structure:
================
73
 xtb: 6.7.1 (edcfbbe)
C            1.12439630009895       -0.77718322566804        0.05971233247250
C            1.17913416306686       -0.40782129990815        1.53730037500569
C            1.50393507879031        1.06706089329392        1.77877991618584
C            0.47527706196963        2.05467239414923        1.22367425874725
C           -0.94645545131170        1.87916179134273        1.76061942957299
C           -1.08226839216993        1.99273205550033        3.28008293352953
C           -0.63028665358738        3.32922247119309        3.87177370504907
C           -1.36443439235168        4.55799603266264        3.33106282978100
C           -2.88478827810768        4.52981486575542        3.50011667020248
C           -3.37252575435939        4.37844001776179        4.94201156973473
C           -2.92758102785589        5.48866255121533        5.89568184180468
C           -3.38044476225095        6.89724813354628        5.50613726148511
C           -4.89338551855161        7.07392076869364        5.36020806620742
C           -5.71078717918126        6.70470248656904        6.59975817733615
C           -5.35460942719773        7.48559955768157        7.86607866920800
C           -5.53178181006749        9.00161686370366        7.76214376808308
C           -6.94712604115781        9.46564942930047        7.40797027965931
C           -8.04555484764633        8.96034104613848        8.34734655822745
C           -7.85952731496743        9.33564724392041        9.81742034716305
C           -7.93512339032339       10.84346008441291       10.08657330452010
N           -9.26059987145360       11.34910809557439        9.81434543081963
C          -10.32098719639363       11.28602564792390       10.66546920148848
C          -11.40141323035390       11.79016152964131       10.00725332280567
N          -10.98462819494406       12.14806715513022        8.76071896176974
C           -9.68700649260298       11.86777081318569        8.66653809630085
C          -11.81425155837396       12.72969728218098        7.73968167829213
H            0.29970482835560       -0.27515044919039       -0.43976704356391
H            0.98615384614331       -1.84994945298979       -0.05590077292777
H            2.05067764872054       -0.49614731756384       -0.43711019356530
H            0.22923127395556       -0.66132758068351        2.01103446009951
H            1.95302872398717       -1.00867953301484        2.02169809714312
H            1.61599082701208        1.22844406244881        2.85297925345277
H            2.46928154489124        1.29011893709523        1.31668020628348
H            0.82147243247896        3.06672664308266        1.44468190911118
H            0.44182862397646        1.96142430761293        0.13629262954397
H           -1.58532781412045        2.62644830218058        1.28452642095957
H           -1.32488779403194        0.90054838490426        1.45822377566246
H           -2.12797746140326        1.81760098838183        3.54323316930601
H           -0.49966853787407        1.19870389199461        3.75153307715143
H           -0.75624257958080        3.28224265215630        4.95598382793397
H            0.43679934132184        3.46204163524870        3.68261637610502
H           -0.96164195945050        5.44296078560943        3.82932489624981
H           -1.14472393307344        4.66617553924908        2.26699760989638
H           -3.29319727040473        5.44942431908706        3.07443557260114
H           -3.29307873883421        3.70212342034826        2.91680214954516
H           -4.46380372470547        4.32718496714115        4.93021505563789
H           -3.01535125158647        3.42735686273371        5.34116915744049
H           -3.30166478285382        5.25136664153492        6.89449083780471
H           -1.83788029646781        5.49013901901920        5.95813307914242
H           -3.00347928127844        7.59725585216599        6.25581905133499
H           -2.91696431177334        7.17128487485103        4.55659960851242
H           -5.09221219942964        8.11356738126538        5.08790913375475
H           -5.24471420228782        6.45731720033774        4.53102591262730
H           -6.76942167259418        6.84586817376943        6.36741102358155
H           -5.57294545727015        5.64340122524884        6.81158238354818
H           -5.96049093888251        7.10053574555232        8.69002354673849
H           -4.31277323201926        7.28877997291151        8.12208018161287
H           -5.22340867158649        9.45161211342555        8.70928778130652
H           -4.85535272528604        9.38519668859417        6.99732287855443
H           -6.94865677873278       10.55929797848820        7.37766363414163
H           -7.18854064157299        9.12295113659642        6.40121156124463
H           -9.01356228490149        9.32865698796438        7.99196792886785
H           -8.08224419590615        7.87319421877169        8.28546170782222
H           -8.62094401382214        8.83051877620242       10.41549726529319
H           -6.88682974335656        8.98739036043134       10.16043210964594
H           -7.70269984963030       11.04420357886013       11.13414005036464
H           -7.22072543983662       11.37561396946092        9.45758996369795
H          -10.23998825385247       10.90293013041698       11.66269940831739
H          -12.41287082456789       11.91711384798892       10.33563223813567
H           -9.07611225830513       12.04329048433151        7.80214199776247
H          -12.29180129042825       13.63443739468013        8.11711261069452
H          -11.21096341446571       12.98108528072303        6.87019530035510
H          -12.59318708337723       12.02625491570285        7.44184018554868

          :  Hamiltonian                  GFN2-xTB          :
         :: total energy             -80.880413285308 Eh    ::
         :: gradient norm              0.000680031719 Eh/a0 ::
         :: HOMO-LUMO gap              0.978821198575 eV    ::
         :: SCC energy               -82.089394234510 Eh    ::
         :: -> dispersion             -0.062710293235 Eh    ::
         :: repulsion energy           1.208980949202 Eh    ::

    * Orbital Energies and Occupations

         #    Occupation            Energy/Eh            Energy/eV
      -------------------------------------------------------------
         1        2.0000           -0.8960401             -24.3825
       ...           ...                  ...                  ...
        64        2.0000           -0.4892609             -13.3135
        65        2.0000           -0.4859578             -13.2236
        66        2.0000           -0.4826434             -13.1334
        67        2.0000           -0.4768819             -12.9766
        68        2.0000           -0.4723159             -12.8524
        69        2.0000           -0.4704057             -12.8004
        70        2.0000           -0.4669781             -12.7071
        71        2.0000           -0.4587095             -12.4821
        72        2.0000           -0.4574207             -12.4471
        73        2.0000           -0.4557816             -12.4024
        74        2.0000           -0.4489508             -12.2166
        75        2.0000           -0.4425880             -12.0434
        76        2.0000           -0.4416798             -12.0187 (HOMO)
        77                         -0.4057088             -11.0399 (LUMO)
        78                         -0.3706522             -10.0860
        79                         -0.1826725              -4.9708
        80                         -0.1279324              -3.4812
        81                         -0.0620380              -1.6881
        82                         -0.0579823              -1.5778
        83                         -0.0381674              -1.0386
        84                         -0.0292230              -0.7952
        85                         -0.0207468              -0.5645
        86                         -0.0168412              -0.4583
        87                         -0.0073854              -0.2010
       ...                                ...                  ...
       151                          0.4630407              12.6000
      -------------------------------------------------------------
                  HL-Gap            0.0359710 Eh            0.9788 eV

     #   Z          covCN         q      C6AA      α(0)
     1   6 C        3.751    -0.101    22.493     6.764
     2   6 C        3.799    -0.052    21.504     6.603
     3   6 C        3.800    -0.057    21.595     6.616
     4   6 C        3.800    -0.056    21.588     6.615
     5   6 C        3.800    -0.056    21.578     6.614
     6   6 C        3.800    -0.056    21.583     6.615
     7   6 C        3.800    -0.056    21.581     6.614
     8   6 C        3.800    -0.056    21.580     6.614
     9   6 C        3.800    -0.056    21.582     6.614
    10   6 C        3.800    -0.056    21.590     6.616
    11   6 C        3.800    -0.057    21.596     6.617
    12   6 C        3.800    -0.057    21.598     6.617
    13   6 C        3.800    -0.057    21.599     6.617
    14   6 C        3.800    -0.058    21.620     6.620
    15   6 C        3.800    -0.060    21.660     6.626
    16   6 C        3.800    -0.061    21.675     6.629
    17   6 C        3.800    -0.061    21.671     6.628
    18   6 C        3.800    -0.065    21.745     6.639
    19   6 C        3.802    -0.071    21.849     6.655
    20   6 C        3.742    -0.028    21.145     6.560
    21   7 N        2.869     0.072    19.983     6.639
    22   6 C        3.074    -0.006    28.088     8.690
    23   6 C        3.072    -0.009    28.169     8.702
    24   7 N        2.867     0.075    19.938     6.632
    25   6 C        3.099     0.047    26.835     8.489
    26   6 C        3.692    -0.086    22.329     6.761
    27   1 H        0.925     0.034     2.531     2.488
    28   1 H        0.925     0.031     2.576     2.510
    29   1 H        0.925     0.033     2.541     2.493
    30   1 H        0.924     0.030     2.581     2.512
    31   1 H        0.924     0.026     2.642     2.542
    32   1 H        0.924     0.028     2.613     2.528
    33   1 H        0.924     0.028     2.616     2.529
    34   1 H        0.924     0.028     2.621     2.532
    35   1 H        0.924     0.030     2.580     2.512
    36   1 H        0.924     0.027     2.636     2.539
    37   1 H        0.924     0.030     2.582     2.513
    38   1 H        0.924     0.026     2.642     2.542
    39   1 H        0.924     0.031     2.575     2.509
    40   1 H        0.924     0.026     2.646     2.544
    41   1 H        0.924     0.031     2.572     2.508
    42   1 H        0.924     0.026     2.649     2.545
    43   1 H        0.924     0.031     2.571     2.508
    44   1 H        0.924     0.025     2.658     2.550
    45   1 H        0.924     0.032     2.563     2.504
    46   1 H        0.924     0.025     2.663     2.552
    47   1 H        0.924     0.033     2.541     2.493
    48   1 H        0.924     0.025     2.660     2.551
    49   1 H        0.924     0.034     2.528     2.486
    50   1 H        0.924     0.025     2.666     2.553
    51   1 H        0.924     0.035     2.523     2.484
    52   1 H        0.924     0.023     2.696     2.568
    53   1 H        0.924     0.036     2.505     2.475
    54   1 H        0.924     0.022     2.702     2.571
    55   1 H        0.924     0.039     2.457     2.451
    56   1 H        0.924     0.024     2.669     2.555
    57   1 H        0.924     0.043     2.406     2.426
    58   1 H        0.924     0.024     2.672     2.556
    59   1 H        0.924     0.046     2.374     2.409
    60   1 H        0.924     0.014     2.827     2.629
    61   1 H        0.924     0.049     2.337     2.391
    62   1 H        0.924     0.018     2.769     2.602
    63   1 H        0.925     0.064     2.151     2.293
    64   1 H        0.924     0.051     2.305     2.374
    65   1 H        0.925     0.081     1.967     2.193
    66   1 H        0.924     0.087     1.910     2.161
    67   1 H        0.924     0.089     1.886     2.148
    68   1 H        0.926     0.109     1.709     2.044
    69   1 H        0.926     0.109     1.705     2.042
    70   1 H        0.926     0.114     1.663     2.017
    71   1 H        0.924     0.107     1.724     2.053
    72   1 H        0.925     0.099     1.793     2.094
    73   1 H        0.924     0.107     1.726     2.054

Wiberg/Mayer (AO) data.
largest (>0.10) Wiberg bond orders for each atom

     #   Z sym  total        # sym  WBO       # sym  WBO       # sym  WBO
 ---------------------------------------------------------------------------
     1   6 C    3.997 --     2 C    1.020    29 H    0.988    28 H    0.988
                            27 H    0.986
     2   6 C    3.998 --     1 C    1.020     3 C    1.008    31 H    0.979
                            30 H    0.976
     3   6 C    3.998 --     2 C    1.008     4 C    1.008    33 H    0.977
                            32 H    0.976
     4   6 C    3.998 --     5 C    1.008     3 C    1.008    35 H    0.976
                            34 H    0.975
     5   6 C    3.998 --     4 C    1.008     6 C    1.008    36 H    0.975
                            37 H    0.975
     6   6 C    3.998 --     5 C    1.008     7 C    1.008    38 H    0.975
                            39 H    0.975
     7   6 C    3.998 --     6 C    1.008     8 C    1.008    40 H    0.975
                            41 H    0.975
     8   6 C    3.998 --     9 C    1.008     7 C    1.008    42 H    0.976
                            43 H    0.975
     9   6 C    3.998 --    10 C    1.008     8 C    1.008    44 H    0.975
                            45 H    0.975
    10   6 C    3.997 --     9 C    1.008    11 C    1.008    46 H    0.975
                            47 H    0.974
    11   6 C    3.997 --    10 C    1.008    12 C    1.008    48 H    0.975
                            49 H    0.975
    12   6 C    3.997 --    11 C    1.008    13 C    1.007    50 H    0.976
                            51 H    0.975
    13   6 C    3.997 --    14 C    1.008    12 C    1.007    52 H    0.976
                            53 H    0.975
    14   6 C    3.997 --    15 C    1.008    13 C    1.008    54 H    0.975
                            55 H    0.974
    15   6 C    3.996 --    14 C    1.008    16 C    1.008    56 H    0.975
                            57 H    0.973
    16   6 C    3.996 --    15 C    1.008    17 C    1.007    58 H    0.975
                            59 H    0.973
    17   6 C    3.995 --    18 C    1.007    16 C    1.007    60 H    0.974
                            61 H    0.973
    18   6 C    3.993 --    19 C    1.009    17 C    1.007    62 H    0.974
                            63 H    0.968
    19   6 C    3.982 --    18 C    1.009    20 C    0.980    64 H    0.975
                            65 H    0.962
    20   6 C    3.934 --    19 C    0.980    21 N    0.967    66 H    0.964
                            67 H    0.962
    21   7 N    3.720 --    25 C    1.363    22 C    1.231    20 C    0.967
    22   6 C    3.951 --    23 C    1.592    21 N    1.231    68 H    0.961
    23   6 C    3.948 --    22 C    1.592    24 N    1.227    69 H    0.961
    24   7 N    3.719 --    25 C    1.357    23 C    1.227    26 C    0.991
    25   6 C    3.946 --    21 N    1.363    24 N    1.357    70 H    0.952
    26   6 C    3.934 --    24 N    0.991    72 H    0.976    71 H    0.963
                            73 H    0.962
    27   1 H    0.999 --     1 C    0.986
    28   1 H    0.999 --     1 C    0.988
    29   1 H    0.999 --     1 C    0.988
    30   1 H    0.999 --     2 C    0.976
    31   1 H    0.999 --     2 C    0.979
    32   1 H    0.999 --     3 C    0.976
    33   1 H    0.999 --     3 C    0.977
    34   1 H    0.999 --     4 C    0.975
    35   1 H    0.999 --     4 C    0.976
    36   1 H    0.999 --     5 C    0.975
    37   1 H    0.999 --     5 C    0.975
    38   1 H    0.999 --     6 C    0.975
    39   1 H    0.999 --     6 C    0.975
    40   1 H    0.999 --     7 C    0.975
    41   1 H    0.999 --     7 C    0.975
    42   1 H    0.999 --     8 C    0.976
    43   1 H    0.999 --     8 C    0.975
    44   1 H    0.999 --     9 C    0.975
    45   1 H    0.999 --     9 C    0.975
    46   1 H    0.999 --    10 C    0.975
    47   1 H    0.999 --    10 C    0.974
    48   1 H    0.999 --    11 C    0.975
    49   1 H    0.999 --    11 C    0.975
    50   1 H    0.999 --    12 C    0.976
    51   1 H    0.999 --    12 C    0.975
    52   1 H    0.999 --    13 C    0.976
    53   1 H    0.999 --    13 C    0.975
    54   1 H    0.999 --    14 C    0.975
    55   1 H    0.998 --    14 C    0.974
    56   1 H    0.999 --    15 C    0.975
    57   1 H    0.998 --    15 C    0.973
    58   1 H    0.999 --    16 C    0.975
    59   1 H    0.998 --    16 C    0.973
    60   1 H    1.000 --    17 C    0.974
    61   1 H    0.998 --    17 C    0.973
    62   1 H    1.000 --    18 C    0.974
    63   1 H    0.996 --    18 C    0.968
    64   1 H    0.997 --    19 C    0.975
    65   1 H    0.992 --    19 C    0.962
    66   1 H    0.992 --    20 C    0.964
    67   1 H    0.992 --    20 C    0.962
    68   1 H    0.988 --    22 C    0.961
    69   1 H    0.988 --    23 C    0.961
    70   1 H    0.987 --    25 C    0.952
    71   1 H    0.988 --    26 C    0.963
    72   1 H    0.990 --    26 C    0.976
    73   1 H    0.988 --    26 C    0.962
 ---------------------------------------------------------------------------

molecular dipole:
                 x           y           z       tot (Debye)
 q only:      -18.522      21.487      17.086
   full:      -18.571      21.608      17.099      84.460

           -------------------------------------------------
          | TOTAL ENERGY              -80.880413285308 Eh   |
          | GRADIENT NORM               0.000680031719 Eh/α |
          | HOMO-LUMO GAP               0.978821198575 eV   |
           -------------------------------------------------

 * finished run on 2024/12/20 at 07:12:18.638
