   * xtb version 6.7.1 (edcfbbe) compiled by 'conda@3ef47c1a292c' on 2024-11-25

   ID    Z sym.   atoms
    1    6 C      1, 3, 4, 6, 7, 9, 10
    2    8 O      2, 8
    3    7 N      5
    4    1 H      11-26

          program call               : xtb C1121.xyz --opt --namespace C1121 --charge +1
          :  Hamiltonian                  GFN2-xTB          :
 * total energy  :   -33.7647124 Eh     change       -0.5098144E-10 Eh
 * total energy  :   -33.7703051 Eh     change       -0.5592730E-02 Eh
 * total energy  :   -33.7718944 Eh     change       -0.1589267E-02 Eh
 * total energy  :   -33.7724398 Eh     change       -0.5454766E-03 Eh
 * total energy  :   -33.7732579 Eh     change       -0.8180832E-03 Eh
 * total energy  :   -33.7738184 Eh     change       -0.5604450E-03 Eh
 * total energy  :   -33.7747113 Eh     change       -0.8929080E-03 Eh
 * total energy  :   -33.7749765 Eh     change       -0.2652675E-03 Eh
 * total energy  :   -33.7751463 Eh     change       -0.1697916E-03 Eh
 * total energy  :   -33.7753462 Eh     change       -0.1998532E-03 Eh
 * total energy  :   -33.7758934 Eh     change       -0.3034074E-04 Eh
 * total energy  :   -33.7759286 Eh     change       -0.3522775E-04 Eh
 * total energy  :   -33.7759620 Eh     change       -0.3341709E-04 Eh
 * total energy  :   -33.7759883 Eh     change       -0.2632420E-04 Eh
 * total energy  :   -33.7760095 Eh     change       -0.2112574E-04 Eh
 * total energy  :   -33.7760231 Eh     change       -0.1360875E-04 Eh
 * total energy  :   -33.7760315 Eh     change       -0.8413470E-05 Eh
 * total energy  :   -33.7760396 Eh     change       -0.8123251E-05 Eh
 * total energy  :   -33.7760437 Eh     change       -0.4111152E-05 Eh
   *** GEOMETRY OPTIMIZATION CONVERGED AFTER 24 ITERATIONS ***

 final structure:
================
26
 xtb: 6.7.1 (edcfbbe)
C            0.51646587877436        0.72170121908592        2.05674999749777
O            0.76827139659838       -0.65401297911818        2.27132393195070
C            1.46962183904086       -1.30703608328966        1.25763886695388
C            0.47449559568680       -1.81607635793597        0.18759298003884
N            1.06601905350783       -2.35492573669342       -1.06863002545786
C            2.09183390200458       -3.36849618835381       -0.79069843366280
C            1.59091719584193       -1.21297415130852       -1.91295663203219
O            0.45925908338016       -0.63787630608819       -2.42760515194926
C           -0.33055417941594       -1.70957647182669       -2.91312631667931
C           -0.02808828833611       -2.87673182892365       -1.94532282323563
H            0.02359684261133        1.07426164019495        2.95864900106345
H           -0.14003427417138        0.89652741342952        1.19862089072688
H            1.45122130615657        1.27372197135302        1.91586582439795
H            2.22825943924491       -0.64294439848535        0.81882731274485
H            1.96984009654070       -2.14944829949866        1.74408537376415
H           -0.12947913368185       -2.59699817722143        0.65371347179777
H           -0.18331465968263       -0.98912997391493       -0.09326547553840
H            2.92852895450266       -2.91894316717039       -0.26099014353744
H            1.66935405520070       -4.16352893679404       -0.17859167573123
H            2.46079967707668       -3.79697890806471       -1.72152811012614
H            2.24327527931456       -1.64678229807571       -2.68633227955426
H            2.13907993909578       -0.47827816139372       -1.32328714135644
H           -1.37093641029869       -1.38656674387543       -2.90095550508824
H           -0.04415220572027       -1.96149795682631       -3.94004091918618
H           -0.89535405432158       -3.15193827339104       -1.34854837251724
H            0.32012367104919       -3.75715084581394       -2.48432864528351

          :  Hamiltonian                  GFN2-xTB          :
         :: total energy             -33.776043729695 Eh    ::
         :: gradient norm              0.000890102295 Eh/a0 ::
         :: HOMO-LUMO gap              7.566511116969 eV    ::
         :: SCC energy               -34.131084085733 Eh    ::
         :: -> dispersion             -0.017691744726 Eh    ::
         :: repulsion energy           0.355040356039 Eh    ::

    * Orbital Energies and Occupations

         #    Occupation            Energy/Eh            Energy/eV
      -------------------------------------------------------------
         1        2.0000           -0.9078166             -24.7029
       ...           ...                  ...                  ...
        18        2.0000           -0.6831907             -18.5906
        19        2.0000           -0.6756958             -18.3866
        20        2.0000           -0.6716505             -18.2765
        21        2.0000           -0.6673919             -18.1607
        22        2.0000           -0.6585014             -17.9187
        23        2.0000           -0.6545626             -17.8116
        24        2.0000           -0.6476418             -17.6232
        25        2.0000           -0.6367269             -17.3262
        26        2.0000           -0.6233217             -16.9614
        27        2.0000           -0.5977381             -16.2653
        28        2.0000           -0.5899651             -16.0538
        29        2.0000           -0.5769421             -15.6994
        30        2.0000           -0.5352469             -14.5648 (HOMO)
        31                         -0.2571828              -6.9983 (LUMO)
        32                         -0.2284726              -6.2171
        33                         -0.1847237              -5.0266
        34                         -0.1744023              -4.7457
        35                         -0.1073474              -2.9211
        36                         -0.1023324              -2.7846
        37                         -0.0839873              -2.2854
        38                         -0.0770955              -2.0979
        39                         -0.0696772              -1.8960
        40                         -0.0424631              -1.1555
        41                         -0.0334939              -0.9114
       ...                                ...                  ...
        56                          0.1542063               4.1962
      -------------------------------------------------------------
                  HL-Gap            0.2780642 Eh            7.5665 eV

     #   Z          covCN         q      C6AA      α(0)
     1   6 C        3.644     0.023    20.525     6.512
     2   8 O        1.701    -0.289    18.806     5.855
     3   6 C        3.693     0.068    19.604     6.335
     4   6 C        3.754    -0.050    21.521     6.615
     5   7 N        3.625     0.100    19.512     6.561
     6   6 C        3.701    -0.099    22.551     6.790
     7   6 C        3.776     0.112    18.770     6.173
     8   8 O        1.706    -0.256    18.247     5.767
     9   6 C        3.794     0.053    19.693     6.319
    10   6 C        3.788    -0.046    21.404     6.589
    11   1 H        0.925     0.089     1.884     2.147
    12   1 H        0.924     0.038     2.479     2.462
    13   1 H        0.924     0.048     2.350     2.397
    14   1 H        0.923     0.040     2.448     2.447
    15   1 H        0.924     0.075     2.029     2.228
    16   1 H        0.924     0.097     1.814     2.106
    17   1 H        0.924     0.106     1.734     2.059
    18   1 H        0.925     0.103     1.754     2.071
    19   1 H        0.925     0.110     1.695     2.036
    20   1 H        0.925     0.102     1.765     2.078
    21   1 H        0.923     0.079     1.991     2.207
    22   1 H        0.925     0.106     1.730     2.057
    23   1 H        0.925     0.105     1.739     2.062
    24   1 H        0.924     0.080     1.975     2.198
    25   1 H        0.925     0.104     1.753     2.071
    26   1 H        0.925     0.100     1.786     2.090

Wiberg/Mayer (AO) data.
largest (>0.10) Wiberg bond orders for each atom

     #   Z sym  total        # sym  WBO       # sym  WBO       # sym  WBO
 ---------------------------------------------------------------------------
     1   6 C    3.934 --     2 O    0.980    13 H    0.977    12 H    0.977
                            11 H    0.975
     2   8 O    2.098 --     3 C    1.017     1 C    0.980
     3   6 C    3.964 --     2 O    1.017     4 C    0.978    15 H    0.966
                            14 H    0.960
     4   6 C    3.917 --     3 C    0.978    16 H    0.966    17 H    0.960
                             5 N    0.930
     5   7 N    3.796 --     6 C    0.963    10 C    0.938     4 C    0.930
                             7 C    0.896
     6   6 C    3.923 --    19 H    0.973    20 H    0.973    18 H    0.972
                             5 N    0.963
     7   6 C    3.922 --     8 O    1.052    22 H    0.955    21 H    0.954
                             5 N    0.896
     8   8 O    2.140 --     7 C    1.052     9 C    0.970
     9   6 C    3.931 --    10 C    0.990     8 O    0.970    24 H    0.967
                            23 H    0.967
    10   6 C    3.931 --     9 C    0.990    26 H    0.969    25 H    0.968
                             5 N    0.938
    11   1 H    0.992 --     1 C    0.975
    12   1 H    0.999 --     1 C    0.977
    13   1 H    0.998 --     1 C    0.977
    14   1 H    0.998 --     3 C    0.960
    15   1 H    0.994 --     3 C    0.966
    16   1 H    0.991 --     4 C    0.966
    17   1 H    0.989 --     4 C    0.960
    18   1 H    0.989 --     6 C    0.972
    19   1 H    0.988 --     6 C    0.973
    20   1 H    0.989 --     6 C    0.973
    21   1 H    0.994 --     7 C    0.954
    22   1 H    0.989 --     7 C    0.955
    23   1 H    0.989 --     9 C    0.967
    24   1 H    0.993 --     9 C    0.967
    25   1 H    0.989 --    10 C    0.968
    26   1 H    0.990 --    10 C    0.969
 ---------------------------------------------------------------------------

molecular dipole:
                 x           y           z       tot (Debye)
 q only:        1.922      -4.377      -2.240
   full:        2.077      -4.482      -2.413      13.975

           -------------------------------------------------
          | TOTAL ENERGY              -33.776043729695 Eh   |
          | GRADIENT NORM               0.000890102295 Eh/α |
          | HOMO-LUMO GAP               7.566511116969 eV   |
           -------------------------------------------------

 * finished run on 2024/12/20 at 07:11:52.192
