   * xtb version 6.7.1 (edcfbbe) compiled by 'conda@3ef47c1a292c' on 2024-11-25

   ID    Z sym.   atoms
    1    7 N      1, 19, 22, 32
    2    6 C      2, 4-18, 20, 21, 23-31
    3    8 O      3, 33, 34
    4    1 H      35-61

          program call               : xtb C1125.xyz --opt --namespace C1125 --charge +1
          :  Hamiltonian                  GFN2-xTB          :
 * total energy  :   -94.9947388 Eh     change       -0.2023356E-08 Eh
 * total energy  :   -95.0100107 Eh     change       -0.1527195E-01 Eh
 * total energy  :   -95.0142541 Eh     change       -0.4243362E-02 Eh
 * total energy  :   -95.0153009 Eh     change       -0.1046799E-02 Eh
 * total energy  :   -95.0158846 Eh     change       -0.5837658E-03 Eh
 * total energy  :   -95.0161331 Eh     change       -0.2484309E-03 Eh
 * total energy  :   -95.0164546 Eh     change       -0.3215368E-03 Eh
 * total energy  :   -95.0167411 Eh     change       -0.2864723E-03 Eh
 * total energy  :   -95.0172068 Eh     change       -0.4657265E-03 Eh
 * total energy  :   -95.0176322 Eh     change       -0.4253942E-03 Eh
 * total energy  :   -95.0225848 Eh     change       -0.3442508E-04 Eh
 * total energy  :   -95.0226155 Eh     change       -0.3069022E-04 Eh
 * total energy  :   -95.0226477 Eh     change       -0.3215824E-04 Eh
 * total energy  :   -95.0226830 Eh     change       -0.3536835E-04 Eh
 * total energy  :   -95.0227163 Eh     change       -0.3323007E-04 Eh
 * total energy  :   -95.0227430 Eh     change       -0.2679402E-04 Eh
 * total energy  :   -95.0227607 Eh     change       -0.1762024E-04 Eh
 * total energy  :   -95.0227757 Eh     change       -0.1505569E-04 Eh
 * total energy  :   -95.0227807 Eh     change       -0.4934102E-05 Eh
   *** GEOMETRY OPTIMIZATION CONVERGED AFTER 68 ITERATIONS ***

 final structure:
================
61
 xtb: 6.7.1 (edcfbbe)
N            1.91354833484597       -1.38039186125982        0.02058165368765
C            1.01621483731502       -0.98438519948375       -0.89611426623794
O           -0.13862471303259       -0.73738433159806       -0.59078732339344
C            1.50568329508755       -0.89454967411747       -2.35145131628721
C            1.94918111774137        0.54630379895462       -2.63095135543377
C            2.63981711723994        0.80734129542646       -3.81035986672220
C            3.04592915434616        2.09210855195775       -4.11783446729473
C            2.76475004757836        3.13637932819130       -3.25246830914819
C            2.06814064648683        2.88619719093901       -2.08448115213748
C            1.65841457510667        1.59905046492172       -1.77549557943253
C            2.69294516033213       -1.81063100691554       -2.60574737932201
C            2.60893031375043       -3.00119019178081       -3.31581251606493
C            3.73089424088690       -3.79169464976743       -3.51189969104967
C            4.95867159915811       -3.41042441788686       -3.00449031210903
C            5.06293805838405       -2.21579336032610       -2.31214727076721
C            3.94532878545520       -1.42485681964063       -2.12050625900552
C            0.30391221451583       -1.14274242856864       -3.29472933749268
C           -0.57980514851707       -2.36814297640479       -2.98831473426480
N           -1.75031159147200       -2.02485233478914       -2.20904380457268
C           -2.66068612655547       -1.07634707189258       -2.57350477710981
C           -3.56207126455225       -0.97649893890361       -1.56757159785696
N           -3.19019695897817       -1.86520040242590       -0.59832365473769
C           -2.08641064897584       -2.50160404269067       -1.00542566202688
C           -1.36408932500507       -3.57498378619737       -0.28812613120665
C           -3.95827657253459       -2.06437727123996        0.61450768096921
C           -5.18208145256785       -2.90310116819705        0.31930480821511
C           -6.43411797760725       -2.30730468026529        0.21876295170926
C           -7.54748018143847       -3.06745625891939       -0.08863978507289
C           -7.39635615285182       -4.42951004025370       -0.30220592934027
C           -6.15505407052449       -5.04156755537380       -0.20080727467025
C           -5.05046788233306       -4.27268603277324        0.10939224617438
N           -8.55895461570668       -5.23368318923385       -0.64249972792935
O           -9.62217553452860       -4.66521765123636       -0.70535412527986
O           -8.37204129412801       -6.41018646881705       -0.84402906228319
H            1.65900176034357       -1.32676211576000        0.99445731783532
H            2.88223480418952       -1.52385460862186       -0.21647049313303
H            2.87501694391223       -0.00243101612893       -4.48555247521663
H            3.58519782596321        2.27656293174063       -5.03411882015465
H            3.08673539375934        4.13852603108877       -3.48866337813744
H            1.84061495471752        3.69327479363577       -1.40499041255971
H            1.10638052488289        1.42967655240950       -0.86347327685116
H            1.67945069879293       -3.32553329248776       -3.75458389294432
H            3.63933826613451       -4.70858496828113       -4.07403055637152
H            5.82899940124961       -4.02781153883216       -3.16064923458664
H            6.01839610535767       -1.89043699761327       -1.93032729557272
H            4.05716132241277       -0.46957267239531       -1.62479452657328
H           -0.32048724852793       -0.24911858567339       -3.25660858964210
H            0.69167093115170       -1.22619727999362       -4.30941812866017
H           -0.93071559774345       -2.79986562093234       -3.93108351798414
H           -0.02187053491653       -3.12598650105670       -2.44067875830938
H           -2.60894975051623       -0.55416598562085       -3.50608558813359
H           -4.42237372431743       -0.34848942730827       -1.46738977499953
H           -1.79707026715407       -3.75492262537472        0.69038858891978
H           -1.39714028692835       -4.50408291164146       -0.85793326680968
H           -0.32095774486351       -3.29597000168139       -0.14758438417515
H           -3.33321746610355       -2.54475853121046        1.36823383356885
H           -4.25516951546312       -1.08241056486475        0.98934485939960
H           -6.54578787302608       -1.24785714363633        0.39202505564085
H           -8.52867860362870       -2.62503744991615       -0.16763365103795
H           -6.07575442174076       -6.10551553100087       -0.36334202361529
H           -4.08429388500727       -4.74504175818456        0.19731571752115

          :  Hamiltonian                  GFN2-xTB          :
         :: total energy             -95.022780657301 Eh    ::
         :: gradient norm              0.000303092592 Eh/a0 ::
         :: HOMO-LUMO gap              2.115950154607 eV    ::
         :: SCC energy               -96.490348627752 Eh    ::
         :: -> dispersion             -0.074845929350 Eh    ::
         :: repulsion energy           1.467567970451 Eh    ::

    * Orbital Energies and Occupations

         #    Occupation            Energy/Eh            Energy/eV
      -------------------------------------------------------------
         1        2.0000           -0.8672154             -23.5981
       ...           ...                  ...                  ...
        74        2.0000           -0.5406350             -14.7114
        75        2.0000           -0.5335324             -14.5182
        76        2.0000           -0.5306181             -14.4389
        77        2.0000           -0.5249183             -14.2838
        78        2.0000           -0.5191939             -14.1280
        79        2.0000           -0.5181068             -14.0984
        80        2.0000           -0.5156795             -14.0324
        81        2.0000           -0.5103230             -13.8866
        82        2.0000           -0.5056524             -13.7595
        83        2.0000           -0.5016811             -13.6514
        84        2.0000           -0.4929134             -13.4129
        85        2.0000           -0.4912652             -13.3680
        86        2.0000           -0.4846378             -13.1877 (HOMO)
        87                         -0.4068780             -11.0717 (LUMO)
        88                         -0.3771218             -10.2620
        89                         -0.3585196              -9.7558
        90                         -0.3453930              -9.3986
        91                         -0.3371131              -9.1733
        92                         -0.3253934              -8.8544
        93                         -0.3216850              -8.7535
        94                         -0.3208650              -8.7312
        95                         -0.3122612              -8.4971
        96                         -0.3088339              -8.4038
        97                         -0.2269136              -6.1746
       ...                                ...                  ...
       163                          0.5784457              15.7403
      -------------------------------------------------------------
                  HL-Gap            0.0777597 Eh            2.1160 eV

     #   Z          covCN         q      C6AA      α(0)
     1   7 N        2.637    -0.272    27.040     7.723
     2   6 C        2.749     0.287    22.142     7.705
     3   8 O        0.859    -0.474    23.224     6.461
     4   6 C        3.909    -0.019    20.857     6.491
     5   6 C        2.984     0.004    27.921     8.668
     6   6 C        2.924    -0.036    28.884     8.814
     7   6 C        2.920    -0.026    28.645     8.777
     8   6 C        2.920    -0.026    28.644     8.777
     9   6 C        2.920    -0.027    28.670     8.781
    10   6 C        2.922    -0.040    28.989     8.829
    11   6 C        2.972    -0.002    28.075     8.691
    12   6 C        2.923    -0.045    29.106     8.847
    13   6 C        2.920    -0.027    28.673     8.781
    14   6 C        2.919    -0.026    28.641     8.776
    15   6 C        2.918    -0.027    28.667     8.780
    16   6 C        2.926    -0.043    29.072     8.842
    17   6 C        3.810    -0.063    21.703     6.631
    18   6 C        3.739    -0.018    20.970     6.534
    19   7 N        2.877     0.053    20.317     6.695
    20   6 C        3.052    -0.004    28.063     8.688
    21   6 C        3.055    -0.009    28.191     8.708
    22   7 N        2.877     0.047    20.422     6.712
    23   6 C        3.100     0.121    25.219     8.230
    24   6 C        3.754    -0.129    23.026     6.842
    25   6 C        3.748    -0.027    21.115     6.554
    26   6 C        2.971     0.012    27.749     8.641
    27   6 C        2.924    -0.030    28.744     8.792
    28   6 C        2.917    -0.017    28.424     8.743
    29   6 C        2.918     0.009    27.812     8.648
    30   6 C        2.917    -0.019    28.476     8.751
    31   6 C        2.924    -0.034    28.847     8.808
    32   7 N        2.758     0.553    13.453     5.447
    33   8 O        0.930    -0.362    20.902     6.131
    34   8 O        0.930    -0.366    20.978     6.142
    35   1 H        0.860     0.200     1.104     1.646
    36   1 H        0.860     0.203     1.092     1.637
    37   1 H        0.926     0.034     2.537     2.491
    38   1 H        0.926     0.047     2.363     2.404
    39   1 H        0.926     0.048     2.340     2.392
    40   1 H        0.926     0.045     2.388     2.417
    41   1 H        0.926     0.035     2.521     2.483
    42   1 H        0.926     0.028     2.611     2.527
    43   1 H        0.926     0.044     2.393     2.419
    44   1 H        0.926     0.050     2.323     2.384
    45   1 H        0.926     0.047     2.364     2.404
    46   1 H        0.925     0.035     2.521     2.483
    47   1 H        0.924     0.069     2.099     2.265
    48   1 H        0.925     0.069     2.101     2.267
    49   1 H        0.924     0.077     2.008     2.216
    50   1 H        0.925     0.082     1.959     2.189
    51   1 H        0.927     0.100     1.786     2.090
    52   1 H        0.927     0.098     1.804     2.100
    53   1 H        0.925     0.087     1.904     2.158
    54   1 H        0.924     0.090     1.881     2.145
    55   1 H        0.925     0.100     1.787     2.090
    56   1 H        0.924     0.088     1.897     2.154
    57   1 H        0.924     0.095     1.836     2.119
    58   1 H        0.926     0.063     2.163     2.300
    59   1 H        0.926     0.098     1.800     2.098
    60   1 H        0.926     0.095     1.834     2.118
    61   1 H        0.926     0.054     2.276     2.359

Wiberg/Mayer (AO) data.
largest (>0.10) Wiberg bond orders for each atom

     #   Z sym  total        # sym  WBO       # sym  WBO       # sym  WBO
 ---------------------------------------------------------------------------
     1   7 N    3.395 --     2 C    1.293    35 H    0.937    36 H    0.917
                             3 O    0.195
     2   6 C    3.941 --     3 O    1.651     1 N    1.293     4 C    0.929
     3   8 O    1.965 --     2 C    1.651     1 N    0.195
     4   6 C    3.987 --    11 C    0.980    17 C    0.971     5 C    0.946
                             2 C    0.929
     5   6 C    3.981 --    10 C    1.425     6 C    1.404     4 C    0.946
                             8 C    0.110
     6   6 C    3.991 --     7 C    1.451     5 C    1.404    37 H    0.967
                             9 C    0.113
     7   6 C    3.990 --     6 C    1.451     8 C    1.432    38 H    0.970
                            10 C    0.110
     8   6 C    3.990 --     9 C    1.447     7 C    1.432    39 H    0.970
                             5 C    0.110
     9   6 C    3.991 --     8 C    1.447    10 C    1.433    40 H    0.970
                             6 C    0.113
    10   6 C    3.991 --     9 C    1.433     5 C    1.425    41 H    0.966
                             7 C    0.110
    11   6 C    3.986 --    12 C    1.423    16 C    1.389     4 C    0.980
                            14 C    0.110
    12   6 C    3.991 --    13 C    1.433    11 C    1.423    42 H    0.965
                            15 C    0.108
    13   6 C    3.991 --    14 C    1.447    12 C    1.433    43 H    0.970
                            16 C    0.111
    14   6 C    3.989 --    13 C    1.447    15 C    1.430    44 H    0.970
                            11 C    0.110
    15   6 C    3.991 --    16 C    1.451    14 C    1.430    45 H    0.970
                            12 C    0.108
    16   6 C    3.992 --    15 C    1.451    11 C    1.389    46 H    0.962
                            13 C    0.111
    17   6 C    3.984 --    18 C    0.986     4 C    0.971    48 H    0.970
                            47 H    0.967
    18   6 C    3.944 --    17 C    0.986    19 N    0.971    50 H    0.963
                            49 H    0.960
    19   7 N    3.698 --    23 C    1.331    20 C    1.210    18 C    0.971
    20   6 C    3.951 --    21 C    1.615    19 N    1.210    51 H    0.961
    21   6 C    3.948 --    20 C    1.615    22 N    1.201    52 H    0.963
    22   7 N    3.691 --    23 C    1.328    21 C    1.201    25 C    0.966
    23   6 C    3.952 --    19 N    1.331    22 N    1.328    24 C    1.042
    24   6 C    3.980 --    23 C    1.042    53 H    0.968    54 H    0.954
                            55 H    0.952
    25   6 C    3.945 --    26 C    0.987    22 N    0.966    57 H    0.960
                            56 H    0.955
    26   6 C    3.986 --    27 C    1.415    31 C    1.408    25 C    0.987
    27   6 C    3.989 --    28 C    1.445    26 C    1.415    58 H    0.965
                            30 C    0.108
    28   6 C    3.982 --    27 C    1.445    29 C    1.397    59 H    0.957
                            31 C    0.109
    29   6 C    3.969 --    28 C    1.397    30 C    1.391    32 N    0.943
    30   6 C    3.983 --    31 C    1.453    29 C    1.391    60 H    0.958
                            27 C    0.108
    31   6 C    3.991 --    30 C    1.453    26 C    1.408    61 H    0.966
                            28 C    0.109
    32   7 N    3.915 --    33 O    1.469    34 O    1.465    29 C    0.943
    33   8 O    1.960 --    32 N    1.469    34 O    0.379
    34   8 O    1.956 --    32 N    1.465    33 O    0.379
    35   1 H    0.959 --     1 N    0.937
    36   1 H    0.959 --     1 N    0.917
    37   1 H    0.999 --     6 C    0.967
    38   1 H    0.997 --     7 C    0.970
    39   1 H    0.997 --     8 C    0.970
    40   1 H    0.998 --     9 C    0.970
    41   1 H    0.999 --    10 C    0.966
    42   1 H    0.999 --    12 C    0.965
    43   1 H    0.998 --    13 C    0.970
    44   1 H    0.997 --    14 C    0.970
    45   1 H    0.997 --    15 C    0.970
    46   1 H    0.999 --    16 C    0.962
    47   1 H    0.995 --    17 C    0.967
    48   1 H    0.994 --    17 C    0.970
    49   1 H    0.993 --    18 C    0.960
    50   1 H    0.993 --    18 C    0.963
    51   1 H    0.989 --    20 C    0.961
    52   1 H    0.990 --    21 C    0.963
    53   1 H    0.992 --    24 C    0.968
    54   1 H    0.992 --    24 C    0.954
    55   1 H    0.990 --    24 C    0.952
    56   1 H    0.991 --    25 C    0.955
    57   1 H    0.990 --    25 C    0.960
    58   1 H    0.995 --    27 C    0.965
    59   1 H    0.990 --    28 C    0.957
    60   1 H    0.991 --    30 C    0.958
    61   1 H    0.997 --    31 C    0.966
 ---------------------------------------------------------------------------

molecular dipole:
                 x           y           z       tot (Debye)
 q only:       -0.987      -3.224      -2.280
   full:       -0.636      -3.144      -2.196       9.882

           -------------------------------------------------
          | TOTAL ENERGY              -95.022780657301 Eh   |
          | GRADIENT NORM               0.000303092592 Eh/α |
          | HOMO-LUMO GAP               2.115950154607 eV   |
           -------------------------------------------------

 * finished run on 2024/12/20 at 07:12:03.173
