   * xtb version 6.7.1 (edcfbbe) compiled by 'conda@3ef47c1a292c' on 2024-11-25

   ID    Z sym.   atoms
    1    6 C      1-4, 6-14
    2    7 N      5
    3    1 H      15-44

          program call               : xtb C1128.xyz --opt --namespace C1128 --charge +1
          :  Hamiltonian                  GFN2-xTB          :
 * total energy  :   -45.6618620 Eh     change       -0.6264145E-10 Eh
 * total energy  :   -45.6685131 Eh     change       -0.6651084E-02 Eh
 * total energy  :   -45.6701005 Eh     change       -0.1587436E-02 Eh
 * total energy  :   -45.6702020 Eh     change       -0.1014901E-03 Eh
 * total energy  :   -45.6702718 Eh     change       -0.6976536E-04 Eh
 * total energy  :   -45.6703121 Eh     change       -0.4033289E-04 Eh
 * total energy  :   -45.6703718 Eh     change       -0.5972686E-04 Eh
 * total energy  :   -45.6704398 Eh     change       -0.6801284E-04 Eh
 * total energy  :   -45.6705243 Eh     change       -0.8444978E-04 Eh
 * total energy  :   -45.6705690 Eh     change       -0.4468739E-04 Eh
 * total energy  :   -45.6735390 Eh     change       -0.1762870E-04 Eh
 * total energy  :   -45.6735482 Eh     change       -0.9221223E-05 Eh
 * total energy  :   -45.6735545 Eh     change       -0.6272622E-05 Eh
 * total energy  :   -45.6735603 Eh     change       -0.5808643E-05 Eh
 * total energy  :   -45.6735690 Eh     change       -0.8740129E-05 Eh
 * total energy  :   -45.6735789 Eh     change       -0.9924087E-05 Eh
 * total energy  :   -45.6735876 Eh     change       -0.8662376E-05 Eh
 * total energy  :   -45.6735929 Eh     change       -0.5275638E-05 Eh
 * total energy  :   -45.6735952 Eh     change       -0.2282387E-05 Eh
   *** GEOMETRY OPTIMIZATION CONVERGED AFTER 67 ITERATIONS ***

 final structure:
================
44
 xtb: 6.7.1 (edcfbbe)
C            2.45085701746675       -0.54456960646911        0.52298828797462
C            1.22898950761177       -0.98002269658785        1.32369147250545
C            0.93602494757378       -0.05415135098097        2.51042264853782
C            0.44452291463992        1.34436215999023        2.11409130464727
N           -1.02684284458564        1.59564323992576        2.20566513896888
C           -1.48949971857209        1.57989109912896        3.63280763469658
C           -0.96231721973566        2.68502209144361        4.55865494122517
C           -1.95616749595638        3.82224603768789        4.82543093331255
C           -3.15049068555555        3.38017676156074        5.66341265969678
C           -1.33868725560703        2.93353170041907        1.61056639479913
C           -1.13631302077954        3.08049309681716        0.09478681302621
C           -2.44742120329789        3.13256174849310       -0.69843911034442
C           -3.22054945280578        4.42570817335890       -0.46889259880383
C           -1.78361315674402        0.55234567498551        1.48955700630624
H            2.31590413103849        0.43347166874380        0.06546977087277
H            2.64532702773121       -1.25853957637267       -0.27203195363963
H            3.32905840191293       -0.50269648947826        1.16230047767398
H            0.36507191676513       -1.05174898820336        0.66130068172746
H            1.41669359222826       -1.97926485869049        1.71848254643328
H            0.23548648107969       -0.54518248251905        3.18546087893099
H            1.86546457389339        0.06693822778479        3.06905323400250
H            0.93158726787438        2.09145522641206        2.73989869656928
H            0.74762836229900        1.53630225210730        1.08559654868122
H           -2.57954133543378        1.62902531703637        3.61700217448320
H           -1.21259543904113        0.60799285793405        4.04090569093288
H           -0.72462519826470        2.22694141546902        5.52004883605285
H           -0.03062490732264        3.10674616655264        4.18247525620418
H           -1.42524229868904        4.60415960651632        5.37008101501753
H           -2.30789791333020        4.26249702167155        3.89118140735774
H           -2.81761182356797        2.96200888862361        6.61018058938040
H           -3.78743588287865        4.23363425342733        5.87645854323123
H           -3.75610496319381        2.63300755761731        5.15448705912312
H           -2.38440453440230        3.14258447955081        1.84103374420174
H           -0.72524110411427        3.66616085646783        2.13344775475329
H           -0.59858229337924        4.01142275580432       -0.09103216194068
H           -0.51434736647440        2.28034848883616       -0.30567895043570
H           -2.20257943254968        3.06128617054603       -1.75899085719614
H           -3.08006518851787        2.27746140314928       -0.45323104073061
H           -2.61093890987649        5.28468621131483       -0.73673446157838
H           -4.11287505180074        4.43863657164339       -1.08815369927799
H           -3.53172260599633        4.53857022704780        0.56746107719050
H           -1.44930800595822        0.48202889938494        0.45814064896475
H           -1.64818201059959       -0.41429735775960        1.96818478240177
H           -2.84450782309847        0.79616509962108        1.49699818406889

          :  Hamiltonian                  GFN2-xTB          :
         :: total energy             -45.673595160398 Eh    ::
         :: gradient norm              0.000773319095 Eh/a0 ::
         :: HOMO-LUMO gap              8.629128954700 eV    ::
         :: SCC energy               -46.336855397276 Eh    ::
         :: -> dispersion             -0.033781696379 Eh    ::
         :: repulsion energy           0.663260236878 Eh    ::

    * Orbital Energies and Occupations

         #    Occupation            Energy/Eh            Energy/eV
      -------------------------------------------------------------
         1        2.0000           -0.8517626             -23.1776
       ...           ...                  ...                  ...
        31        2.0000           -0.5979436             -16.2709
        32        2.0000           -0.5919682             -16.1083
        33        2.0000           -0.5895377             -16.0421
        34        2.0000           -0.5867410             -15.9660
        35        2.0000           -0.5670259             -15.4296
        36        2.0000           -0.5646042             -15.3637
        37        2.0000           -0.5631163             -15.3232
        38        2.0000           -0.5552728             -15.1097
        39        2.0000           -0.5545552             -15.0902
        40        2.0000           -0.5538948             -15.0722
        41        2.0000           -0.5487387             -14.9319
        42        2.0000           -0.5477147             -14.9041
        43        2.0000           -0.5469938             -14.8845 (HOMO)
        44                         -0.2298792              -6.2553 (LUMO)
        45                         -0.1685313              -4.5860
        46                         -0.1567573              -4.2656
        47                         -0.1381600              -3.7595
        48                         -0.0796125              -2.1664
        49                         -0.0706976              -1.9238
        50                         -0.0614875              -1.6732
        51                         -0.0564437              -1.5359
        52                         -0.0361159              -0.9828
        53                         -0.0331332              -0.9016
        54                         -0.0268339              -0.7302
       ...                                ...                  ...
        86                          0.2061000               5.6083
      -------------------------------------------------------------
                  HL-Gap            0.3171147 Eh            8.6291 eV

     #   Z          covCN         q      C6AA      α(0)
     1   6 C        3.752    -0.114    22.735     6.800
     2   6 C        3.799    -0.064    21.737     6.638
     3   6 C        3.800    -0.073    21.889     6.661
     4   6 C        3.753    -0.039    21.326     6.585
     5   7 N        3.618     0.115    19.265     6.519
     6   6 C        3.762    -0.039    21.326     6.583
     7   6 C        3.799    -0.073    21.900     6.663
     8   6 C        3.799    -0.064    21.737     6.638
     9   6 C        3.752    -0.114    22.744     6.801
    10   6 C        3.759    -0.039    21.324     6.583
    11   6 C        3.799    -0.073    21.896     6.662
    12   6 C        3.800    -0.063    21.720     6.636
    13   6 C        3.752    -0.114    22.741     6.801
    14   6 C        3.719    -0.087    22.290     6.744
    15   1 H        0.925     0.032     2.557     2.501
    16   1 H        0.925     0.056     2.244     2.343
    17   1 H        0.925     0.050     2.323     2.383
    18   1 H        0.924     0.036     2.499     2.472
    19   1 H        0.924     0.056     2.248     2.344
    20   1 H        0.925     0.048     2.343     2.394
    21   1 H        0.924     0.071     2.071     2.251
    22   1 H        0.925     0.078     2.003     2.213
    23   1 H        0.925     0.090     1.877     2.143
    24   1 H        0.924     0.087     1.913     2.163
    25   1 H        0.925     0.079     1.985     2.203
    26   1 H        0.924     0.072     2.064     2.247
    27   1 H        0.925     0.049     2.335     2.390
    28   1 H        0.924     0.057     2.238     2.339
    29   1 H        0.924     0.036     2.502     2.473
    30   1 H        0.925     0.050     2.321     2.383
    31   1 H        0.925     0.057     2.237     2.339
    32   1 H        0.925     0.033     2.545     2.495
    33   1 H        0.924     0.090     1.880     2.144
    34   1 H        0.925     0.082     1.957     2.188
    35   1 H        0.924     0.069     2.096     2.264
    36   1 H        0.925     0.049     2.336     2.390
    37   1 H        0.924     0.056     2.251     2.346
    38   1 H        0.924     0.037     2.489     2.467
    39   1 H        0.925     0.049     2.327     2.386
    40   1 H        0.925     0.056     2.242     2.342
    41   1 H        0.925     0.033     2.541     2.493
    42   1 H        0.925     0.100     1.788     2.091
    43   1 H        0.925     0.095     1.833     2.117
    44   1 H        0.925     0.090     1.880     2.144

Wiberg/Mayer (AO) data.
largest (>0.10) Wiberg bond orders for each atom

     #   Z sym  total        # sym  WBO       # sym  WBO       # sym  WBO
 ---------------------------------------------------------------------------
     1   6 C    3.993 --     2 C    1.021    17 H    0.986    16 H    0.984
                            15 H    0.983
     2   6 C    3.993 --     1 C    1.021     3 C    1.005    18 H    0.975
                            19 H    0.975
     3   6 C    3.986 --     2 C    1.005     4 C    1.003    21 H    0.969
                            20 H    0.964
     4   6 C    3.931 --     3 C    1.003    22 H    0.963    23 H    0.955
                             5 N    0.930
     5   7 N    3.803 --    14 C    0.963     4 C    0.930    10 C    0.928
                             6 C    0.927
     6   6 C    3.931 --     7 C    1.004    25 H    0.964    24 H    0.962
                             5 N    0.927
     7   6 C    3.986 --     8 C    1.005     6 C    1.004    26 H    0.969
                            27 H    0.963
     8   6 C    3.993 --     9 C    1.021     7 C    1.005    28 H    0.975
                            29 H    0.975
     9   6 C    3.993 --     8 C    1.021    30 H    0.986    31 H    0.984
                            32 H    0.984
    10   6 C    3.930 --    11 C    1.003    34 H    0.968    33 H    0.960
                             5 N    0.928
    11   6 C    3.986 --    12 C    1.005    10 C    1.003    35 H    0.971
                            36 H    0.963
    12   6 C    3.993 --    13 C    1.021    11 C    1.005    38 H    0.976
                            37 H    0.975
    13   6 C    3.993 --    12 C    1.021    39 H    0.986    40 H    0.984
                            41 H    0.984
    14   6 C    3.933 --    44 H    0.974    43 H    0.972    42 H    0.969
                             5 N    0.963
    15   1 H    0.999 --     1 C    0.983
    16   1 H    0.997 --     1 C    0.984
    17   1 H    0.998 --     1 C    0.986
    18   1 H    0.999 --     2 C    0.975
    19   1 H    0.997 --     2 C    0.975
    20   1 H    0.998 --     3 C    0.964
    21   1 H    0.995 --     3 C    0.969
    22   1 H    0.994 --     4 C    0.963
    23   1 H    0.992 --     4 C    0.955
    24   1 H    0.992 --     6 C    0.962
    25   1 H    0.993 --     6 C    0.964
    26   1 H    0.995 --     7 C    0.969
    27   1 H    0.998 --     7 C    0.963
    28   1 H    0.996 --     8 C    0.975
    29   1 H    0.999 --     8 C    0.975
    30   1 H    0.997 --     9 C    0.986
    31   1 H    0.997 --     9 C    0.984
    32   1 H    0.999 --     9 C    0.984
    33   1 H    0.992 --    10 C    0.960
    34   1 H    0.993 --    10 C    0.968
    35   1 H    0.995 --    11 C    0.971
    36   1 H    0.998 --    11 C    0.963
    37   1 H    0.997 --    12 C    0.975
    38   1 H    0.999 --    12 C    0.976
    39   1 H    0.997 --    13 C    0.986
    40   1 H    0.997 --    13 C    0.984
    41   1 H    0.999 --    13 C    0.984
    42   1 H    0.990 --    14 C    0.969
    43   1 H    0.991 --    14 C    0.972
    44   1 H    0.992 --    14 C    0.974
 ---------------------------------------------------------------------------

molecular dipole:
                 x           y           z       tot (Debye)
 q only:       -1.882       3.188       4.087
   full:       -1.869       3.162       4.124      14.037

           -------------------------------------------------
          | TOTAL ENERGY              -45.673595160398 Eh   |
          | GRADIENT NORM               0.000773319095 Eh/α |
          | HOMO-LUMO GAP               8.629128954700 eV   |
           -------------------------------------------------

 * finished run on 2024/12/20 at 07:12:14.408
