   * xtb version 6.7.1 (edcfbbe) compiled by 'conda@3ef47c1a292c' on 2024-11-25

   ID    Z sym.   atoms
    1    6 C      1-7, 9-11, 13-15, 17-22
    2    7 N      8, 16
    3   17 Cl     12, 25
    4    8 O      23, 24
    5    1 H      26-52

          program call               : xtb C1120.xyz --opt --namespace C1120 --charge +1
          :  Hamiltonian                  GFN2-xTB          :
 * total energy  :   -77.2232834 Eh     change       -0.3953090E-08 Eh
 * total energy  :   -77.2310994 Eh     change       -0.7815998E-02 Eh
 * total energy  :   -77.2331343 Eh     change       -0.2034918E-02 Eh
 * total energy  :   -77.2336358 Eh     change       -0.5014987E-03 Eh
 * total energy  :   -77.2341860 Eh     change       -0.5501587E-03 Eh
 * total energy  :   -77.2345770 Eh     change       -0.3910019E-03 Eh
 * total energy  :   -77.2351050 Eh     change       -0.5279919E-03 Eh
 * total energy  :   -77.2358322 Eh     change       -0.7271953E-03 Eh
 * total energy  :   -77.2366287 Eh     change       -0.7965250E-03 Eh
 * total energy  :   -77.2372893 Eh     change       -0.6606343E-03 Eh
 * total energy  :   -77.2483981 Eh     change       -0.9321256E-05 Eh
 * total energy  :   -77.2484078 Eh     change       -0.9677939E-05 Eh
 * total energy  :   -77.2484169 Eh     change       -0.9163116E-05 Eh
 * total energy  :   -77.2484249 Eh     change       -0.7922447E-05 Eh
 * total energy  :   -77.2484326 Eh     change       -0.7706705E-05 Eh
 * total energy  :   -77.2484408 Eh     change       -0.8218312E-05 Eh
 * total energy  :   -77.2484522 Eh     change       -0.1141576E-04 Eh
 * total energy  :   -77.2484581 Eh     change       -0.5894613E-05 Eh
 * total energy  :   -77.2484627 Eh     change       -0.4582683E-05 Eh
   *** GEOMETRY OPTIMIZATION CONVERGED AFTER 84 ITERATIONS ***

 final structure:
================
52
 xtb: 6.7.1 (edcfbbe)
C           -0.87040778272201       -0.02858796118244       -0.69021610907137
C           -0.31785652427863       -1.44883029990569       -0.71903122912276
C            0.68565304143230       -1.73140923423533        0.40024822578279
C            0.13631129214811       -1.57869309462929        1.82149564078919
C           -1.04041710533789       -2.49877370004035        2.15749790513426
C           -0.70089104763020       -3.98971190845427        2.16853314017115
C            0.17349008441152       -4.41857509035684        3.35301625239474
N           -0.55098158164646       -4.33296950395120        4.60231117108786
C           -1.55469740569603       -5.20643427475867        4.96654546004327
C           -2.05706995825631       -6.34743716927880        4.35514196730334
C           -3.08117168783582       -7.01630286012058        5.00209140438780
Cl          -3.73754954366268       -8.43076387599044        4.29388519395192
C           -3.59417836863605       -6.55355229526525        6.23590974294268
C           -3.08617632141379       -5.42233959546227        6.84973260534077
C           -2.05726953571687       -4.75446118780273        6.19837247086992
N           -1.33011276547057       -3.62867497251629        6.53186071572101
C           -0.43678623202959       -3.40109052105343        5.55731841551717
C            0.56313182663491       -2.31293430032483        5.54833694122662
C           -1.52758833581682       -2.83824994844957        7.72820159435584
C           -2.36246573370970       -1.58007133993158        7.46117379724129
C           -3.84873559991806       -1.88026085679812        7.22800542336780
C           -4.50073017339278       -2.41561949867166        8.48738696924746
O           -4.18213198552439       -3.44511832740499        9.02849096670794
O           -5.45072801274261       -1.61587604809918        8.93520517212175
Cl          -4.86876069012242       -7.41332977751791        6.99030053669109
H           -1.49458403642643        0.13881334953867        0.18444401754142
H           -1.47709705766253        0.15350159498686       -1.57338596853324
H           -0.05870409985033        0.69524568231530       -0.68047439179332
H           -1.14165903097267       -2.16404521937891       -0.67748945429775
H            0.19478644413041       -1.60579937874487       -1.66989675943642
H            1.08636157313385       -2.73875781532753        0.26709125756380
H            1.52293694854890       -1.03814325278596        0.29472046095126
H            0.96239122611929       -1.75220692411732        2.51646761580026
H           -0.18911960483524       -0.54676115661414        1.96045463444351
H           -1.45902848389313       -2.21576301661814        3.12845302569271
H           -1.82593021558946       -2.33726398593680        1.42006777661455
H           -1.62862689839642       -4.56357765129238        2.19066103650009
H           -0.17378554689780       -4.24869122165181        1.25152223534959
H            0.48453705843118       -5.45770737063095        3.22178835141086
H            1.06449775397497       -3.79493575424918        3.41199192485692
H           -1.67530764747622       -6.71909626655637        3.41950660366753
H           -3.49289497295111       -5.08303282115132        7.78999127180603
H            0.56177670017797       -1.77084047067565        6.48810189104381
H            1.56114333121300       -2.72035706099140        5.38742826934937
H            0.36067930431212       -1.60470924977778        4.74489613086011
H           -2.03975857637915       -3.46387798733078        8.46076668111370
H           -0.55333509725184       -2.56062859576260        8.13565526283730
H           -2.26473167860408       -0.91972620097791        8.32362382816097
H           -1.97041694524050       -1.05092373262595        6.59069852046343
H           -4.36856906805005       -0.96872397941286        6.93701032448358
H           -3.96545463161473       -2.62504819325845        6.43808457092492
H           -5.86901660118828       -1.95781567866258        9.74341650836013

          :  Hamiltonian                  GFN2-xTB          :
         :: total energy             -77.248462676790 Eh    ::
         :: gradient norm              0.000397730306 Eh/a0 ::
         :: HOMO-LUMO gap              2.635009609557 eV    ::
         :: SCC energy               -78.219136232761 Eh    ::
         :: -> dispersion             -0.055533279979 Eh    ::
         :: repulsion energy           0.970673555972 Eh    ::

    * Orbital Energies and Occupations

         #    Occupation            Energy/Eh            Energy/eV
      -------------------------------------------------------------
         1        2.0000           -1.1598013             -31.5598
       ...           ...                  ...                  ...
        57        2.0000           -0.5628008             -15.3146
        58        2.0000           -0.5609523             -15.2643
        59        2.0000           -0.5477440             -14.9049
        60        2.0000           -0.5417181             -14.7409
        61        2.0000           -0.5346635             -14.5489
        62        2.0000           -0.5306434             -14.4395
        63        2.0000           -0.5275484             -14.3553
        64        2.0000           -0.5236789             -14.2500
        65        2.0000           -0.5231598             -14.2359
        66        2.0000           -0.5128558             -13.9555
        67        2.0000           -0.5084468             -13.8355
        68        2.0000           -0.5078440             -13.8191
        69        2.0000           -0.5033150             -13.6959 (HOMO)
        70                         -0.4064801             -11.0609 (LUMO)
        71                         -0.3647795              -9.9262
        72                         -0.3540426              -9.6340
        73                         -0.3449961              -9.3878
        74                         -0.2516964              -6.8490
        75                         -0.2452717              -6.6742
        76                         -0.2374152              -6.4604
        77                         -0.1770051              -4.8166
        78                         -0.1270114              -3.4562
        79                         -0.0977294              -2.6594
        80                         -0.0935684              -2.5461
       ...                                ...                  ...
       137                          0.5338155              14.5259
      -------------------------------------------------------------
                  HL-Gap            0.0968348 Eh            2.6350 eV

     #   Z          covCN         q      C6AA      α(0)
     1   6 C        3.751    -0.106    22.585     6.777
     2   6 C        3.799    -0.056    21.585     6.615
     3   6 C        3.800    -0.062    21.696     6.632
     4   6 C        3.800    -0.062    21.696     6.632
     5   6 C        3.800    -0.063    21.711     6.634
     6   6 C        3.801    -0.072    21.873     6.659
     7   6 C        3.740    -0.022    21.044     6.545
     8   7 N        2.828     0.019    20.920     6.793
     9   6 C        3.100     0.034    27.119     8.534
    10   6 C        2.953    -0.052    29.292     8.877
    11   6 C        2.922     0.093    25.928     8.350
    12  17 Cl       1.005    -0.079   101.633    15.423
    13   6 C        2.922     0.094    25.914     8.348
    14   6 C        2.953    -0.057    29.412     8.895
    15   6 C        3.096     0.035    27.108     8.533
    16   7 N        2.828     0.018    20.935     6.796
    17   6 C        3.077     0.118    25.323     8.250
    18   6 C        3.755    -0.137    23.195     6.867
    19   6 C        3.740    -0.031    21.206     6.571
    20   6 C        3.802    -0.064    21.734     6.637
    21   6 C        3.802    -0.100    22.412     6.740
    22   6 C        2.689     0.364    20.820     7.468
    23   8 O        0.856    -0.422    22.121     6.306
    24   8 O        1.660    -0.348    19.864     6.017
    25  17 Cl       1.006    -0.077   101.573    15.419
    26   1 H        0.925     0.031     2.569     2.506
    27   1 H        0.925     0.042     2.425     2.435
    28   1 H        0.925     0.040     2.451     2.448
    29   1 H        0.924     0.030     2.583     2.513
    30   1 H        0.924     0.040     2.453     2.449
    31   1 H        0.924     0.029     2.600     2.521
    32   1 H        0.924     0.042     2.422     2.434
    33   1 H        0.924     0.020     2.731     2.584
    34   1 H        0.924     0.044     2.392     2.419
    35   1 H        0.924     0.016     2.789     2.612
    36   1 H        0.925     0.060     2.199     2.319
    37   1 H        0.924     0.051     2.304     2.374
    38   1 H        0.925     0.074     2.042     2.234
    39   1 H        0.924     0.080     1.979     2.200
    40   1 H        0.925     0.083     1.952     2.185
    41   1 H        0.926     0.097     1.815     2.107
    42   1 H        0.926     0.126     1.563     1.955
    43   1 H        0.925     0.092     1.856     2.130
    44   1 H        0.925     0.096     1.819     2.109
    45   1 H        0.925     0.107     1.724     2.053
    46   1 H        0.924     0.116     1.644     2.005
    47   1 H        0.924     0.079     1.994     2.209
    48   1 H        0.924     0.074     2.040     2.234
    49   1 H        0.924     0.061     2.191     2.315
    50   1 H        0.925     0.087     1.904     2.158
    51   1 H        0.924     0.071     2.079     2.255
    52   1 H        0.804     0.347     0.596     1.213

Wiberg/Mayer (AO) data.
largest (>0.10) Wiberg bond orders for each atom

     #   Z sym  total        # sym  WBO       # sym  WBO       # sym  WBO
 ---------------------------------------------------------------------------
     1   6 C    3.996 --     2 C    1.020    28 H    0.987    27 H    0.986
                            26 H    0.986
     2   6 C    3.997 --     1 C    1.020     3 C    1.008    30 H    0.977
                            29 H    0.975
     3   6 C    3.996 --     2 C    1.008     4 C    1.007    32 H    0.976
                            31 H    0.974
     4   6 C    3.996 --     5 C    1.007     3 C    1.007    34 H    0.974
                            33 H    0.971
     5   6 C    3.994 --     6 C    1.008     4 C    1.007    35 H    0.976
                            36 H    0.969
     6   6 C    3.984 --     5 C    1.008     7 C    0.986    37 H    0.973
                            38 H    0.964
     7   6 C    3.940 --     6 C    0.986     8 N    0.968    39 H    0.962
                            40 H    0.961
     8   7 N    3.664 --    17 C    1.328     9 C    1.130     7 C    0.968
     9   6 C    3.960 --    10 C    1.338    15 C    1.270     8 N    1.130
    10   6 C    3.979 --    11 C    1.443     9 C    1.338    41 H    0.957
                            14 C    0.104
    11   6 C    3.936 --    10 C    1.443    13 C    1.285    12 Cl   1.041
    12  17 Cl   1.206 --    11 C    1.041
    13   6 C    3.937 --    14 C    1.443    11 C    1.285    25 Cl   1.042
    14   6 C    3.972 --    13 C    1.443    15 C    1.338    42 H    0.940
                            10 C    0.104
    15   6 C    3.959 --    14 C    1.338     9 C    1.270    16 N    1.129
    16   7 N    3.661 --    17 C    1.322    15 C    1.129    19 C    0.971
    17   6 C    3.942 --     8 N    1.328    16 N    1.322    18 C    1.047
    18   6 C    3.976 --    17 C    1.047    43 H    0.969    44 H    0.952
                            45 H    0.942
    19   6 C    3.939 --    20 C    0.993    16 N    0.971    47 H    0.959
                            46 H    0.951
    20   6 C    3.989 --    21 C    0.993    19 C    0.993    49 H    0.972
                            48 H    0.971
    21   6 C    3.992 --    20 C    0.993    50 H    0.971    22 C    0.969
                            51 H    0.957
    22   6 C    3.915 --    23 O    1.730    24 O    1.184    21 C    0.969
    23   8 O    2.032 --    22 C    1.730    24 O    0.181
    24   8 O    2.248 --    22 C    1.184    52 H    0.853    23 O    0.181
    25  17 Cl   1.209 --    13 C    1.042
    26   1 H    0.999 --     1 C    0.986
    27   1 H    0.998 --     1 C    0.986
    28   1 H    0.998 --     1 C    0.987
    29   1 H    0.999 --     2 C    0.975
    30   1 H    0.998 --     2 C    0.977
    31   1 H    0.999 --     3 C    0.974
    32   1 H    0.998 --     3 C    0.976
    33   1 H    1.000 --     4 C    0.971
    34   1 H    0.998 --     4 C    0.974
    35   1 H    1.000 --     5 C    0.976
    36   1 H    0.996 --     5 C    0.969
    37   1 H    0.997 --     6 C    0.973
    38   1 H    0.994 --     6 C    0.964
    39   1 H    0.993 --     7 C    0.962
    40   1 H    0.993 --     7 C    0.961
    41   1 H    0.990 --    10 C    0.957
    42   1 H    0.983 --    14 C    0.940
    43   1 H    0.991 --    18 C    0.969
    44   1 H    0.988 --    18 C    0.952
    45   1 H    0.984 --    18 C    0.942
    46   1 H    0.986 --    19 C    0.951
    47   1 H    0.993 --    19 C    0.959
    48   1 H    0.994 --    20 C    0.971
    49   1 H    0.996 --    20 C    0.972
    50   1 H    0.992 --    21 C    0.971
    51   1 H    0.995 --    21 C    0.957
    52   1 H    0.880 --    24 O    0.853
 ---------------------------------------------------------------------------

molecular dipole:
                 x           y           z       tot (Debye)
 q only:       -1.781      -5.560       9.952
   full:       -2.206      -6.073      10.147      30.577

           -------------------------------------------------
          | TOTAL ENERGY              -77.248462676790 Eh   |
          | GRADIENT NORM               0.000397730306 Eh/α |
          | HOMO-LUMO GAP               2.635009609557 eV   |
           -------------------------------------------------

 * finished run on 2024/12/20 at 07:11:51.553
