   * xtb version 6.7.1 (edcfbbe) compiled by 'conda@3ef47c1a292c' on 2024-11-25

   ID    Z sym.   atoms
    1    6 C      1, 3-15, 17, 18, 20-22
    2    8 O      2, 16
    3    7 N      19
    4    1 H      23-48

          program call               : xtb C1123.xyz --opt --namespace C1123 --charge +1
          :  Hamiltonian                  GFN2-xTB          :
 * total energy  :   -64.5804402 Eh     change       -0.1306944E-08 Eh
 * total energy  :   -64.5901400 Eh     change       -0.9699766E-02 Eh
 * total energy  :   -64.5932312 Eh     change       -0.3091264E-02 Eh
 * total energy  :   -64.5937562 Eh     change       -0.5249547E-03 Eh
 * total energy  :   -64.5941126 Eh     change       -0.3564343E-03 Eh
 * total energy  :   -64.5942655 Eh     change       -0.1528646E-03 Eh
 * total energy  :   -64.5944568 Eh     change       -0.1912841E-03 Eh
 * total energy  :   -64.5945812 Eh     change       -0.1244502E-03 Eh
 * total energy  :   -64.5946478 Eh     change       -0.6656568E-04 Eh
 * total energy  :   -64.5947117 Eh     change       -0.6395438E-04 Eh
 * total energy  :   -64.5952387 Eh     change       -0.1808120E-04 Eh
 * total energy  :   -64.5952549 Eh     change       -0.1623266E-04 Eh
 * total energy  :   -64.5952649 Eh     change       -0.1002549E-04 Eh
 * total energy  :   -64.5952736 Eh     change       -0.8703961E-05 Eh
 * total energy  :   -64.5952819 Eh     change       -0.8298972E-05 Eh
 * total energy  :   -64.5952898 Eh     change       -0.7918893E-05 Eh
 * total energy  :   -64.5952970 Eh     change       -0.7190681E-05 Eh
 * total energy  :   -64.5953022 Eh     change       -0.5131277E-05 Eh
 * total energy  :   -64.5953057 Eh     change       -0.3491115E-05 Eh
   *** GEOMETRY OPTIMIZATION CONVERGED AFTER 31 ITERATIONS ***

 final structure:
================
48
 xtb: 6.7.1 (edcfbbe)
C            1.42567820290174        0.52101058970978        1.06164422683100
O            0.43805760844788       -0.41584380343655        1.43315472994065
C            0.80502300761258       -1.68236011372721        1.71216780159213
C           -0.22153380110419       -2.54009559686667        2.12287734024345
C            0.04034545930887       -3.85564750034646        2.42695600748625
C            1.33013427352740       -4.37112926982374        2.31856903328002
C            2.34770053094991       -3.51359049788718        1.92354752437199
C            2.10007139001543       -2.18567817188716        1.62118219934245
C            1.64360770047335       -5.80948503983555        2.67655001997076
C            1.47381766161091       -5.98536763442935        4.17812853992643
C            2.58255048733296       -5.79072224158938        4.99837726001130
C            2.48241417204431       -5.89145218631227        6.36615071944212
C            1.25652457021163       -6.19089608666651        6.96845932385767
C            0.14461469379015       -6.38588678700451        6.15435000338427
C            0.25956966119339       -6.27961494586854        4.77860963710175
O            1.26186932838244       -6.26876810597067        8.31494031646682
C            0.05658088248977       -6.54838976725289        8.99195173325096
C            0.79479503647328       -6.84462736061024        1.92389574819643
N            1.10559868954864       -7.04680802525433        0.47261044672737
C            2.52704542822077       -7.37744743924127        0.26693651483089
C            0.28524983064372       -8.17504793332707       -0.01045953255994
C            0.76753696065753       -5.84611225643764       -0.31242348335593
H            0.89570213797906        1.45864182594456        0.90754148880867
H            1.92373547638155        0.23051061156784        0.13176083236516
H            2.16952056594246        0.65135692912399        1.85265101443018
H           -1.21747188863932       -2.13707848589510        2.20791564733953
H           -0.76915745097562       -4.48032282575306        2.77214894908306
H            3.36391512448776       -3.87831709588067        1.85641136429752
H            2.92247278816320       -1.55476909530307        1.32604091806566
H            2.70184592571809       -5.98971637811522        2.46947937561813
H            3.53954065553158       -5.55248094754847        4.55771522872534
H            3.34078522921116       -5.74143372391587        7.00024025598734
H           -0.81897110570957       -6.61768735913655        6.57840238303341
H           -0.63119204510268       -6.43621939310702        4.18896601279598
H           -0.69846699349070       -5.78093450193087        8.79792467828939
H           -0.33834489023191       -7.53105353649496        8.71698496850423
H            0.30826589072036       -6.54570779541058       10.05058918974448
H            0.92231551979121       -7.80858894871499        2.42242102616930
H           -0.25615254643442       -6.56112917728571        1.98396486536604
H            2.82876231129449       -8.17744512639315        0.94088157950461
H            2.68610842430895       -7.70426513474856       -0.75936079213669
H            3.15026177194694       -6.50500655142572        0.44697897249613
H           -0.77072975301699       -7.97655368728689        0.16410857708234
H            0.43791296214582       -8.32041632890334       -1.07869390446787
H            0.55868239116267       -9.09208042444991        0.50863619962356
H           -0.29295338401230       -5.62081445501134       -0.21720579788558
H            1.33108402124244       -4.98821537554150        0.05083912890204
H            0.99971708685304       -6.01178284429721       -1.36300827205929

          :  Hamiltonian                  GFN2-xTB          :
         :: total energy             -64.595305660537 Eh    ::
         :: gradient norm              0.000268481810 Eh/a0 ::
         :: HOMO-LUMO gap              3.739575452075 eV    ::
         :: SCC energy               -65.569374802513 Eh    ::
         :: -> dispersion             -0.047793648915 Eh    ::
         :: repulsion energy           0.974069141976 Eh    ::

    * Orbital Energies and Occupations

         #    Occupation            Energy/Eh            Energy/eV
      -------------------------------------------------------------
         1        2.0000           -0.8601753             -23.4066
       ...           ...                  ...                  ...
        47        2.0000           -0.5608327             -15.2610
        48        2.0000           -0.5540207             -15.0757
        49        2.0000           -0.5468527             -14.8806
        50        2.0000           -0.5415026             -14.7350
        51        2.0000           -0.5385197             -14.6539
        52        2.0000           -0.5316102             -14.4659
        53        2.0000           -0.5274961             -14.3539
        54        2.0000           -0.5174828             -14.0814
        55        2.0000           -0.5079213             -13.8212
        56        2.0000           -0.5068133             -13.7911
        57        2.0000           -0.4959176             -13.4946
        58        2.0000           -0.4735480             -12.8859
        59        2.0000           -0.4621393             -12.5755 (HOMO)
        60                         -0.3247125              -8.8359 (LUMO)
        61                         -0.3212400              -8.7414
        62                         -0.3130792              -8.5193
        63                         -0.3015338              -8.2052
        64                         -0.2213694              -6.0238
        65                         -0.1945233              -5.2932
        66                         -0.1793874              -4.8814
        67                         -0.1536766              -4.1818
        68                         -0.1409794              -3.8362
        69                         -0.1357399              -3.6937
        70                         -0.0594655              -1.6181
       ...                                ...                  ...
       114                          0.5792089              15.7611
      -------------------------------------------------------------
                  HL-Gap            0.1374269 Eh            3.7396 eV

     #   Z          covCN         q      C6AA      α(0)
     1   6 C        3.644     0.029    20.416     6.495
     2   8 O        1.706    -0.251    18.158     5.753
     3   6 C        2.866     0.150    24.742     8.153
     4   6 C        2.920    -0.055    29.372     8.887
     5   6 C        2.922    -0.043    29.063     8.841
     6   6 C        2.972    -0.018    28.456     8.750
     7   6 C        2.925    -0.046    29.151     8.854
     8   6 C        2.916    -0.069    29.708     8.938
     9   6 C        3.860    -0.034    21.134     6.538
    10   6 C        2.974    -0.012    28.315     8.728
    11   6 C        2.925    -0.038    28.938     8.822
    12   6 C        2.920    -0.052    29.290     8.875
    13   6 C        2.866     0.151    24.716     8.149
    14   6 C        2.917    -0.067    29.672     8.933
    15   6 C        2.923    -0.043    29.059     8.840
    16   8 O        1.706    -0.251    18.151     5.752
    17   6 C        3.644     0.030    20.405     6.493
    18   6 C        3.764    -0.042    21.366     6.589
    19   7 N        3.622     0.143    18.808     6.441
    20   6 C        3.721    -0.095    22.429     6.764
    21   6 C        3.731    -0.097    22.448     6.763
    22   6 C        3.722    -0.099    22.507     6.775
    23   1 H        0.925     0.076     2.017     2.221
    24   1 H        0.924     0.046     2.369     2.407
    25   1 H        0.924     0.051     2.310     2.377
    26   1 H        0.926     0.061     2.183     2.311
    27   1 H        0.926     0.037     2.493     2.469
    28   1 H        0.925     0.029     2.594     2.519
    29   1 H        0.926     0.048     2.343     2.394
    30   1 H        0.924     0.051     2.302     2.373
    31   1 H        0.926     0.039     2.456     2.451
    32   1 H        0.926     0.064     2.154     2.295
    33   1 H        0.926     0.047     2.362     2.403
    34   1 H        0.926     0.025     2.654     2.548
    35   1 H        0.924     0.048     2.343     2.394
    36   1 H        0.924     0.047     2.363     2.404
    37   1 H        0.925     0.075     2.028     2.227
    38   1 H        0.924     0.083     1.950     2.184
    39   1 H        0.925     0.087     1.910     2.161
    40   1 H        0.925     0.099     1.795     2.095
    41   1 H        0.925     0.097     1.817     2.108
    42   1 H        0.925     0.102     1.763     2.077
    43   1 H        0.925     0.098     1.805     2.101
    44   1 H        0.925     0.098     1.801     2.099
    45   1 H        0.925     0.098     1.801     2.099
    46   1 H        0.925     0.096     1.820     2.110
    47   1 H        0.925     0.108     1.714     2.047
    48   1 H        0.925     0.095     1.835     2.118

Wiberg/Mayer (AO) data.
largest (>0.10) Wiberg bond orders for each atom

     #   Z sym  total        # sym  WBO       # sym  WBO       # sym  WBO
 ---------------------------------------------------------------------------
     1   6 C    3.936 --    23 H    0.978    24 H    0.976    25 H    0.976
                             2 O    0.976
     2   8 O    2.267 --     3 C    1.098     1 C    0.976
     3   6 C    3.937 --     8 C    1.363     4 C    1.328     2 O    1.098
     4   6 C    3.988 --     5 C    1.488     3 C    1.328    26 H    0.967
                             7 C    0.103
     5   6 C    3.991 --     4 C    1.488     6 C    1.378    27 H    0.964
     6   6 C    3.981 --     7 C    1.412     5 C    1.378     9 C    0.982
     7   6 C    3.989 --     8 C    1.441     6 C    1.412    28 H    0.968
                             4 C    0.103
     8   6 C    3.987 --     7 C    1.441     3 C    1.363    29 H    0.965
     9   6 C    3.982 --    18 C    0.984     6 C    0.982    10 C    0.969
                            30 H    0.956
    10   6 C    3.977 --    15 C    1.420    11 C    1.383     9 C    0.969
    11   6 C    3.990 --    12 C    1.485    10 C    1.383    31 H    0.967
    12   6 C    3.987 --    11 C    1.485    13 C    1.331    32 H    0.966
                            15 C    0.105
    13   6 C    3.938 --    14 C    1.364    12 C    1.331    16 O    1.096
    14   6 C    3.987 --    15 C    1.441    13 C    1.364    33 H    0.966
    15   6 C    3.990 --    14 C    1.441    10 C    1.420    34 H    0.966
                            12 C    0.105
    16   8 O    2.266 --    13 C    1.096    17 C    0.977
    17   6 C    3.938 --    37 H    0.978    16 O    0.977    35 H    0.976
                            36 H    0.976
    18   6 C    3.920 --     9 C    0.984    38 H    0.967    39 H    0.962
                            19 N    0.917
    19   7 N    3.814 --    20 C    0.959    21 C    0.959    22 C    0.958
                            18 C    0.917
    20   6 C    3.929 --    40 H    0.975    41 H    0.975    42 H    0.971
                            19 N    0.959
    21   6 C    3.929 --    43 H    0.975    45 H    0.975    44 H    0.974
                            19 N    0.959
    22   6 C    3.924 --    48 H    0.975    46 H    0.975    47 H    0.962
                            19 N    0.958
    23   1 H    0.994 --     1 C    0.978
    24   1 H    0.998 --     1 C    0.976
    25   1 H    0.997 --     1 C    0.976
    26   1 H    0.996 --     4 C    0.967
    27   1 H    0.998 --     5 C    0.964
    28   1 H    0.999 --     7 C    0.968
    29   1 H    0.997 --     8 C    0.965
    30   1 H    0.997 --     9 C    0.956
    31   1 H    0.998 --    11 C    0.967
    32   1 H    0.995 --    12 C    0.966
    33   1 H    0.998 --    14 C    0.966
    34   1 H    0.999 --    15 C    0.966
    35   1 H    0.998 --    17 C    0.976
    36   1 H    0.998 --    17 C    0.976
    37   1 H    0.994 --    17 C    0.978
    38   1 H    0.993 --    18 C    0.967
    39   1 H    0.992 --    18 C    0.962
    40   1 H    0.990 --    20 C    0.975
    41   1 H    0.991 --    20 C    0.975
    42   1 H    0.990 --    20 C    0.971
    43   1 H    0.990 --    21 C    0.975
    44   1 H    0.990 --    21 C    0.974
    45   1 H    0.990 --    21 C    0.975
    46   1 H    0.991 --    22 C    0.975
    47   1 H    0.988 --    22 C    0.962
    48   1 H    0.991 --    22 C    0.975
 ---------------------------------------------------------------------------

molecular dipole:
                 x           y           z       tot (Debye)
 q only:        2.055     -12.385       1.806
   full:        2.024     -12.393       1.762      32.229

           -------------------------------------------------
          | TOTAL ENERGY              -64.595305660537 Eh   |
          | GRADIENT NORM               0.000268481810 Eh/α |
          | HOMO-LUMO GAP               3.739575452075 eV   |
           -------------------------------------------------

 * finished run on 2024/12/20 at 07:11:57.661
