   * xtb version 6.7.1 (edcfbbe) compiled by 'conda@3ef47c1a292c' on 2024-11-25

   ID    Z sym.   atoms
    1    8 O      1, 3
    2    6 C      2, 4
    3    7 N      5
    4    1 H      6-11

          program call               : xtb C1124.xyz --opt --namespace C1124 --charge +1
          :  Hamiltonian                  GFN2-xTB          :
 * total energy  :   -17.9398700 Eh     change       -0.2681944E-10 Eh
 * total energy  :   -17.9436221 Eh     change       -0.3752118E-02 Eh
 * total energy  :   -17.9445569 Eh     change       -0.9348550E-03 Eh
 * total energy  :   -17.9447402 Eh     change       -0.1832428E-03 Eh
 * total energy  :   -17.9447642 Eh     change       -0.2402872E-04 Eh
 * total energy  :   -17.9447717 Eh     change       -0.7474144E-05 Eh
 * total energy  :   -17.9447727 Eh     change       -0.9992990E-06 Eh
   *** GEOMETRY OPTIMIZATION CONVERGED AFTER 7 ITERATIONS ***

 final structure:
================
11
 xtb: 6.7.1 (edcfbbe)
O            0.86971208824672       -0.62512626586312        0.09043163706828
C            0.37952359082869       -0.68752247557095       -1.14999903321572
O            0.99881618146827       -0.59046190108109       -2.15458826955300
C           -1.14769892923959       -0.89115073000197       -1.10630008670065
N           -1.61392622308987       -1.20209270156580        0.26745526093614
H            1.83059623508845       -0.47446422832895        0.08688141394305
H           -1.61041278769485        0.03292678503359       -1.46297542642184
H           -1.41325638018338       -1.69020493819784       -1.80157292255912
H           -1.18771102627027       -0.52859226151006        0.92384349015243
H           -2.63865549287764       -1.15831606556994        0.33881461276818
H           -1.29866725627652       -2.14050521734387        0.55020932358225

          :  Hamiltonian                  GFN2-xTB          :
         :: total energy             -17.944772674491 Eh    ::
         :: gradient norm              0.000239939411 Eh/a0 ::
         :: HOMO-LUMO gap              5.341272715690 eV    ::
         :: SCC energy               -18.120150728733 Eh    ::
         :: -> dispersion             -0.004131739444 Eh    ::
         :: repulsion energy           0.175378054241 Eh    ::

    * Orbital Energies and Occupations

         #    Occupation            Energy/Eh            Energy/eV
      -------------------------------------------------------------
         1        2.0000           -0.9344390             -25.4274
       ...           ...                  ...                  ...
         3        2.0000           -0.9024467             -24.5568
         4        2.0000           -0.8725108             -23.7422
         5        2.0000           -0.8381854             -22.8082
         6        2.0000           -0.8215569             -22.3557
         7        2.0000           -0.8090237             -22.0147
         8        2.0000           -0.7938303             -21.6012
         9        2.0000           -0.7642885             -20.7973
        10        2.0000           -0.7583776             -20.6365
        11        2.0000           -0.7269635             -19.7817
        12        2.0000           -0.6928217             -18.8526
        13        2.0000           -0.6848095             -18.6346
        14        2.0000           -0.6549439             -17.8219
        15        2.0000           -0.6075566             -16.5325 (HOMO)
        16                         -0.4112685             -11.1912 (LUMO)
        17                         -0.2819482              -7.6722
        18                         -0.1730142              -4.7080
        19                         -0.1563972              -4.2558
        20                         -0.1173062              -3.1921
        21                         -0.0942517              -2.5647
        22                         -0.0284624              -0.7745
        23                         -0.0162116              -0.4411
        24                          0.0180490               0.4911
        25                          0.0709673               1.9311
        26                          0.5225758              14.2200
      -------------------------------------------------------------
                  HL-Gap            0.1962882 Eh            5.3413 eV

     #   Z          covCN         q      C6AA      α(0)
     1   8 O        1.659    -0.374    20.356     6.091
     2   6 C        2.684     0.358    20.920     7.485
     3   8 O        0.856    -0.313    20.010     5.997
     4   6 C        3.729    -0.069    21.925     6.685
     5   7 N        3.483    -0.120    23.607     7.216
     6   1 H        0.804     0.368     0.548     1.163
     7   1 H        0.924     0.145     1.428     1.868
     8   1 H        0.924     0.145     1.427     1.868
     9   1 H        0.859     0.295     0.728     1.337
    10   1 H        0.859     0.281     0.772     1.377
    11   1 H        0.859     0.284     0.763     1.368

Wiberg/Mayer (AO) data.
largest (>0.10) Wiberg bond orders for each atom

     #   Z sym  total        # sym  WBO       # sym  WBO       # sym  WBO
 ---------------------------------------------------------------------------
     1   8 O    2.207 --     2 C    1.139     6 H    0.840     3 O    0.191
     2   6 C    3.942 --     3 O    1.842     1 O    1.139     4 C    0.940
     3   8 O    2.140 --     2 C    1.842     1 O    0.191
     4   6 C    3.900 --     5 N    0.958     8 H    0.950     7 H    0.944
                             2 C    0.940
     5   7 N    3.678 --     4 C    0.958    10 H    0.907    11 H    0.905
                             9 H    0.892
     6   1 H    0.864 --     1 O    0.840
     7   1 H    0.979 --     4 C    0.944
     8   1 H    0.979 --     4 C    0.950
     9   1 H    0.913 --     5 N    0.892
    10   1 H    0.921 --     5 N    0.907
    11   1 H    0.919 --     5 N    0.905
 ---------------------------------------------------------------------------

molecular dipole:
                 x           y           z       tot (Debye)
 q only:       -2.746      -2.128       0.671
   full:       -2.772      -2.157       0.923       9.230

           -------------------------------------------------
          | TOTAL ENERGY              -17.944772674491 Eh   |
          | GRADIENT NORM               0.000239939411 Eh/α |
          | HOMO-LUMO GAP               5.341272715690 eV   |
           -------------------------------------------------

 * finished run on 2024/12/20 at 07:11:57.812
