   * xtb version 6.7.1 (edcfbbe) compiled by 'conda@3ef47c1a292c' on 2024-11-25

   ID    Z sym.   atoms
    1    6 C      1, 2, 4-7, 9-15
    2    7 N      3, 8
    3    1 H      16-32

          program call               : xtb C1135.xyz --opt --namespace C1135 --charge +1
          :  Hamiltonian                  GFN2-xTB          :
 * total energy  :   -41.9509901 Eh     change       -0.6264642E-09 Eh
 * total energy  :   -41.9703417 Eh     change       -0.1935159E-01 Eh
 * total energy  :   -41.9739652 Eh     change       -0.3623574E-02 Eh
 * total energy  :   -41.9745749 Eh     change       -0.6096205E-03 Eh
 * total energy  :   -41.9749883 Eh     change       -0.4134221E-03 Eh
 * total energy  :   -41.9751388 Eh     change       -0.1505247E-03 Eh
 * total energy  :   -41.9752941 Eh     change       -0.1552960E-03 Eh
 * total energy  :   -41.9754372 Eh     change       -0.1430891E-03 Eh
 * total energy  :   -41.9755814 Eh     change       -0.1441869E-03 Eh
 * total energy  :   -41.9757281 Eh     change       -0.1466911E-03 Eh
 * total energy  :   -41.9766657 Eh     change       -0.2124492E-04 Eh
 * total energy  :   -41.9767202 Eh     change       -0.5449860E-04 Eh
 * total energy  :   -41.9767359 Eh     change       -0.1568447E-04 Eh
 * total energy  :   -41.9767513 Eh     change       -0.1540698E-04 Eh
 * total energy  :   -41.9767593 Eh     change       -0.8014215E-05 Eh
 * total energy  :   -41.9767686 Eh     change       -0.9314882E-05 Eh
 * total energy  :   -41.9767778 Eh     change       -0.9195816E-05 Eh
 * total energy  :   -41.9767853 Eh     change       -0.7459008E-05 Eh
 * total energy  :   -41.9767899 Eh     change       -0.4646555E-05 Eh
   *** GEOMETRY OPTIMIZATION CONVERGED AFTER 44 ITERATIONS ***

 final structure:
================
32
 xtb: 6.7.1 (edcfbbe)
C            1.05006995453472        0.95286862249932        0.22384430913007
C            0.08870332579166        0.98066359351233       -0.96110160955350
N            0.77895913030336        1.24541448854149       -2.20062381332454
C            1.28487841785166        0.36612206545295       -3.08038742448378
C            1.13503093865099       -1.09840635783066       -2.94325747870842
C            1.91937925310095        1.09297080760671       -4.07932184071688
C            1.78020100071994        2.43559726403060       -3.75626104469297
N            1.08670236698588        2.49874247849521       -2.60753541387052
C            0.70778478027014        3.67032214713483       -1.89275612496292
C            1.63964020139223        4.30026753436069       -1.07779545007210
C            1.27309630574686        5.44646701729848       -0.39390651433617
C           -0.00987914363953        5.95357024740795       -0.52449231792574
C           -0.93263194347485        5.32096308553523       -1.34220204577336
C           -0.57860517356106        4.17469452310280       -2.03295534056291
C            2.23624504695632        3.64092981690739       -4.47861471916762
H            1.85160193901756        0.23792681672798        0.05744583639091
H            0.50937477760750        0.65907681689496        1.11818570953878
H            1.48498922499863        1.93403246474913        0.39591753973267
H           -0.41568518728907        0.01856874102124       -1.06270226213165
H           -0.66648036007234        1.75641905204056       -0.81252001285042
H            1.54225163731822       -1.44941852803422       -1.99672747732031
H            0.08459009373675       -1.38535423774221       -2.98564809175813
H            1.65910516525631       -1.59631552003802       -3.75345740181735
H            2.42093029136829        0.69392972054699       -4.93611173945935
H            2.63825011241594        3.89884839202954       -0.98781826807742
H            1.99163987721341        5.94236671789719        0.23916762890420
H           -0.29049675931585        6.84700869157343        0.01010557680815
H           -1.92888678582925        5.72002534696022       -1.44674918438513
H           -1.28693704662058        3.67951535108931       -2.68056183041557
H            1.40076186758491        4.10144683040092       -5.00658075046805
H            2.64053564419220        4.38112240416400       -3.79134442565880
H            2.99424104678836        3.37214360566249       -5.20808401801016

          :  Hamiltonian                  GFN2-xTB          :
         :: total energy             -41.976789906253 Eh    ::
         :: gradient norm              0.000357731160 Eh/a0 ::
         :: HOMO-LUMO gap              4.064748362108 eV    ::
         :: SCC energy               -42.688800565287 Eh    ::
         :: -> dispersion             -0.030373767036 Eh    ::
         :: repulsion energy           0.712010659035 Eh    ::

    * Orbital Energies and Occupations

         #    Occupation            Energy/Eh            Energy/eV
      -------------------------------------------------------------
         1        2.0000           -0.8801773             -23.9508
       ...           ...                  ...                  ...
        27        2.0000           -0.6192012             -16.8493
        28        2.0000           -0.6166736             -16.7805
        29        2.0000           -0.6137021             -16.6997
        30        2.0000           -0.6092732             -16.5792
        31        2.0000           -0.6018000             -16.3758
        32        2.0000           -0.5938258             -16.1588
        33        2.0000           -0.5898704             -16.0512
        34        2.0000           -0.5711193             -15.5409
        35        2.0000           -0.5658937             -15.3988
        36        2.0000           -0.5587035             -15.2031
        37        2.0000           -0.5536870             -15.0666
        38        2.0000           -0.5468099             -14.8795
        39        2.0000           -0.5461569             -14.8617 (HOMO)
        40                         -0.3967801             -10.7969 (LUMO)
        41                         -0.3725023             -10.1363
        42                         -0.3644808              -9.9180
        43                         -0.3236649              -8.8074
        44                         -0.2408918              -6.5550
        45                         -0.2017330              -5.4894
        46                         -0.1242814              -3.3819
        47                         -0.0569064              -1.5485
        48                         -0.0408366              -1.1112
        49                         -0.0310568              -0.8451
        50                         -0.0140119              -0.3813
       ...                                ...                  ...
        77                          0.5308346              14.4447
      -------------------------------------------------------------
                  HL-Gap            0.1493768 Eh            4.0647 eV

     #   Z          covCN         q      C6AA      α(0)
     1   6 C        3.752    -0.123    22.911     6.826
     2   6 C        3.737    -0.020    21.019     6.542
     3   7 N        2.955     0.062    20.160     6.669
     4   6 C        3.060     0.064    26.512     8.444
     5   6 C        3.755    -0.129    23.029     6.843
     6   6 C        3.040    -0.079    29.934     8.974
     7   6 C        3.057     0.066    26.467     8.437
     8   7 N        2.969     0.059    20.206     6.676
     9   6 C        2.915     0.040    27.098     8.536
    10   6 C        2.920    -0.035    28.861     8.810
    11   6 C        2.921    -0.018    28.460     8.748
    12   6 C        2.920    -0.015    28.389     8.737
    13   6 C        2.921    -0.018    28.449     8.747
    14   6 C        2.919    -0.035    28.879     8.812
    15   6 C        3.755    -0.127    22.995     6.838
    16   1 H        0.925     0.063     2.164     2.300
    17   1 H        0.925     0.078     1.995     2.209
    18   1 H        0.925     0.059     2.205     2.322
    19   1 H        0.924     0.090     1.874     2.141
    20   1 H        0.924     0.079     1.991     2.207
    21   1 H        0.925     0.087     1.912     2.163
    22   1 H        0.925     0.086     1.917     2.165
    23   1 H        0.925     0.091     1.868     2.138
    24   1 H        0.927     0.088     1.896     2.153
    25   1 H        0.926     0.055     2.255     2.348
    26   1 H        0.926     0.070     2.085     2.258
    27   1 H        0.926     0.072     2.059     2.244
    28   1 H        0.926     0.070     2.082     2.256
    29   1 H        0.926     0.054     2.269     2.356
    30   1 H        0.924     0.090     1.875     2.141
    31   1 H        0.925     0.081     1.966     2.193
    32   1 H        0.925     0.091     1.869     2.138

Wiberg/Mayer (AO) data.
largest (>0.10) Wiberg bond orders for each atom

     #   Z sym  total        # sym  WBO       # sym  WBO       # sym  WBO
 ---------------------------------------------------------------------------
     1   6 C    3.983 --     2 C    1.002    16 H    0.984    18 H    0.983
                            17 H    0.978
     2   6 C    3.944 --     1 C    1.002     3 N    0.971    20 H    0.961
                            19 H    0.960
     3   7 N    3.635 --     4 C    1.301     8 N    1.090     2 C    0.971
                             7 C    0.111
     4   6 C    3.953 --     6 C    1.413     3 N    1.301     5 C    1.044
                             8 N    0.111
     5   6 C    3.982 --     4 C    1.044    23 H    0.976    21 H    0.958
                            22 H    0.953
     6   6 C    3.972 --     7 C    1.413     4 C    1.413    24 H    0.966
     7   6 C    3.954 --     6 C    1.413     8 N    1.293    15 C    1.046
                             3 N    0.111
     8   7 N    3.630 --     7 C    1.293     3 N    1.090     9 C    0.962
                             4 C    0.111
     9   6 C    3.936 --    14 C    1.398    10 C    1.397     8 N    0.962
                            12 C    0.107
    10   6 C    3.988 --    11 C    1.441     9 C    1.397    25 H    0.967
                            13 C    0.110
    11   6 C    3.987 --    10 C    1.441    12 C    1.438    26 H    0.967
                            14 C    0.110
    12   6 C    3.986 --    13 C    1.439    11 C    1.438    27 H    0.967
                             9 C    0.107
    13   6 C    3.987 --    14 C    1.440    12 C    1.439    28 H    0.967
                            10 C    0.110
    14   6 C    3.989 --    13 C    1.440     9 C    1.398    29 H    0.967
                            11 C    0.110
    15   6 C    3.983 --     7 C    1.046    32 H    0.974    31 H    0.964
                            30 H    0.948
    16   1 H    0.996 --     1 C    0.984
    17   1 H    0.993 --     1 C    0.978
    18   1 H    0.996 --     1 C    0.983
    19   1 H    0.991 --     2 C    0.960
    20   1 H    0.994 --     2 C    0.961
    21   1 H    0.992 --     5 C    0.958
    22   1 H    0.992 --     5 C    0.953
    23   1 H    0.991 --     5 C    0.976
    24   1 H    0.991 --     6 C    0.966
    25   1 H    0.997 --    10 C    0.967
    26   1 H    0.994 --    11 C    0.967
    27   1 H    0.995 --    12 C    0.967
    28   1 H    0.994 --    13 C    0.967
    29   1 H    0.997 --    14 C    0.967
    30   1 H    0.991 --    15 C    0.948
    31   1 H    0.993 --    15 C    0.964
    32   1 H    0.991 --    15 C    0.974
 ---------------------------------------------------------------------------

molecular dipole:
                 x           y           z       tot (Debye)
 q only:        1.736       4.139      -4.106
   full:        1.686       4.123      -4.141      15.459

           -------------------------------------------------
          | TOTAL ENERGY              -41.976789906253 Eh   |
          | GRADIENT NORM               0.000357731160 Eh/α |
          | HOMO-LUMO GAP               4.064748362108 eV   |
           -------------------------------------------------

 * finished run on 2024/12/20 at 07:12:27.963
