   * xtb version 6.7.1 (edcfbbe) compiled by 'conda@3ef47c1a292c' on 2024-11-25

   ID    Z sym.   atoms
    1    7 N      1-3, 6, 8, 10
    2    6 C      4, 5, 7, 9
    3    1 H      11-17

          program call               : xtb C1130.xyz --opt --namespace C1130 --charge +1
          :  Hamiltonian                  GFN2-xTB          :
 * total energy  :   -29.0537157 Eh     change       -0.1527738E-09 Eh
 * total energy  :   -29.0838664 Eh     change       -0.3015075E-01 Eh
 * total energy  :   -29.0915007 Eh     change       -0.7634282E-02 Eh
 * total energy  :   -29.0950247 Eh     change       -0.3524035E-02 Eh
 * total energy  :   -29.0982181 Eh     change       -0.3193343E-02 Eh
 * total energy  :   -29.0993716 Eh     change       -0.1153519E-02 Eh
 * total energy  :   -29.1009623 Eh     change       -0.1590677E-02 Eh
 * total energy  :   -29.1015536 Eh     change       -0.5913396E-03 Eh
 * total energy  :   -29.1023569 Eh     change       -0.8032819E-03 Eh
 * total energy  :   -29.1028936 Eh     change       -0.5366927E-03 Eh
 * total energy  :   -29.1823414 Eh     change       -0.1734528E-04 Eh
 * total energy  :   -29.1822484 Eh     change        0.9305986E-04 Eh
 * total energy  :   -29.1823508 Eh     change       -0.1024915E-03 Eh
 * total energy  :   -29.1823698 Eh     change       -0.1900282E-04 Eh
 * total energy  :   -29.1823750 Eh     change       -0.5116574E-05 Eh
 * total energy  :   -29.1823926 Eh     change       -0.1759544E-04 Eh
 * total energy  :   -29.1823992 Eh     change       -0.6594983E-05 Eh
 * total energy  :   -29.1824074 Eh     change       -0.8220284E-05 Eh
 * total energy  :   -29.1824113 Eh     change       -0.3904681E-05 Eh
   *** GEOMETRY OPTIMIZATION CONVERGED AFTER 76 ITERATIONS ***

 final structure:
================
17
 xtb: 6.7.1 (edcfbbe)
N            3.06359671987230        2.07462437676485        0.70247321918991
N            3.09372581555563        1.05055132537806        0.26477800663661
N            2.91129920862935       -0.05686033757271       -0.16370133746705
C            3.91564694221757       -0.90925591241275       -0.75725318221651
C            3.69040253746078       -2.35346979943766       -0.29058689506468
N            2.39950906127800       -2.83214556845048       -0.72160284426138
C            1.98852089124359       -3.99924571606419       -1.22062676981989
N            0.68675379100784       -3.97987478726147       -1.43565689747246
C            0.27756423382268       -2.78272220461098       -1.06789482635711
N            1.30365487214257       -2.06009473873815       -0.61723395664810
H            3.83632720849170       -0.85268416325489       -1.85030440808971
H            4.92547887080618       -0.60159772938511       -0.47015741208256
H            4.46009030622996       -3.00703468250557       -0.70356383257325
H            3.73831709898417       -2.39932897939751        0.80358992178507
H            1.45108588785896       -1.07382860177671       -0.32290073558257
H            2.62430856629896       -4.83996627303232       -1.42032232130638
H           -0.73818201189983       -2.44119620824333       -1.11939572866991

          :  Hamiltonian                  GFN2-xTB          :
         :: total energy             -29.182411278172 Eh    ::
         :: gradient norm              0.000717431093 Eh/a0 ::
         :: HOMO-LUMO gap              2.717445083527 eV    ::
         :: SCC energy               -29.576663164141 Eh    ::
         :: -> dispersion             -0.012050669045 Eh    ::
         :: repulsion energy           0.394251885968 Eh    ::

    * Orbital Energies and Occupations

         #    Occupation            Energy/Eh            Energy/eV
      -------------------------------------------------------------
         1        2.0000           -0.9511735             -25.8827
       ...           ...                  ...                  ...
        14        2.0000           -0.7361878             -20.0327
        15        2.0000           -0.7319769             -19.9181
        16        2.0000           -0.7212822             -19.6271
        17        2.0000           -0.6962215             -18.9452
        18        2.0000           -0.6897428             -18.7689
        19        2.0000           -0.6821231             -18.5615
        20        2.0000           -0.6670971             -18.1526
        21        2.0000           -0.6633687             -18.0512
        22        2.0000           -0.6399117             -17.4129
        23        2.0000           -0.6182879             -16.8245
        24        2.0000           -0.5947962             -16.1852
        25        2.0000           -0.5893227             -16.0363
        26        2.0000           -0.5604970             -15.2519 (HOMO)
        27                         -0.4606328             -12.5345 (LUMO)
        28                         -0.4133210             -11.2470
        29                         -0.3976643             -10.8210
        30                         -0.3712462             -10.1021
        31                         -0.2407315              -6.5506
        32                         -0.1865399              -5.0760
        33                         -0.1449240              -3.9436
        34                         -0.0978810              -2.6635
        35                         -0.0765997              -2.0844
        36                         -0.0577134              -1.5705
        37                         -0.0324594              -0.8833
       ...                                ...                  ...
        47                          0.9448073              25.7095
      -------------------------------------------------------------
                  HL-Gap            0.0998643 Eh            2.7174 eV

     #   Z          covCN         q      C6AA      α(0)
     1   7 N        0.991    -0.136    23.533     6.974
     2   7 N        1.973     0.317    16.781     6.075
     3   7 N        1.903    -0.233    26.960     7.698
     4   6 C        3.744     0.007    20.534     6.464
     5   6 C        3.740    -0.040    21.370     6.596
     6   7 N        2.974     0.111    19.340     6.532
     7   6 C        3.161     0.096    25.566     8.265
     8   7 N        1.928    -0.156    25.162     7.438
     9   6 C        3.151     0.115    25.214     8.213
    10   7 N        2.937    -0.002    21.300     6.855
    11   1 H        0.924     0.078     1.997     2.210
    12   1 H        0.924     0.086     1.919     2.166
    13   1 H        0.924     0.116     1.647     2.007
    14   1 H        0.924     0.114     1.663     2.017
    15   1 H        0.859     0.257     0.857     1.450
    16   1 H        0.926     0.133     1.510     1.921
    17   1 H        0.926     0.139     1.471     1.896

Wiberg/Mayer (AO) data.
largest (>0.10) Wiberg bond orders for each atom

     #   Z sym  total        # sym  WBO       # sym  WBO       # sym  WBO
 ---------------------------------------------------------------------------
     1   7 N    2.972 --     2 N    2.291     3 N    0.581
     2   7 N    3.837 --     1 N    2.291     3 N    1.512
     3   7 N    3.193 --     2 N    1.512     4 C    0.973     1 N    0.581
     4   6 C    3.969 --     5 C    0.991     3 N    0.973    12 H    0.960
                            11 H    0.958
     5   6 C    3.935 --     4 C    0.991     6 N    0.969    13 H    0.957
                            14 H    0.946
     6   7 N    3.689 --     7 C    1.363    10 N    1.141     5 C    0.969
                             9 C    0.116
     7   6 C    3.944 --     8 N    1.446     6 N    1.363    16 H    0.949
                            10 N    0.112
     8   7 N    3.080 --     9 C    1.459     7 C    1.446
     9   6 C    3.940 --     8 N    1.459    10 N    1.374    17 H    0.947
                             6 N    0.116
    10   7 N    3.614 --     9 C    1.374     6 N    1.141    15 H    0.831
                             7 C    0.112
    11   1 H    0.994 --     4 C    0.958
    12   1 H    0.992 --     4 C    0.960
    13   1 H    0.985 --     5 C    0.957
    14   1 H    0.987 --     5 C    0.946
    15   1 H    0.934 --    10 N    0.831
    16   1 H    0.982 --     7 C    0.949
    17   1 H    0.981 --     9 C    0.947
 ---------------------------------------------------------------------------

molecular dipole:
                 x           y           z       tot (Debye)
 q only:        4.587      -4.229      -1.254
   full:        5.003      -4.079      -1.215      16.695

           -------------------------------------------------
          | TOTAL ENERGY              -29.182411278172 Eh   |
          | GRADIENT NORM               0.000717431093 Eh/α |
          | HOMO-LUMO GAP               2.717445083527 eV   |
           -------------------------------------------------

 * finished run on 2024/12/20 at 07:12:19.438
