   * xtb version 6.7.1 (edcfbbe) compiled by 'conda@3ef47c1a292c' on 2024-11-25

   ID    Z sym.   atoms
    1    6 C      1-12, 14, 16-20
    2    8 O      13
    3    7 N      15
    4    1 H      21-52

          program call               : xtb C1136.xyz --opt --namespace C1136 --charge +1
          :  Hamiltonian                  GFN2-xTB          :
 * total energy  :   -61.4427338 Eh     change       -0.9422365E-09 Eh
 * total energy  :   -61.4471436 Eh     change       -0.4409749E-02 Eh
 * total energy  :   -61.4480996 Eh     change       -0.9559720E-03 Eh
 * total energy  :   -61.4483021 Eh     change       -0.2025455E-03 Eh
 * total energy  :   -61.4484751 Eh     change       -0.1730355E-03 Eh
 * total energy  :   -61.4485365 Eh     change       -0.6137342E-04 Eh
 * total energy  :   -61.4486021 Eh     change       -0.6563176E-04 Eh
 * total energy  :   -61.4486774 Eh     change       -0.7524102E-04 Eh
 * total energy  :   -61.4487630 Eh     change       -0.8562046E-04 Eh
 * total energy  :   -61.4488558 Eh     change       -0.9281151E-04 Eh
 * total energy  :   -61.4511365 Eh     change       -0.1189910E-04 Eh
 * total energy  :   -61.4511484 Eh     change       -0.1188909E-04 Eh
 * total energy  :   -61.4511609 Eh     change       -0.1252613E-04 Eh
 * total energy  :   -61.4511747 Eh     change       -0.1383492E-04 Eh
 * total energy  :   -61.4511907 Eh     change       -0.1603422E-04 Eh
 * total energy  :   -61.4512073 Eh     change       -0.1655929E-04 Eh
 * total energy  :   -61.4512217 Eh     change       -0.1442658E-04 Eh
 * total energy  :   -61.4512314 Eh     change       -0.9631129E-05 Eh
 * total energy  :   -61.4512339 Eh     change       -0.2493932E-05 Eh
   *** GEOMETRY OPTIMIZATION CONVERGED AFTER 68 ITERATIONS ***

 final structure:
================
52
 xtb: 6.7.1 (edcfbbe)
C            1.82768063340960        1.09735998259225       -0.22746486526053
C            1.71527838058274        1.13671772668756       -1.74654497512423
C            1.82313259347614       -0.24282789686930       -2.39750299441072
C            0.73641288475856       -1.23844667450029       -1.98618288999514
C           -0.69519825560041       -0.79640208572701       -2.29554871350583
C           -0.98156532258592       -0.52093865452179       -3.77322337807896
C           -0.72766043750883       -1.70153459366207       -4.71285887650644
C           -1.52733090740353       -2.96665158683299       -4.39467099041181
C           -3.04728763889310       -2.78975551973697       -4.42343378989491
C           -3.61032930600970       -2.33427254488588       -5.77208472407673
C           -3.28674785834738       -3.24230790515672       -6.96721145668201
C           -3.56151718781558       -4.74074458843028       -6.81543452482146
O           -4.89102232763348       -5.15894275582691       -7.16186813328812
C           -5.89757317109696       -4.81132292541171       -6.30696111888486
N           -5.88062330192588       -5.66134744887025       -5.07987988470026
C           -6.09934286578803       -5.13278369172409       -3.87178458189646
C           -6.07244072696828       -5.92237864501130       -2.74063890530886
C           -5.80836851002539       -7.28111724755177       -2.86670933338965
C           -5.58159672178722       -7.80609832496748       -4.13372978162041
C           -5.62648591015755       -6.96663308498110       -5.22633222071049
H            0.98115166964530        0.57969950527480        0.21698259460056
H            1.85310692100780        2.10756781691713        0.17398102368473
H            2.74010211790588        0.58723585225292        0.07357002332395
H            0.77396402741174        1.61097462012434       -2.03075171335952
H            2.52152000582033        1.75917302042745       -2.14185767285133
H            1.81044434235275       -0.11968384407602       -3.48251213929803
H            2.79108175456107       -0.67579243895042       -2.13288859358585
H            0.93813988779368       -2.18981872658145       -2.48385440001307
H            0.81067453384706       -1.42082388537760       -0.91252336051582
H           -1.37804752184037       -1.56787336207957       -1.92972821840673
H           -0.91626016258084        0.11292632701931       -1.73407915857453
H           -2.02038751491637       -0.19498958065642       -3.86759796275456
H           -0.35949917574962        0.31137261143401       -4.10549063444459
H           -0.94297455104188       -1.38078540250876       -5.73434497328694
H            0.33153337076682       -1.96016052195901       -4.67995354785174
H           -1.23881119699636       -3.74462560882609       -5.10545819464833
H           -1.24822322095486       -3.32168091311984       -3.40103141702170
H           -3.51080126556350       -3.73631261157976       -4.11944918022001
H           -3.33149264506653       -2.04906003757423       -3.67425977092530
H           -4.69052654768972       -2.19184319973231       -5.67152451673873
H           -3.19990924672802       -1.35045424857153       -6.00170345575010
H           -3.83224746634531       -2.88576773218968       -7.84302336758818
H           -2.22427018824169       -3.14064425877633       -7.18857454453468
H           -2.94667123035285       -5.28828673698267       -7.53155876109141
H           -3.31232472374317       -5.09201690260681       -5.80795117018218
H           -5.86410627700800       -3.76630586324695       -5.98046897874675
H           -6.84303249155271       -5.00553320820818       -6.82904173843501
H           -6.29457636621596       -4.07154183935254       -3.81955420382905
H           -6.24960859856870       -5.47634250820222       -1.77507498860574
H           -5.77786461406643       -7.91651198629887       -1.99540099258896
H           -5.37384460908190       -8.85474459616715       -4.27433829924059
H           -5.44844305952435       -7.30626127433639       -6.23765154803353

          :  Hamiltonian                  GFN2-xTB          :
         :: total energy             -61.451233860041 Eh    ::
         :: gradient norm              0.000245019658 Eh/a0 ::
         :: HOMO-LUMO gap              0.260929155815 eV    ::
         :: SCC energy               -62.353451013427 Eh    ::
         :: -> dispersion             -0.044346273381 Eh    ::
         :: repulsion energy           0.902217153387 Eh    ::

    * Orbital Energies and Occupations

         #    Occupation            Energy/Eh            Energy/eV
      -------------------------------------------------------------
         1        2.0000           -0.8839487             -24.0535
       ...           ...                  ...                  ...
        45        2.0000           -0.5415306             -14.7358
        46        2.0000           -0.5392748             -14.6744
        47        2.0000           -0.5331960             -14.5090
        48        2.0000           -0.5295530             -14.4099
        49        2.0000           -0.5211153             -14.1803
        50        2.0000           -0.5169083             -14.0658
        51        2.0000           -0.5097966             -13.8723
        52        2.0000           -0.4998067             -13.6004
        53        2.0000           -0.4965513             -13.5118
        54        2.0000           -0.4928923             -13.4123
        55        2.0000           -0.4787627             -13.0278
        56        1.9990           -0.4747325             -12.9181
        57        1.9877           -0.4723530             -12.8534 (HOMO)
        58        0.0133           -0.4627640             -12.5925 (LUMO)
        59                         -0.4312156             -11.7340
        60                         -0.3106408              -8.4530
        61                         -0.2006354              -5.4596
        62                         -0.1277064              -3.4751
        63                         -0.0812586              -2.2112
        64                         -0.0481298              -1.3097
        65                         -0.0415702              -1.1312
        66                         -0.0356900              -0.9712
        67                         -0.0332713              -0.9054
        68                         -0.0194442              -0.5291
       ...                                ...                  ...
       112                          0.4432620              12.0618
      -------------------------------------------------------------
                  HL-Gap            0.0095890 Eh            0.2609 eV

     #   Z          covCN         q      C6AA      α(0)
     1   6 C        3.751    -0.103    22.524     6.768
     2   6 C        3.799    -0.053    21.524     6.606
     3   6 C        3.801    -0.058    21.621     6.620
     4   6 C        3.800    -0.057    21.608     6.618
     5   6 C        3.800    -0.057    21.593     6.616
     6   6 C        3.800    -0.059    21.631     6.622
     7   6 C        3.800    -0.060    21.652     6.625
     8   6 C        3.800    -0.060    21.647     6.624
     9   6 C        3.799    -0.055    21.562     6.612
    10   6 C        3.799    -0.062    21.684     6.630
    11   6 C        3.798    -0.078    21.995     6.678
    12   6 C        3.689     0.062    19.728     6.357
    13   8 O        1.700    -0.284    18.711     5.840
    14   6 C        3.642     0.115    19.022     6.271
    15   7 N        2.746     0.071    20.000     6.642
    16   6 C        2.882     0.038    27.156     8.543
    17   6 C        2.915    -0.009    28.247     8.715
    18   6 C        2.925     0.015    27.668     8.626
    19   6 C        2.915    -0.009    28.235     8.713
    20   6 C        2.887     0.044    27.018     8.522
    21   1 H        0.925     0.033     2.537     2.491
    22   1 H        0.925     0.035     2.511     2.478
    23   1 H        0.925     0.037     2.494     2.469
    24   1 H        0.924     0.031     2.568     2.506
    25   1 H        0.924     0.033     2.551     2.498
    26   1 H        0.924     0.030     2.593     2.518
    27   1 H        0.924     0.033     2.545     2.495
    28   1 H        0.924     0.026     2.642     2.542
    29   1 H        0.924     0.035     2.518     2.482
    30   1 H        0.924     0.020     2.728     2.583
    31   1 H        0.924     0.037     2.489     2.467
    32   1 H        0.924     0.025     2.665     2.553
    33   1 H        0.924     0.041     2.437     2.441
    34   1 H        0.924     0.029     2.594     2.519
    35   1 H        0.924     0.042     2.421     2.433
    36   1 H        0.924     0.025     2.653     2.547
    37   1 H        0.924     0.039     2.468     2.457
    38   1 H        0.924    -0.003     3.106     2.756
    39   1 H        0.924     0.044     2.398     2.421
    40   1 H        0.924     0.016     2.790     2.612
    41   1 H        0.924     0.059     2.207     2.323
    42   1 H        0.924     0.059     2.206     2.323
    43   1 H        0.925     0.064     2.147     2.291
    44   1 H        0.924     0.078     1.996     2.209
    45   1 H        0.924     0.032     2.557     2.501
    46   1 H        0.924     0.084     1.939     2.178
    47   1 H        0.924     0.104     1.745     2.066
    48   1 H        0.926     0.108     1.716     2.049
    49   1 H        0.926     0.111     1.689     2.032
    50   1 H        0.926     0.110     1.697     2.037
    51   1 H        0.926     0.112     1.683     2.029
    52   1 H        0.925     0.126     1.567     1.958

Wiberg/Mayer (AO) data.
largest (>0.10) Wiberg bond orders for each atom

     #   Z sym  total        # sym  WBO       # sym  WBO       # sym  WBO
 ---------------------------------------------------------------------------
     1   6 C    3.995 --     2 C    1.020    22 H    0.987    23 H    0.987
                            21 H    0.985
     2   6 C    3.994 --     1 C    1.020     3 C    1.008    25 H    0.976
                            24 H    0.974
     3   6 C    3.994 --     2 C    1.008     4 C    1.006    27 H    0.976
                            26 H    0.975
     4   6 C    3.994 --     5 C    1.007     3 C    1.006    28 H    0.975
                            29 H    0.974
     5   6 C    3.996 --     4 C    1.007     6 C    1.007    30 H    0.975
                            31 H    0.974
     6   6 C    3.996 --     7 C    1.008     5 C    1.007    32 H    0.975
                            33 H    0.974
     7   6 C    3.996 --     6 C    1.008     8 C    1.007    34 H    0.975
                            35 H    0.973
     8   6 C    3.996 --     7 C    1.007     9 C    1.007    36 H    0.976
                            37 H    0.974
     9   6 C    3.996 --    10 C    1.008     8 C    1.007    39 H    0.973
                            38 H    0.972
    10   6 C    3.994 --     9 C    1.008    11 C    1.006    41 H    0.971
                            40 H    0.968
    11   6 C    3.989 --    10 C    1.006    12 C    1.001    42 H    0.972
                            43 H    0.970
    12   6 C    3.922 --    11 C    1.001    44 H    0.968    45 H    0.967
                            13 O    0.936
    13   8 O    2.139 --    14 C    1.067    12 C    0.936
    14   6 C    3.927 --    13 O    1.067    46 H    0.942    47 H    0.942
                            15 N    0.901
    15   7 N    3.740 --    16 C    1.329    20 C    1.328    14 C    0.901
    16   6 C    3.952 --    17 C    1.462    15 N    1.329    48 H    0.953
    17   6 C    3.980 --    16 C    1.462    18 C    1.420    49 H    0.958
    18   6 C    3.961 --    17 C    1.420    19 C    1.420    50 H    0.961
    19   6 C    3.979 --    20 C    1.463    18 C    1.420    51 H    0.958
    20   6 C    3.945 --    19 C    1.463    15 N    1.328    52 H    0.949
    21   1 H    0.997 --     1 C    0.985
    22   1 H    0.999 --     1 C    0.987
    23   1 H    0.998 --     1 C    0.987
    24   1 H    0.997 --     2 C    0.974
    25   1 H    0.997 --     2 C    0.976
    26   1 H    0.998 --     3 C    0.975
    27   1 H    0.998 --     3 C    0.976
    28   1 H    0.999 --     4 C    0.975
    29   1 H    0.998 --     4 C    0.974
    30   1 H    0.999 --     5 C    0.975
    31   1 H    0.998 --     5 C    0.974
    32   1 H    0.999 --     6 C    0.975
    33   1 H    0.998 --     6 C    0.974
    34   1 H    0.999 --     7 C    0.975
    35   1 H    0.998 --     7 C    0.973
    36   1 H    0.999 --     8 C    0.976
    37   1 H    0.998 --     8 C    0.974
    38   1 H    1.000 --     9 C    0.972
    39   1 H    0.998 --     9 C    0.973
    40   1 H    1.000 --    10 C    0.968
    41   1 H    0.996 --    10 C    0.971
    42   1 H    0.996 --    11 C    0.972
    43   1 H    0.996 --    11 C    0.970
    44   1 H    0.994 --    12 C    0.968
    45   1 H    0.999 --    12 C    0.967
    46   1 H    0.993 --    14 C    0.942
    47   1 H    0.989 --    14 C    0.942
    48   1 H    0.988 --    16 C    0.953
    49   1 H    0.987 --    17 C    0.958
    50   1 H    0.987 --    18 C    0.961
    51   1 H    0.987 --    19 C    0.958
    52   1 H    0.984 --    20 C    0.949
 ---------------------------------------------------------------------------

molecular dipole:
                 x           y           z       tot (Debye)
 q only:       -9.954     -10.477      -8.350
   full:      -10.058     -10.447      -8.245      42.401

           -------------------------------------------------
          | TOTAL ENERGY              -61.451233860041 Eh   |
          | GRADIENT NORM               0.000245019658 Eh/α |
          | HOMO-LUMO GAP               0.260929155815 eV   |
           -------------------------------------------------

 * finished run on 2024/12/20 at 07:12:30.788
