   * xtb version 6.7.1 (edcfbbe) compiled by 'conda@3ef47c1a292c' on 2024-11-25

   ID    Z sym.   atoms
    1    6 C      1-3, 5, 6, 8, 9
    2    7 N      4, 7
    3    1 H      10-18

          program call               : xtb C1134.xyz --opt --namespace C1134 --charge +1
          :  Hamiltonian                  GFN2-xTB          :
 * total energy  :   -24.9431485 Eh     change       -0.5353229E-10 Eh
 * total energy  :   -24.9675333 Eh     change       -0.2438473E-01 Eh
 * total energy  :   -24.9692221 Eh     change       -0.1688776E-02 Eh
 * total energy  :   -24.9694529 Eh     change       -0.2308280E-03 Eh
 * total energy  :   -24.9695289 Eh     change       -0.7598145E-04 Eh
 * total energy  :   -24.9695511 Eh     change       -0.2223400E-04 Eh
 * total energy  :   -24.9695529 Eh     change       -0.1771954E-05 Eh
 * total energy  :   -24.9695538 Eh     change       -0.9018670E-06 Eh
   *** GEOMETRY OPTIMIZATION CONVERGED AFTER 8 ITERATIONS ***

 final structure:
================
18
 xtb: 6.7.1 (edcfbbe)
C            0.81796813483783        0.04592967553907       -0.07945654164046
C           -0.37783972064716        0.05282425016086       -0.06911746136615
C           -1.83193775227246        0.05183647909835       -0.07785418570686
N           -2.33501443192263       -0.35637069839844       -1.37780066027813
C           -2.87763683868072        0.45791929310191       -2.32110004656701
C           -3.16755073635674       -0.31757749603525       -3.40411568609805
N           -2.79128318075849       -1.59003813223521       -3.10478199090355
C           -2.28801950943987       -1.59042561847004       -1.87303929788557
C           -2.92233513546539       -2.73758065992339       -3.96349970072887
H            1.86820307213453        0.05035232345546       -0.06283546544524
H           -2.20018663800426       -0.63876855941583        0.68804167367285
H           -2.20218296935735        1.05682851359085        0.14176501518933
H           -3.02072540667267        1.50852952332597       -2.16965258921430
H           -3.60708249241899       -0.04820715566877       -4.34280595138471
H           -1.89968817296798       -2.44887636165567       -1.35913613848212
H           -1.95497268788954       -3.22095121927430       -4.10055018110255
H           -3.61446826888135       -3.46043637561828       -3.52972991843909
H           -3.30241726523677       -2.42392778157735       -4.93290087361949

          :  Hamiltonian                  GFN2-xTB          :
         :: total energy             -24.969553772215 Eh    ::
         :: gradient norm              0.000303565432 Eh/a0 ::
         :: HOMO-LUMO gap              3.851045134906 eV    ::
         :: SCC energy               -25.432282806358 Eh    ::
         :: -> dispersion             -0.012049816577 Eh    ::
         :: repulsion energy           0.462729034143 Eh    ::

    * Orbital Energies and Occupations

         #    Occupation            Energy/Eh            Energy/eV
      -------------------------------------------------------------
         1        2.0000           -0.9038096             -24.5939
       ...           ...                  ...                  ...
        11        2.0000           -0.7074962             -19.2520
        12        2.0000           -0.7028474             -19.1255
        13        2.0000           -0.6964338             -18.9509
        14        2.0000           -0.6809579             -18.5298
        15        2.0000           -0.6683770             -18.1875
        16        2.0000           -0.6631049             -18.0440
        17        2.0000           -0.6526914             -17.7606
        18        2.0000           -0.6435901             -17.5130
        19        2.0000           -0.6269389             -17.0599
        20        2.0000           -0.6070631             -16.5190
        21        2.0000           -0.5939722             -16.1628
        22        2.0000           -0.5647683             -15.3681
        23        2.0000           -0.5570601             -15.1584 (HOMO)
        24                         -0.4155368             -11.3073 (LUMO)
        25                         -0.3772795             -10.2663
        26                         -0.3103125              -8.4440
        27                         -0.2948262              -8.0226
        28                         -0.1815263              -4.9396
        29                         -0.1319243              -3.5898
        30                         -0.0798432              -2.1726
        31                         -0.0559632              -1.5228
        32                         -0.0535368              -1.4568
        33                         -0.0249777              -0.6797
        34                         -0.0063155              -0.1719
       ...                                ...                  ...
        45                          1.2900263              35.1034
      -------------------------------------------------------------
                  HL-Gap            0.1415233 Eh            3.8510 eV

     #   Z          covCN         q      C6AA      α(0)
     1   6 C        1.909    -0.069    32.991     9.276
     2   6 C        1.967    -0.028    31.807     9.108
     3   6 C        3.744    -0.007    20.770     6.501
     4   7 N        2.877     0.075    19.930     6.630
     5   6 C        3.070    -0.005    28.075     8.688
     6   6 C        3.075    -0.007    28.109     8.693
     7   7 N        2.867     0.080    19.842     6.616
     8   6 C        3.099     0.045    26.871     8.495
     9   6 C        3.692    -0.088    22.375     6.768
    10   1 H        0.928     0.126     1.562     1.954
    11   1 H        0.924     0.106     1.734     2.059
    12   1 H        0.924     0.111     1.691     2.033
    13   1 H        0.926     0.111     1.685     2.030
    14   1 H        0.926     0.112     1.682     2.028
    15   1 H        0.926     0.117     1.637     2.001
    16   1 H        0.925     0.105     1.737     2.061
    17   1 H        0.924     0.106     1.731     2.058
    18   1 H        0.925     0.109     1.707     2.043

Wiberg/Mayer (AO) data.
largest (>0.10) Wiberg bond orders for each atom

     #   Z sym  total        # sym  WBO       # sym  WBO       # sym  WBO
 ---------------------------------------------------------------------------
     1   6 C    3.965 --     2 C    2.907    10 H    0.960
     2   6 C    3.975 --     1 C    2.907     3 C    1.030
     3   6 C    3.940 --     2 C    1.030     4 N    0.953    12 H    0.947
                            11 H    0.942
     4   7 N    3.721 --     8 C    1.363     5 C    1.237     3 C    0.953
     5   6 C    3.950 --     6 C    1.582     4 N    1.237    13 H    0.960
     6   6 C    3.948 --     5 C    1.582     7 N    1.234    14 H    0.960
     7   7 N    3.725 --     8 C    1.364     6 C    1.234     9 C    0.989
     8   6 C    3.947 --     7 N    1.364     4 N    1.363    15 H    0.954
     9   6 C    3.931 --     7 N    0.989    18 H    0.974    16 H    0.964
                            17 H    0.962
    10   1 H    0.984 --     1 C    0.960
    11   1 H    0.989 --     3 C    0.942
    12   1 H    0.987 --     3 C    0.947
    13   1 H    0.988 --     5 C    0.960
    14   1 H    0.987 --     6 C    0.960
    15   1 H    0.986 --     8 C    0.954
    16   1 H    0.989 --     9 C    0.964
    17   1 H    0.989 --     9 C    0.962
    18   1 H    0.988 --     9 C    0.974
 ---------------------------------------------------------------------------

molecular dipole:
                 x           y           z       tot (Debye)
 q only:       -4.523      -1.943      -4.145
   full:       -4.567      -1.990      -4.123      16.436

           -------------------------------------------------
          | TOTAL ENERGY              -24.969553772215 Eh   |
          | GRADIENT NORM               0.000303565432 Eh/α |
          | HOMO-LUMO GAP               3.851045134906 eV   |
           -------------------------------------------------

 * finished run on 2024/12/20 at 07:12:26.814
