   * xtb version 6.7.1 (edcfbbe) compiled by 'conda@3ef47c1a292c' on 2024-11-25

   ID    Z sym.   atoms
    1    6 C      1-12, 14-20
    2    7 N      13
    3    1 H      21-62

          program call               : xtb C1132.xyz --opt --namespace C1132 --charge +1
          :  Hamiltonian                  GFN2-xTB          :
 * total energy  :   -64.6371508 Eh     change       -0.1262492E-09 Eh
 * total energy  :   -64.6448579 Eh     change       -0.7707174E-02 Eh
 * total energy  :   -64.6467725 Eh     change       -0.1914546E-02 Eh
 * total energy  :   -64.6469728 Eh     change       -0.2002700E-03 Eh
 * total energy  :   -64.6472555 Eh     change       -0.2827257E-03 Eh
 * total energy  :   -64.6474692 Eh     change       -0.2137191E-03 Eh
 * total energy  :   -64.6477489 Eh     change       -0.2797074E-03 Eh
 * total energy  :   -64.6480220 Eh     change       -0.2730380E-03 Eh
 * total energy  :   -64.6482191 Eh     change       -0.1971890E-03 Eh
 * total energy  :   -64.6484196 Eh     change       -0.2004749E-03 Eh
 * total energy  :   -64.6570921 Eh     change       -0.9918613E-05 Eh
 * total energy  :   -64.6571029 Eh     change       -0.1083005E-04 Eh
 * total energy  :   -64.6571143 Eh     change       -0.1135394E-04 Eh
 * total energy  :   -64.6571257 Eh     change       -0.1138938E-04 Eh
 * total energy  :   -64.6571368 Eh     change       -0.1112374E-04 Eh
 * total energy  :   -64.6571475 Eh     change       -0.1074289E-04 Eh
 * total energy  :   -64.6571579 Eh     change       -0.1033497E-04 Eh
 * total energy  :   -64.6571677 Eh     change       -0.9878119E-05 Eh
 * total energy  :   -64.6571701 Eh     change       -0.2331288E-05 Eh
   *** GEOMETRY OPTIMIZATION CONVERGED AFTER 94 ITERATIONS ***

 final structure:
================
62
 xtb: 6.7.1 (edcfbbe)
C            1.87346346840246        0.64687759196554       -1.02568860206444
C            1.48498131995383       -0.06262914179793       -2.31739314975547
C            1.76493286872090       -1.56614023407186       -2.28920220938570
C            1.01173891704056       -2.34305227924061       -1.20739064216677
C           -0.51258438259535       -2.23779234309820       -1.27926450889163
C           -1.13501872973173       -2.75227633257599       -2.57875353630470
C           -0.86335807818485       -4.22658052924019       -2.88684448904386
C           -1.29699199709105       -5.20516844654441       -1.79303319340988
C           -2.77007024130636       -5.11304952063716       -1.38992706336138
C           -3.76856951679298       -5.39834674321490       -2.51438690189606
C           -3.73066018823751       -6.83385092405674       -3.05405927908770
C           -4.13635799276577       -7.90894565323428       -2.03557707906284
N           -5.51710364511465       -8.46462814877300       -2.15656668127134
C           -5.75000951157596       -9.06838424698795       -3.51185233374984
C           -4.64084696992568       -9.96097959007294       -4.06630489913559
C           -5.13883509574880      -10.65116702586675       -5.33415246237092
C           -5.73143341495735       -9.55784490218085       -1.14376272145234
C           -5.00938377221441       -9.44642386111850        0.19271191457891
C           -6.55027549420757       -7.39222645633598       -2.00161015070728
C           -6.67857228051896       -6.75769411327502       -0.62618207406891
H            1.25067648559345        0.32346520889441       -0.19540929258378
H            1.75384334785547        1.72197605024825       -1.13702742881742
H            2.91264429191960        0.44280434892836       -0.77736383037230
H            0.42894519849611        0.11652905111429       -2.52801001573921
H            2.05635565073220        0.37049702403040       -3.14177624118975
H            1.52735179321551       -1.98462603294248       -3.26975369772750
H            2.83496713342640       -1.71627983669817       -2.12567603067938
H            1.30735195239412       -3.39276325008466       -1.27169035542888
H            1.32949481454166       -1.98403515752350       -0.22694431662756
H           -0.93357645342086       -2.78402733067693       -0.43170826474429
H           -0.80341772642235       -1.19321860868858       -1.15684755259695
H           -2.21372505301291       -2.58187332428817       -2.53428145788688
H           -0.75689031696148       -2.15980313332214       -3.41316729968761
H           -1.36197244764501       -4.47945348195292       -3.82608741465227
H            0.20614752786891       -4.36418834028439       -3.05195093862861
H           -1.06643069667275       -6.22090342890350       -2.12470094642167
H           -0.69743842039060       -5.02323641485934       -0.90035246655536
H           -2.93610787503065       -5.79654487243957       -0.55202300328633
H           -2.96868446013618       -4.10812048134791       -1.01729048972742
H           -4.77008140918273       -5.15001690629818       -2.15841137009438
H           -3.55276583638986       -4.72742590997800       -3.34574090549650
H           -4.34444337410786       -6.88598085391927       -3.95259878986360
H           -2.70761123382329       -7.04176300119177       -3.36823313542700
H           -3.45606734382022       -8.75731724307957       -2.10361872317981
H           -4.04204569771864       -7.48742768209233       -1.03685891180174
H           -6.67308220600469       -9.64996476660573       -3.44697267004671
H           -5.92577199509150       -8.26057320393580       -4.22371446200738
H           -3.76056267883840       -9.36863729331531       -4.31458185726237
H           -4.34551635449435      -10.72678959898909       -3.34755236861464
H           -5.43261088525580       -9.92046617718509       -6.08303191670296
H           -4.34974933317667      -11.26757114459939       -5.75339773277543
H           -5.99218437431119      -11.29007261713464       -5.12158109555686
H           -6.80747767038235       -9.61985634290076       -0.97148734060084
H           -5.41462144626838      -10.49460953719978       -1.60342443833942
H           -5.21288979252018       -8.52093394071049        0.71934083567176
H           -5.36605733134645      -10.26232533058581        0.81761251810346
H           -3.93502662700915       -9.56658512776277        0.08919025279413
H           -6.31706234424052       -6.61607641457226       -2.73118479917137
H           -7.51376162052560       -7.82995489467128       -2.27356323206307
H           -5.74511199232098       -6.32752367334300       -0.27581201564226
H           -7.39877281819511       -5.94651617157910       -0.70666057317476
H           -7.05892564406486       -7.45358725714370        0.11496383660739

          :  Hamiltonian                  GFN2-xTB          :
         :: total energy             -64.657170070435 Eh    ::
         :: gradient norm              0.000152100988 Eh/a0 ::
         :: HOMO-LUMO gap              6.359846986147 eV    ::
         :: SCC energy               -65.600305584195 Eh    ::
         :: -> dispersion             -0.051846117734 Eh    ::
         :: repulsion energy           0.943135513759 Eh    ::

    * Orbital Energies and Occupations

         #    Occupation            Energy/Eh            Energy/eV
      -------------------------------------------------------------
         1        2.0000           -0.8476076             -23.0646
       ...           ...                  ...                  ...
        49        2.0000           -0.5441630             -14.8074
        50        2.0000           -0.5387667             -14.6606
        51        2.0000           -0.5311182             -14.4525
        52        2.0000           -0.5287567             -14.3882
        53        2.0000           -0.5177996             -14.0900
        54        2.0000           -0.5139875             -13.9863
        55        2.0000           -0.5067688             -13.7899
        56        2.0000           -0.4967518             -13.5173
        57        2.0000           -0.4930827             -13.4175
        58        2.0000           -0.4891485             -13.3104
        59        2.0000           -0.4744639             -12.9108
        60        2.0000           -0.4705719             -12.8049
        61        2.0000           -0.4684098             -12.7461 (HOMO)
        62                         -0.2346897              -6.3862 (LUMO)
        63                         -0.1723941              -4.6911
        64                         -0.1556019              -4.2341
        65                         -0.1516056              -4.1254
        66                         -0.0624879              -1.7004
        67                         -0.0600829              -1.6349
        68                         -0.0513833              -1.3982
        69                         -0.0418030              -1.1375
        70                         -0.0336406              -0.9154
        71                         -0.0309375              -0.8419
        72                         -0.0226069              -0.6152
       ...                                ...                  ...
       122                          0.2533382               6.8937
      -------------------------------------------------------------
                  HL-Gap            0.2337201 Eh            6.3598 eV

     #   Z          covCN         q      C6AA      α(0)
     1   6 C        3.751    -0.103    22.521     6.768
     2   6 C        3.799    -0.053    21.519     6.605
     3   6 C        3.800    -0.058    21.615     6.619
     4   6 C        3.800    -0.058    21.614     6.619
     5   6 C        3.800    -0.058    21.613     6.619
     6   6 C        3.800    -0.059    21.630     6.622
     7   6 C        3.800    -0.059    21.640     6.623
     8   6 C        3.800    -0.061    21.667     6.627
     9   6 C        3.800    -0.062    21.688     6.631
    10   6 C        3.800    -0.069    21.818     6.651
    11   6 C        3.799    -0.072    21.872     6.659
    12   6 C        3.748    -0.038    21.310     6.584
    13   7 N        3.616     0.099    19.527     6.563
    14   6 C        3.768    -0.036    21.247     6.569
    15   6 C        3.799    -0.065    21.742     6.639
    16   6 C        3.754    -0.118    22.808     6.810
    17   6 C        3.754    -0.031    21.181     6.563
    18   6 C        3.750    -0.129    23.039     6.845
    19   6 C        3.759    -0.028    21.118     6.551
    20   6 C        3.751    -0.125    22.955     6.833
    21   1 H        0.925     0.033     2.540     2.492
    22   1 H        0.925     0.034     2.529     2.487
    23   1 H        0.925     0.036     2.507     2.476
    24   1 H        0.924     0.029     2.600     2.521
    25   1 H        0.924     0.030     2.590     2.517
    26   1 H        0.924     0.027     2.630     2.536
    27   1 H        0.924     0.032     2.562     2.503
    28   1 H        0.924     0.026     2.644     2.543
    29   1 H        0.924     0.035     2.515     2.480
    30   1 H        0.924     0.024     2.677     2.559
    31   1 H        0.924     0.037     2.492     2.469
    32   1 H        0.924     0.023     2.682     2.561
    33   1 H        0.924     0.039     2.461     2.453
    34   1 H        0.924     0.023     2.683     2.562
    35   1 H        0.924     0.041     2.436     2.441
    36   1 H        0.924     0.022     2.702     2.571
    37   1 H        0.924     0.045     2.389     2.417
    38   1 H        0.924     0.017     2.774     2.605
    39   1 H        0.925     0.051     2.304     2.374
    40   1 H        0.924     0.032     2.555     2.500
    41   1 H        0.925     0.059     2.214     2.327
    42   1 H        0.925     0.047     2.362     2.403
    43   1 H        0.924     0.069     2.093     2.262
    44   1 H        0.925     0.077     2.005     2.214
    45   1 H        0.925     0.096     1.823     2.112
    46   1 H        0.924     0.077     2.007     2.215
    47   1 H        0.924     0.080     1.980     2.200
    48   1 H        0.925     0.061     2.190     2.314
    49   1 H        0.924     0.051     2.310     2.377
    50   1 H        0.925     0.053     2.284     2.363
    51   1 H        0.925     0.068     2.110     2.272
    52   1 H        0.925     0.052     2.299     2.371
    53   1 H        0.924     0.081     1.974     2.197
    54   1 H        0.924     0.084     1.936     2.176
    55   1 H        0.925     0.069     2.098     2.265
    56   1 H        0.925     0.081     1.968     2.194
    57   1 H        0.925     0.064     2.148     2.292
    58   1 H        0.924     0.086     1.916     2.165
    59   1 H        0.924     0.074     2.040     2.233
    60   1 H        0.925     0.067     2.124     2.279
    61   1 H        0.925     0.079     1.987     2.204
    62   1 H        0.925     0.066     2.126     2.280

Wiberg/Mayer (AO) data.
largest (>0.10) Wiberg bond orders for each atom

     #   Z sym  total        # sym  WBO       # sym  WBO       # sym  WBO
 ---------------------------------------------------------------------------
     1   6 C    3.997 --     2 C    1.020    23 H    0.988    22 H    0.987
                            21 H    0.986
     2   6 C    3.998 --     1 C    1.020     3 C    1.008    25 H    0.978
                            24 H    0.976
     3   6 C    3.997 --     2 C    1.008     4 C    1.008    27 H    0.977
                            26 H    0.976
     4   6 C    3.997 --     5 C    1.008     3 C    1.008    28 H    0.975
                            29 H    0.975
     5   6 C    3.997 --     4 C    1.008     6 C    1.008    30 H    0.975
                            31 H    0.974
     6   6 C    3.997 --     5 C    1.008     7 C    1.007    32 H    0.976
                            33 H    0.974
     7   6 C    3.997 --     6 C    1.007     8 C    1.007    34 H    0.975
                            35 H    0.974
     8   6 C    3.996 --     7 C    1.007     9 C    1.007    36 H    0.974
                            37 H    0.973
     9   6 C    3.995 --    10 C    1.008     8 C    1.007    39 H    0.971
                            38 H    0.971
    10   6 C    3.992 --     9 C    1.008    11 C    1.005    40 H    0.972
                            41 H    0.970
    11   6 C    3.986 --    10 C    1.005    12 C    1.002    42 H    0.967
                            43 H    0.967
    12   6 C    3.928 --    11 C    1.002    44 H    0.968    45 H    0.953
                            13 N    0.931
    13   7 N    3.796 --    19 C    0.932    12 C    0.931    14 C    0.929
                            17 C    0.926
    14   6 C    3.935 --    15 C    1.006    46 H    0.967    47 H    0.964
                            13 N    0.929
    15   6 C    3.988 --    16 C    1.011    14 C    1.006    48 H    0.973
                            49 H    0.969
    16   6 C    3.988 --    15 C    1.011    50 H    0.986    52 H    0.986
                            51 H    0.982
    17   6 C    3.936 --    18 C    1.022    53 H    0.968    54 H    0.963
                            13 N    0.926
    18   6 C    3.982 --    17 C    1.022    57 H    0.983    55 H    0.977
                            56 H    0.973
    19   6 C    3.938 --    20 C    1.022    59 H    0.969    58 H    0.962
                            13 N    0.932
    20   6 C    3.983 --    19 C    1.022    62 H    0.980    60 H    0.977
                            61 H    0.973
    21   1 H    0.999 --     1 C    0.986
    22   1 H    0.999 --     1 C    0.987
    23   1 H    0.999 --     1 C    0.988
    24   1 H    0.999 --     2 C    0.976
    25   1 H    0.999 --     2 C    0.978
    26   1 H    0.999 --     3 C    0.976
    27   1 H    0.999 --     3 C    0.977
    28   1 H    0.999 --     4 C    0.975
    29   1 H    0.999 --     4 C    0.975
    30   1 H    0.999 --     5 C    0.975
    31   1 H    0.999 --     5 C    0.974
    32   1 H    0.999 --     6 C    0.976
    33   1 H    0.998 --     6 C    0.974
    34   1 H    0.999 --     7 C    0.975
    35   1 H    0.998 --     7 C    0.974
    36   1 H    1.000 --     8 C    0.974
    37   1 H    0.998 --     8 C    0.973
    38   1 H    1.000 --     9 C    0.971
    39   1 H    0.997 --     9 C    0.971
    40   1 H    0.999 --    10 C    0.972
    41   1 H    0.996 --    10 C    0.970
    42   1 H    0.998 --    11 C    0.967
    43   1 H    0.995 --    11 C    0.967
    44   1 H    0.994 --    12 C    0.968
    45   1 H    0.991 --    12 C    0.953
    46   1 H    0.994 --    14 C    0.967
    47   1 H    0.993 --    14 C    0.964
    48   1 H    0.996 --    15 C    0.973
    49   1 H    0.997 --    15 C    0.969
    50   1 H    0.997 --    16 C    0.986
    51   1 H    0.995 --    16 C    0.982
    52   1 H    0.997 --    16 C    0.986
    53   1 H    0.993 --    17 C    0.968
    54   1 H    0.993 --    17 C    0.963
    55   1 H    0.995 --    18 C    0.977
    56   1 H    0.993 --    18 C    0.973
    57   1 H    0.996 --    18 C    0.983
    58   1 H    0.993 --    19 C    0.962
    59   1 H    0.994 --    19 C    0.969
    60   1 H    0.996 --    20 C    0.977
    61   1 H    0.993 --    20 C    0.973
    62   1 H    0.996 --    20 C    0.980
 ---------------------------------------------------------------------------

molecular dipole:
                 x           y           z       tot (Debye)
 q only:       -9.840     -15.531      -4.033
   full:       -9.963     -15.615      -4.072      48.204

           -------------------------------------------------
          | TOTAL ENERGY              -64.657170070435 Eh   |
          | GRADIENT NORM               0.000152100988 Eh/α |
          | HOMO-LUMO GAP               6.359846986147 eV   |
           -------------------------------------------------

 * finished run on 2024/12/20 at 07:12:26.024
