   * xtb version 6.7.1 (edcfbbe) compiled by 'conda@3ef47c1a292c' on 2024-11-25

   ID    Z sym.   atoms
    1    6 C      1-4, 6-12, 14, 15
    2    7 N      5
    3    8 O      13
    4    1 H      16-35

          program call               : xtb C1131.xyz --opt --namespace C1131 --charge +1
          :  Hamiltonian                  GFN2-xTB          :
 * total energy  :   -44.5873988 Eh     change       -0.2907115E-09 Eh
 * total energy  :   -44.5954705 Eh     change       -0.8071713E-02 Eh
 * total energy  :   -44.5974102 Eh     change       -0.1939729E-02 Eh
 * total energy  :   -44.5976793 Eh     change       -0.2690946E-03 Eh
 * total energy  :   -44.5978431 Eh     change       -0.1637433E-03 Eh
 * total energy  :   -44.5978993 Eh     change       -0.5625492E-04 Eh
 * total energy  :   -44.5979498 Eh     change       -0.5048110E-04 Eh
 * total energy  :   -44.5980296 Eh     change       -0.7976424E-04 Eh
 * total energy  :   -44.5980855 Eh     change       -0.5589476E-04 Eh
 * total energy  :   -44.5981693 Eh     change       -0.8377516E-04 Eh
 * total energy  :   -44.6070234 Eh     change       -0.2801155E-04 Eh
 * total energy  :   -44.6070363 Eh     change       -0.1290189E-04 Eh
 * total energy  :   -44.6070666 Eh     change       -0.3030180E-04 Eh
 * total energy  :   -44.6070858 Eh     change       -0.1917318E-04 Eh
 * total energy  :   -44.6071030 Eh     change       -0.1722127E-04 Eh
 * total energy  :   -44.6071101 Eh     change       -0.7118919E-05 Eh
 * total energy  :   -44.6071121 Eh     change       -0.2044762E-05 Eh
 * total energy  :   -44.6071199 Eh     change       -0.7760485E-05 Eh
 * total energy  :   -44.6071225 Eh     change       -0.2614357E-05 Eh
   *** GEOMETRY OPTIMIZATION CONVERGED AFTER 103 ITERATIONS ***

 final structure:
================
35
 xtb: 6.7.1 (edcfbbe)
C            1.95356487175319       -0.55479775667137        1.23186242810428
C            0.96676776484875        0.16930105377839        0.36838586251502
C            0.20940840224610       -0.46068680104002       -0.51895834432420
C            0.97298054125582        1.67814045773503        0.47158938526297
N           -0.07559609091295        2.27133506006131        1.37678845944301
C            0.13968513104995        3.74002714928249        1.41666764423155
C           -0.82930668080965        4.62721527894006        0.96261473924747
C           -0.64738945184014        6.00286347704050        0.99957659691351
C           -1.70655838604684        6.93284032809497        0.50619321489731
C            0.54663366254770        6.49890493432548        1.51005612237874
C            1.51935131744199        5.63615287036847        1.96306483120451
C            1.33836801476919        4.25718472369090        1.92519512630533
O            2.32065158694903        3.42515221704407        2.37541144680794
C            0.02622225393376        1.74035465872205        2.75221276796742
C           -1.40715987248049        1.90286506913158        0.86648262466112
H            1.80245365471654       -1.62833227549488        1.16905359459045
H            1.89843380206764       -0.25294216447922        2.27505547039829
H            2.96344139975697       -0.33679309715296        0.88312567825049
H           -0.44756111197498        0.05355734039881       -1.19985974402354
H            0.23821966764496       -1.53134022597601       -0.61724757268658
H            1.94470949221903        1.99629711092899        0.84805460833647
H            0.81251319260610        2.12220630701157       -0.51369093674731
H           -1.76348023187101        4.27116635240034        0.56502102510222
H           -2.03260064974509        7.59071917037077        1.30983221717666
H           -1.31313524794097        7.56174579071050       -0.29029356022853
H           -2.56942374171165        6.39233487979351        0.12844168268165
H            0.71313106255997        7.56341959828304        1.55121767328703
H            2.44680077828037        6.02557353213256        2.35791917504050
H            3.07274207371758        3.94382298364660        2.68997792110771
H           -0.68839709132936        2.25903138200889        3.38971539378822
H           -0.20093521032018        0.67677185355763        2.75384244721129
H            1.02771227767382        1.90028825391126        3.14270474494319
H           -1.53881925232259        2.25660423174451       -0.15369007896721
H           -1.49159934287167        0.81742934639042        0.86825524849911
H           -2.18457858584872        2.31549690930987        1.50623210665195

          :  Hamiltonian                  GFN2-xTB          :
         :: total energy             -44.607122514193 Eh    ::
         :: gradient norm              0.000544915552 Eh/a0 ::
         :: HOMO-LUMO gap              3.982954818879 eV    ::
         :: SCC energy               -45.302630071470 Eh    ::
         :: -> dispersion             -0.032033700003 Eh    ::
         :: repulsion energy           0.695507557278 Eh    ::

    * Orbital Energies and Occupations

         #    Occupation            Energy/Eh            Energy/eV
      -------------------------------------------------------------
         1        2.0000           -0.8562284             -23.2992
       ...           ...                  ...                  ...
        29        2.0000           -0.6144384             -16.7197
        30        2.0000           -0.6132826             -16.6883
        31        2.0000           -0.6020758             -16.3833
        32        2.0000           -0.5859166             -15.9436
        33        2.0000           -0.5785138             -15.7422
        34        2.0000           -0.5756467             -15.6641
        35        2.0000           -0.5738626             -15.6156
        36        2.0000           -0.5690858             -15.4856
        37        2.0000           -0.5641181             -15.3504
        38        2.0000           -0.5593739             -15.2213
        39        2.0000           -0.5476329             -14.9018
        40        2.0000           -0.5280362             -14.3686
        41        2.0000           -0.5164682             -14.0538 (HOMO)
        42                         -0.3700973             -10.0709 (LUMO)
        43                         -0.3537856              -9.6270
        44                         -0.3424395              -9.3183
        45                         -0.2352188              -6.4006
        46                         -0.2094891              -5.7005
        47                         -0.1433986              -3.9021
        48                         -0.1254801              -3.4145
        49                         -0.1122961              -3.0557
        50                         -0.0848297              -2.3083
        51                         -0.0433079              -1.1785
        52                         -0.0304857              -0.8296
       ...                                ...                  ...
        80                          0.5051900              13.7469
      -------------------------------------------------------------
                  HL-Gap            0.1463709 Eh            3.9830 eV

     #   Z          covCN         q      C6AA      α(0)
     1   6 C        3.759    -0.128    23.008     6.838
     2   6 C        2.934     0.010    27.803     8.648
     3   6 C        2.844    -0.101    30.536     9.056
     4   6 C        3.767    -0.045    21.419     6.596
     5   7 N        3.622     0.133    18.972     6.469
     6   6 C        2.927     0.005    27.923     8.666
     7   6 C        2.927    -0.057    29.410     8.894
     8   6 C        2.965     0.027    27.402     8.586
     9   6 C        3.759    -0.124    22.923     6.826
    10   6 C        2.924    -0.030    28.756     8.794
    11   6 C        2.919    -0.061    29.517     8.909
    12   6 C        2.845     0.134    25.068     8.206
    13   8 O        1.659    -0.397    20.782     6.154
    14   6 C        3.724    -0.089    22.308     6.744
    15   6 C        3.722    -0.090    22.336     6.749
    16   1 H        0.925     0.068     2.108     2.271
    17   1 H        0.925     0.057     2.236     2.338
    18   1 H        0.924     0.068     2.105     2.269
    19   1 H        0.926     0.052     2.298     2.370
    20   1 H        0.926     0.070     2.086     2.259
    21   1 H        0.925     0.108     1.715     2.048
    22   1 H        0.924     0.079     1.995     2.209
    23   1 H        0.926     0.066     2.131     2.283
    24   1 H        0.925     0.074     2.044     2.236
    25   1 H        0.925     0.074     2.045     2.236
    26   1 H        0.925     0.058     2.217     2.328
    27   1 H        0.926     0.075     2.033     2.230
    28   1 H        0.926     0.064     2.158     2.297
    29   1 H        0.805     0.323     0.656     1.273
    30   1 H        0.925     0.087     1.910     2.161
    31   1 H        0.925     0.092     1.855     2.130
    32   1 H        0.925     0.114     1.661     2.015
    33   1 H        0.925     0.093     1.852     2.128
    34   1 H        0.925     0.099     1.791     2.093
    35   1 H        0.925     0.093     1.846     2.125

Wiberg/Mayer (AO) data.
largest (>0.10) Wiberg bond orders for each atom

     #   Z sym  total        # sym  WBO       # sym  WBO       # sym  WBO
 ---------------------------------------------------------------------------
     1   6 C    3.991 --     2 C    1.030    16 H    0.981    17 H    0.970
                            18 H    0.960
     2   6 C    3.981 --     3 C    1.923     1 C    1.030     4 C    0.999
     3   6 C    3.987 --     2 C    1.923    19 H    0.973    20 H    0.972
     4   6 C    3.926 --     2 C    0.999    22 H    0.967    21 H    0.955
                             5 N    0.907
     5   7 N    3.810 --    15 C    0.964    14 C    0.953     6 C    0.918
                             4 C    0.907
     6   6 C    3.917 --     7 C    1.412    12 C    1.347     5 N    0.918
                            10 C    0.101
     7   6 C    3.985 --     6 C    1.412     8 C    1.410    23 H    0.958
                            11 C    0.102
     8   6 C    3.987 --     7 C    1.410    10 C    1.386     9 C    1.035
     9   6 C    3.990 --     8 C    1.035    26 H    0.983    25 H    0.964
                            24 H    0.963
    10   6 C    3.986 --    11 C    1.468     8 C    1.386    27 H    0.965
                             6 C    0.101
    11   6 C    3.987 --    10 C    1.468    12 C    1.365    28 H    0.961
                             7 C    0.102
    12   6 C    3.942 --    11 C    1.365     6 C    1.347    13 O    1.069
    13   8 O    2.124 --    12 C    1.069    29 H    0.871
    14   6 C    3.927 --    30 H    0.977    31 H    0.973    32 H    0.965
                             5 N    0.953
    15   6 C    3.933 --    35 H    0.974    33 H    0.974    34 H    0.967
                             5 N    0.964
    16   1 H    0.995 --     1 C    0.981
    17   1 H    0.997 --     1 C    0.970
    18   1 H    0.995 --     1 C    0.960
    19   1 H    0.997 --     3 C    0.973
    20   1 H    0.994 --     3 C    0.972
    21   1 H    0.988 --     4 C    0.955
    22   1 H    0.994 --     4 C    0.967
    23   1 H    0.995 --     7 C    0.958
    24   1 H    0.993 --     9 C    0.963
    25   1 H    0.993 --     9 C    0.964
    26   1 H    0.996 --     9 C    0.983
    27   1 H    0.994 --    10 C    0.965
    28   1 H    0.995 --    11 C    0.961
    29   1 H    0.895 --    13 O    0.871
    30   1 H    0.992 --    14 C    0.977
    31   1 H    0.990 --    14 C    0.973
    32   1 H    0.987 --    14 C    0.965
    33   1 H    0.991 --    15 C    0.974
    34   1 H    0.990 --    15 C    0.967
    35   1 H    0.991 --    15 C    0.974
 ---------------------------------------------------------------------------

molecular dipole:
                 x           y           z       tot (Debye)
 q only:        0.247       5.396       2.634
   full:        0.400       5.570       2.682      15.746

           -------------------------------------------------
          | TOTAL ENERGY              -44.607122514193 Eh   |
          | GRADIENT NORM               0.000544915552 Eh/α |
          | HOMO-LUMO GAP               3.982954818879 eV   |
           -------------------------------------------------

 * finished run on 2024/12/20 at 07:12:21.579
