   * xtb version 6.7.1 (edcfbbe) compiled by 'conda@3ef47c1a292c' on 2024-11-25

   ID    Z sym.   atoms
    1    6 C      1, 2, 4-6, 8-16, 18-25
    2    7 N      3
    3    8 O      7, 17
    4    1 H      26-57

          program call               : xtb C1137.xyz --opt --namespace C1137 --charge +1
          :  Hamiltonian                  GFN2-xTB          :
 * total energy  :   -72.6732241 Eh     change       -0.2502702E-08 Eh
 * total energy  :   -72.9153117 Eh     change       -0.2420876E+00 Eh
 * total energy  :   -73.2633066 Eh     change       -0.3479950E+00 Eh
 * total energy  :   -73.5784326 Eh     change       -0.3151260E+00 Eh
 * total energy  :   -73.7323915 Eh     change       -0.1539589E+00 Eh
 * total energy  :   -73.8436005 Eh     change       -0.1112090E+00 Eh
 * total energy  :   -73.9072675 Eh     change       -0.6366702E-01 Eh
 * total energy  :   -73.9454343 Eh     change       -0.3816674E-01 Eh
 * total energy  :   -73.9707062 Eh     change       -0.2527195E-01 Eh
 * total energy  :   -73.9858087 Eh     change       -0.1510254E-01 Eh
 * total energy  :   -74.0085045 Eh     change       -0.1020464E-04 Eh
 * total energy  :   -74.0085134 Eh     change       -0.8912601E-05 Eh
 * total energy  :   -74.0085213 Eh     change       -0.7924137E-05 Eh
 * total energy  :   -74.0085286 Eh     change       -0.7263892E-05 Eh
 * total energy  :   -74.0085354 Eh     change       -0.6772681E-05 Eh
 * total energy  :   -74.0085416 Eh     change       -0.6276672E-05 Eh
 * total energy  :   -74.0085474 Eh     change       -0.5742222E-05 Eh
 * total energy  :   -74.0085525 Eh     change       -0.5169671E-05 Eh
 * total energy  :   -74.0085573 Eh     change       -0.4727931E-05 Eh
   *** GEOMETRY OPTIMIZATION CONVERGED AFTER 63 ITERATIONS ***

 final structure:
================
57
 xtb: 6.7.1 (edcfbbe)
C           -0.11565583436148       -1.50860774264219       -0.27608344627303
C            0.15856776341953       -1.39612197190797        1.21704508502824
N            0.71737830903737       -0.08983047214291        1.67577506222202
C           -0.14143538631794        1.05790801851779        1.21414570681130
C           -1.58026905846715        1.18051323466595        1.72721167405907
C           -1.74601090317913        2.06254368791897        2.98766514895579
O           -0.94614537041877        3.21835016715546        2.88962846559858
C            0.09972867518493        3.38946035584332        3.78621333802110
C            0.06030032646517        2.95554910394011        5.05585680054898
C            1.25595803991043        2.85581382756642        5.92663085981546
C            2.94910092783183        3.76844662334837        4.93918317446260
C            2.42109786441427        4.34080607673222        3.67230743144558
C            1.19832292851922        4.13115181168882        3.17498392284038
C            0.74617027794985       -0.06761551174572        3.17742821465445
C            1.77835608397180       -0.89964692925534        3.95376165147839
C            3.21289793348377       -0.33931220152856        4.18550120908855
O            3.43481607371356        0.07520046833762        5.51214183569443
C            3.29735018613898        1.38804187788917        5.92179800802669
C            3.82135587635544        1.72683578224362        7.11019970493467
C            3.65438457371122        2.99643634353849        7.78113591231630
C            2.90044683810648        4.04198238345750        7.42006172620138
C            2.08651817909146        4.13796239816053        6.17507612916690
C            2.46727841638094        2.31630758416952        5.11814243061521
C            2.06660469867905        0.17580998092210        1.06886731663825
C            3.02668085092759       -0.99712407121123        0.93252493884841
H           -0.96959740692199       -0.91027600275890       -0.58029376860500
H           -0.35623497071562       -2.54648163810466       -0.49335088668870
H            0.74157824501949       -1.23715546679637       -0.88427851241223
H           -0.77584070456908       -1.56720175759974        1.75382376573494
H            0.86050900761089       -2.17203997368782        1.52104208433311
H            0.37640877385076        1.98505892263096        1.47560974693679
H           -0.17247044489361        0.99731856047227        0.12714332595236
H           -2.14021171488782        1.66308647140267        0.92515781570930
H           -2.04819402855639        0.21463340038239        1.91064200436429
H           -2.79306967263203        2.37359596586731        3.05393626514771
H           -1.50788142564435        1.49251118434256        3.88896167686323
H           -0.85308319843779        2.54693132766917        5.46190157801472
H            1.02364534541691        2.30017163630759        6.83408419506570
H            4.01718570054301        3.94365248517511        5.05252925094351
H            3.10092096074469        4.96652625188187        3.11231719730601
H            0.92716007935256        4.57965349594449        2.22848075692005
H            0.83049586033588        0.97821689413425        3.47323070112682
H           -0.23897189441300       -0.41350639267420        3.49548574774559
H            1.36035977218726       -1.02158748985996        4.95656246153716
H            1.84286102456678       -1.90282826088248        3.53438088020074
H            3.92399354910250       -1.16222251474634        4.05758731044217
H            3.48379177867435        0.44711244705809        3.47532641352584
H            4.39555092673744        0.97704844317225        7.63240940715740
H            4.20238776810224        3.07652769530290        8.70948551143197
H            2.88482667039292        4.91336339746694        8.05746873246103
H            1.54247115614009        5.07740146410141        6.10794484289560
H            2.20532084273362        1.87496826951275        4.16289032273029
H            1.90151762587506        0.58045969223622        0.06856827328566
H            2.52672073170671        0.96698761323243        1.66260717012945
H            2.68733899343589       -1.72194040202480        0.19893700601631
H            3.97258540512105       -0.59612517559847        0.57514680829130
H            3.22285697345111       -1.50478136924616        1.86803961425034

          :  Hamiltonian                  GFN2-xTB          :
         :: total energy             -74.008557274389 Eh    ::
         :: gradient norm              0.000170902752 Eh/a0 ::
         :: HOMO-LUMO gap              2.386608578252 eV    ::
         :: SCC energy               -75.047560724912 Eh    ::
         :: -> dispersion             -0.065125040093 Eh    ::
         :: repulsion energy           1.039003450523 Eh    ::

    * Orbital Energies and Occupations

         #    Occupation            Energy/Eh            Energy/eV
      -------------------------------------------------------------
         1        2.0000           -0.8534767             -23.2243
       ...           ...                  ...                  ...
        56        2.0000           -0.5664593             -15.4141
        57        2.0000           -0.5620177             -15.2933
        58        2.0000           -0.5587420             -15.2041
        59        2.0000           -0.5413654             -14.7313
        60        2.0000           -0.5383667             -14.6497
        61        2.0000           -0.5235189             -14.2457
        62        2.0000           -0.5188373             -14.1183
        63        2.0000           -0.5122116             -13.9380
        64        2.0000           -0.5102777             -13.8854
        65        2.0000           -0.5045078             -13.7284
        66        2.0000           -0.4976985             -13.5431
        67        2.0000           -0.4782262             -13.0132
        68        2.0000           -0.4389481             -11.9444 (HOMO)
        69                         -0.3512419              -9.5578 (LUMO)
        70                         -0.3264577              -8.8834
        71                         -0.2575316              -7.0078
        72                         -0.2435338              -6.6269
        73                         -0.2182699              -5.9394
        74                         -0.1800222              -4.8987
        75                         -0.1704663              -4.6386
        76                         -0.1589668              -4.3257
        77                         -0.1224825              -3.3329
        78                         -0.1038398              -2.8256
        79                         -0.0835953              -2.2747
       ...                                ...                  ...
       132                          0.5958720              16.2145
      -------------------------------------------------------------
                  HL-Gap            0.0877063 Eh            2.3866 eV

     #   Z          covCN         q      C6AA      α(0)
     1   6 C        3.751    -0.128    23.026     6.843
     2   6 C        3.750    -0.029    21.152     6.559
     3   7 N        3.615     0.097    19.555     6.568
     4   6 C        3.765    -0.037    21.278     6.575
     5   6 C        3.797    -0.082    22.065     6.689
     6   6 C        3.687     0.067    19.639     6.344
     7   8 O        1.704    -0.297    18.938     5.876
     8   6 C        2.834     0.121    25.326     8.247
     9   6 C        2.894    -0.081    30.027     8.984
    10   6 C        4.049    -0.014    20.745     6.470
    11   6 C        4.048    -0.018    20.813     6.480
    12   6 C        2.894    -0.035    28.868     8.809
    13   6 C        2.894    -0.062    29.539     8.911
    14   6 C        3.751    -0.037    21.289     6.580
    15   6 C        3.795    -0.086    22.138     6.700
    16   6 C        3.678     0.073    19.572     6.337
    17   8 O        1.705    -0.284    18.722     5.842
    18   6 C        2.828     0.122    25.309     8.244
    19   6 C        2.896    -0.067    29.677     8.932
    20   6 C        2.893    -0.036    28.895     8.813
    21   6 C        2.894    -0.046    29.130     8.849
    22   6 C        4.078    -0.011    20.694     6.461
    23   6 C        4.088    -0.025    20.932     6.498
    24   6 C        3.758    -0.026    21.096     6.548
    25   6 C        3.751    -0.132    23.104     6.855
    26   1 H        0.925     0.067     2.121     2.278
    27   1 H        0.925     0.082     1.959     2.189
    28   1 H        0.925     0.065     2.137     2.286
    29   1 H        0.924     0.079     1.989     2.205
    30   1 H        0.925     0.088     1.896     2.153
    31   1 H        0.924     0.097     1.814     2.106
    32   1 H        0.925     0.085     1.925     2.170
    33   1 H        0.924     0.084     1.941     2.179
    34   1 H        0.925     0.057     2.231     2.336
    35   1 H        0.924     0.065     2.144     2.290
    36   1 H        0.924     0.038     2.482     2.464
    37   1 H        0.926     0.039     2.468     2.457
    38   1 H        0.925     0.044     2.402     2.423
    39   1 H        0.925     0.045     2.378     2.411
    40   1 H        0.926     0.050     2.320     2.382
    41   1 H        0.925     0.053     2.285     2.364
    42   1 H        0.925     0.090     1.883     2.146
    43   1 H        0.924     0.078     2.003     2.213
    44   1 H        0.924     0.091     1.868     2.137
    45   1 H        0.925     0.057     2.231     2.336
    46   1 H        0.924     0.066     2.130     2.282
    47   1 H        0.924     0.037     2.484     2.465
    48   1 H        0.926     0.057     2.236     2.338
    49   1 H        0.926     0.050     2.315     2.379
    50   1 H        0.926     0.047     2.352     2.398
    51   1 H        0.925     0.045     2.387     2.416
    52   1 H        0.925     0.017     2.777     2.606
    53   1 H        0.924     0.083     1.949     2.183
    54   1 H        0.924     0.075     2.027     2.226
    55   1 H        0.925     0.071     2.072     2.251
    56   1 H        0.925     0.082     1.959     2.189
    57   1 H        0.925     0.068     2.113     2.273

Wiberg/Mayer (AO) data.
largest (>0.10) Wiberg bond orders for each atom

     #   Z sym  total        # sym  WBO       # sym  WBO       # sym  WBO
 ---------------------------------------------------------------------------
     1   6 C    3.983 --     2 C    1.021    26 H    0.981    28 H    0.979
                            27 H    0.974
     2   6 C    3.937 --     1 C    1.021    29 H    0.964    30 H    0.962
                             3 N    0.934
     3   7 N    3.795 --     2 C    0.934    14 C    0.929    24 C    0.927
                             4 C    0.925
     4   6 C    3.930 --     5 C    1.009    32 H    0.963    31 H    0.958
                             3 N    0.925
     5   6 C    3.987 --     4 C    1.009     6 C    0.987    34 H    0.968
                            33 H    0.968
     6   6 C    3.952 --     5 C    0.987     7 O    0.987    35 H    0.966
                            36 H    0.961
     7   8 O    2.183 --     8 C    1.004     6 C    0.987
     8   6 C    3.920 --     9 C    1.711    13 C    1.086     7 O    1.004
     9   6 C    3.983 --     8 C    1.711    10 C    1.039    37 H    0.958
                            12 C    0.101
    10   6 C    3.984 --     9 C    1.039    38 H    0.972    22 C    0.938
                            23 C    0.926
    11   6 C    3.985 --    12 C    1.038    39 H    0.971    23 C    0.946
                            22 C    0.925
    12   6 C    3.988 --    13 C    1.820    11 C    1.038    40 H    0.966
                             9 C    0.101
    13   6 C    3.982 --    12 C    1.820     8 C    1.086    41 H    0.961
    14   6 C    3.932 --    15 C    1.008    43 H    0.964    42 H    0.940
                             3 N    0.929
    15   6 C    3.982 --    14 C    1.008    16 C    0.982    45 H    0.970
                            44 H    0.962
    16   6 C    3.955 --    17 O    0.990    15 C    0.982    46 H    0.965
                            47 H    0.960
    17   8 O    2.213 --    18 C    1.019    16 C    0.990
    18   6 C    3.920 --    19 C    1.700    17 O    1.019    23 C    1.018
                            21 C    0.107
    19   6 C    3.981 --    18 C    1.700    20 C    1.137    48 H    0.964
    20   6 C    3.986 --    21 C    1.806    19 C    1.137    49 H    0.966
    21   6 C    3.985 --    20 C    1.806    22 C    1.027    50 H    0.966
                            18 C    0.107
    22   6 C    3.981 --    21 C    1.027    51 H    0.972    10 C    0.938
                            11 C    0.925
    23   6 C    3.986 --    18 C    1.018    11 C    0.946    52 H    0.945
                            10 C    0.926
    24   6 C    3.937 --    25 C    1.022    53 H    0.966    54 H    0.964
                             3 N    0.927
    25   6 C    3.981 --    24 C    1.022    55 H    0.979    57 H    0.975
                            56 H    0.972
    26   1 H    0.995 --     1 C    0.981
    27   1 H    0.993 --     1 C    0.974
    28   1 H    0.996 --     1 C    0.979
    29   1 H    0.994 --     2 C    0.964
    30   1 H    0.992 --     2 C    0.962
    31   1 H    0.991 --     4 C    0.958
    32   1 H    0.992 --     4 C    0.963
    33   1 H    0.993 --     5 C    0.968
    34   1 H    0.996 --     5 C    0.968
    35   1 H    0.995 --     6 C    0.966
    36   1 H    0.999 --     6 C    0.961
    37   1 H    0.998 --     9 C    0.958
    38   1 H    0.998 --    10 C    0.972
    39   1 H    0.998 --    11 C    0.971
    40   1 H    0.997 --    12 C    0.966
    41   1 H    0.997 --    13 C    0.961
    42   1 H    0.992 --    14 C    0.940
    43   1 H    0.994 --    14 C    0.964
    44   1 H    0.991 --    15 C    0.962
    45   1 H    0.996 --    15 C    0.970
    46   1 H    0.995 --    16 C    0.965
    47   1 H    0.998 --    16 C    0.960
    48   1 H    0.996 --    19 C    0.964
    49   1 H    0.996 --    20 C    0.966
    50   1 H    0.997 --    21 C    0.966
    51   1 H    0.998 --    22 C    0.972
    52   1 H    1.000 --    23 C    0.945
    53   1 H    0.993 --    24 C    0.966
    54   1 H    0.994 --    24 C    0.964
    55   1 H    0.995 --    25 C    0.979
    56   1 H    0.993 --    25 C    0.972
    57   1 H    0.995 --    25 C    0.975
 ---------------------------------------------------------------------------

molecular dipole:
                 x           y           z       tot (Debye)
 q only:        1.689      -0.131       3.435
   full:        1.489      -0.131       3.359       9.345

           -------------------------------------------------
          | TOTAL ENERGY              -74.008557274389 Eh   |
          | GRADIENT NORM               0.000170902752 Eh/α |
          | HOMO-LUMO GAP               2.386608578252 eV   |
           -------------------------------------------------

 * finished run on 2024/12/20 at 07:12:34.833
