   * xtb version 6.7.1 (edcfbbe) compiled by 'conda@3ef47c1a292c' on 2024-11-25

   ID    Z sym.   atoms
    1    6 C      1-5, 7-10
    2    7 N      6
    3    1 H      11-22

          program call               : xtb C1133.xyz --opt --namespace C1133 --charge +1
          :  Hamiltonian                  GFN2-xTB          :
 * total energy  :   -27.8945716 Eh     change       -0.1756995E-09 Eh
 * total energy  :   -27.8965119 Eh     change       -0.1940282E-02 Eh
 * total energy  :   -27.8967861 Eh     change       -0.2742569E-03 Eh
 * total energy  :   -27.8968523 Eh     change       -0.6620320E-04 Eh
 * total energy  :   -27.8968801 Eh     change       -0.2781450E-04 Eh
 * total energy  :   -27.8968928 Eh     change       -0.1269756E-04 Eh
 * total energy  :   -27.8969000 Eh     change       -0.7182654E-05 Eh
 * total energy  :   -27.8969070 Eh     change       -0.7031506E-05 Eh
 * total energy  :   -27.8969125 Eh     change       -0.5475584E-05 Eh
 * total energy  :   -27.8969161 Eh     change       -0.3632008E-05 Eh
   *** GEOMETRY OPTIMIZATION CONVERGED AFTER 10 ITERATIONS ***

 final structure:
================
22
 xtb: 6.7.1 (edcfbbe)
C           -2.42506943697657        0.64183790308040       -0.47973626463361
C           -2.50044964198382       -0.64488397568033        0.32638757114443
C           -1.27382705256712       -1.50402384190551        0.03076404639536
C           -0.00132163665849       -0.70726141529151        0.01030483706858
C            0.00489077596640        0.67972634659257       -0.02283526887909
N           -1.27023806897429        1.43003819582246        0.02406973966687
C            1.18430735534613        1.40769409877269       -0.08183217389611
C            2.39523513705731        0.74227840128651       -0.10659182985006
C            2.41444197005471       -0.64424718159162       -0.07390705612723
C            1.23172329541020       -1.35551768576843       -0.01960125426915
H           -2.25521724702315        0.42083668902924       -1.53542689368198
H           -3.33533553519004        1.23481786799584       -0.37966818811652
H           -2.55263027117238       -0.40925115503975        1.39158713080748
H           -3.40757418253768       -1.18800910215633        0.06641671703605
H           -1.19003649571362       -2.30407509447511        0.76691436851710
H           -1.38783560464981       -1.98481831026383       -0.94505901078226
H           -1.15629330376529        2.30017750431748       -0.51001400470548
H           -1.45780012214534        1.69298233088345        1.00123039514423
H            1.15805213285706        2.48733506821808       -0.10790857895718
H            3.31490427812595        1.30185878258818       -0.15206040677200
H            3.35559959141885       -1.16948562265109       -0.09191400708922
H            1.25033406312101       -2.43382980376342        0.00109013197973

          :  Hamiltonian                  GFN2-xTB          :
         :: total energy             -27.896916144121 Eh    ::
         :: gradient norm              0.000714907064 Eh/a0 ::
         :: HOMO-LUMO gap              4.534157272039 eV    ::
         :: SCC energy               -28.370958352319 Eh    ::
         :: -> dispersion             -0.017281856637 Eh    ::
         :: repulsion energy           0.474042208197 Eh    ::

    * Orbital Energies and Occupations

         #    Occupation            Energy/Eh            Energy/eV
      -------------------------------------------------------------
         1        2.0000           -0.8748739             -23.8065
       ...           ...                  ...                  ...
        14        2.0000           -0.6677430             -18.1702
        15        2.0000           -0.6595031             -17.9460
        16        2.0000           -0.6509564             -17.7134
        17        2.0000           -0.6399014             -17.4126
        18        2.0000           -0.6300577             -17.1447
        19        2.0000           -0.6283282             -17.0977
        20        2.0000           -0.6142402             -16.7143
        21        2.0000           -0.6053915             -16.4735
        22        2.0000           -0.5993706             -16.3097
        23        2.0000           -0.5739607             -15.6183
        24        2.0000           -0.5701043             -15.5133
        25        2.0000           -0.5585765             -15.1996
        26        2.0000           -0.5468034             -14.8793 (HOMO)
        27                         -0.3801762             -10.3451 (LUMO)
        28                         -0.3739628             -10.1760
        29                         -0.2481823              -6.7534
        30                         -0.2349771              -6.3941
        31                         -0.1430154              -3.8916
        32                         -0.1271863              -3.4609
        33                         -0.0904569              -2.4615
        34                         -0.0713890              -1.9426
        35                         -0.0568686              -1.5475
        36                         -0.0354326              -0.9642
        37                         -0.0031820              -0.0866
       ...                                ...                  ...
        52                          0.5054816              13.7549
      -------------------------------------------------------------
                  HL-Gap            0.1666272 Eh            4.5342 eV

     #   Z          covCN         q      C6AA      α(0)
     1   6 C        3.740    -0.025    21.097     6.554
     2   6 C        3.806    -0.074    21.909     6.663
     3   6 C        3.811    -0.079    21.995     6.676
     4   6 C        2.966     0.017    27.624     8.621
     5   6 C        2.915     0.029    27.355     8.577
     6   7 N        3.536    -0.035    21.907     6.952
     7   6 C        2.919    -0.045    29.110     8.848
     8   6 C        2.921    -0.018    28.462     8.749
     9   6 C        2.918    -0.016    28.402     8.739
    10   6 C        2.929    -0.029    28.726     8.790
    11   1 H        0.924     0.102     1.770     2.080
    12   1 H        0.924     0.090     1.883     2.146
    13   1 H        0.924     0.064     2.155     2.296
    14   1 H        0.925     0.086     1.914     2.164
    15   1 H        0.924     0.084     1.937     2.176
    16   1 H        0.924     0.080     1.981     2.201
    17   1 H        0.859     0.240     0.922     1.505
    18   1 H        0.859     0.243     0.912     1.496
    19   1 H        0.926     0.055     2.258     2.350
    20   1 H        0.926     0.077     2.010     2.217
    21   1 H        0.926     0.079     1.988     2.205
    22   1 H        0.926     0.074     2.040     2.233

Wiberg/Mayer (AO) data.
largest (>0.10) Wiberg bond orders for each atom

     #   Z sym  total        # sym  WBO       # sym  WBO       # sym  WBO
 ---------------------------------------------------------------------------
     1   6 C    3.915 --     2 C    1.010    12 H    0.969    11 H    0.967
                             6 N    0.935
     2   6 C    3.985 --     1 C    1.010     3 C    1.007    13 H    0.971
                            14 H    0.966
     3   6 C    3.991 --     4 C    1.017     2 C    1.007    15 H    0.959
                            16 H    0.952
     4   6 C    3.987 --     5 C    1.400    10 C    1.388     3 C    1.017
                             8 C    0.105
     5   6 C    3.895 --     7 C    1.403     4 C    1.400     6 N    0.906
                             9 C    0.101
     6   7 N    3.727 --     1 C    0.935    17 H    0.913    18 H    0.909
                             5 C    0.906
     7   6 C    3.989 --     8 C    1.450     5 C    1.403    19 H    0.964
                            10 C    0.112
     8   6 C    3.987 --     7 C    1.450     9 C    1.421    20 H    0.966
                             4 C    0.105
     9   6 C    3.986 --    10 C    1.463     8 C    1.421    21 H    0.966
                             5 C    0.101
    10   6 C    3.988 --     9 C    1.463     4 C    1.388    22 H    0.965
                             7 C    0.112
    11   1 H    0.990 --     1 C    0.967
    12   1 H    0.991 --     1 C    0.969
    13   1 H    0.996 --     2 C    0.971
    14   1 H    0.992 --     2 C    0.966
    15   1 H    0.993 --     3 C    0.959
    16   1 H    0.994 --     3 C    0.952
    17   1 H    0.942 --     6 N    0.913
    18   1 H    0.941 --     6 N    0.909
    19   1 H    0.997 --     7 C    0.964
    20   1 H    0.993 --     8 C    0.966
    21   1 H    0.993 --     9 C    0.966
    22   1 H    0.994 --    10 C    0.965
 ---------------------------------------------------------------------------

molecular dipole:
                 x           y           z       tot (Debye)
 q only:       -1.758       1.287      -0.037
   full:       -1.859       1.646       0.011       6.311

           -------------------------------------------------
          | TOTAL ENERGY              -27.896916144121 Eh   |
          | GRADIENT NORM               0.000714907064 Eh/α |
          | HOMO-LUMO GAP               4.534157272039 eV   |
           -------------------------------------------------

 * finished run on 2024/12/20 at 07:12:26.380
