   * xtb version 6.7.1 (edcfbbe) compiled by 'conda@3ef47c1a292c' on 2024-11-25

   ID    Z sym.   atoms
    1    6 C      1-4, 6, 8-11, 13-17
    2    8 O      5, 7
    3    7 N      12
    4    1 H      18-39

          program call               : xtb C1139.xyz --opt --namespace C1139 --charge +1
          :  Hamiltonian                  GFN2-xTB          :
 * total energy  :   -51.8650557 Eh     change       -0.2360835E-08 Eh
 * total energy  :   -51.8696631 Eh     change       -0.4607405E-02 Eh
 * total energy  :   -51.8705204 Eh     change       -0.8573343E-03 Eh
 * total energy  :   -51.8706927 Eh     change       -0.1722217E-03 Eh
 * total energy  :   -51.8708150 Eh     change       -0.1222963E-03 Eh
 * total energy  :   -51.8708733 Eh     change       -0.5832178E-04 Eh
 * total energy  :   -51.8709394 Eh     change       -0.6612475E-04 Eh
 * total energy  :   -51.8710005 Eh     change       -0.6111733E-04 Eh
 * total energy  :   -51.8710373 Eh     change       -0.3680505E-04 Eh
 * total energy  :   -51.8710633 Eh     change       -0.2593529E-04 Eh
 * total energy  :   -51.8711592 Eh     change       -0.1358010E-04 Eh
 * total energy  :   -51.8711687 Eh     change       -0.9511244E-05 Eh
 * total energy  :   -51.8711803 Eh     change       -0.1159395E-04 Eh
 * total energy  :   -51.8711904 Eh     change       -0.1002048E-04 Eh
 * total energy  :   -51.8712023 Eh     change       -0.1197400E-04 Eh
 * total energy  :   -51.8712161 Eh     change       -0.1379660E-04 Eh
 * total energy  :   -51.8712280 Eh     change       -0.1182812E-04 Eh
 * total energy  :   -51.8712365 Eh     change       -0.8538819E-05 Eh
 * total energy  :   -51.8712400 Eh     change       -0.3503854E-05 Eh
   *** GEOMETRY OPTIMIZATION CONVERGED AFTER 22 ITERATIONS ***

 final structure:
================
39
 xtb: 6.7.1 (edcfbbe)
C            1.68289328814285       -0.66134193204047        0.41655305620460
C            0.72392437910444       -0.67028901455104        1.60079024666353
C            0.76195032490285        0.62569513323968        2.41425534082867
C            0.15009434012614        1.81047978841798        1.68357979332153
O           -1.25868175561927        1.55903032986220        1.50664445552791
C           -1.93398164823217        2.44321981237474        0.80153432623325
O           -1.49902673345285        3.44183707225842        0.29947936516218
C           -3.39116877740419        2.05692050345045        0.67700290162090
C           -4.26701869526009        2.92342246496972        0.02306600683391
C           -5.59866759457969        2.55724585994781       -0.09705712266554
C           -6.01667239981674        1.34975851779539        0.42843801381341
N           -5.16140081171358        0.52830512929019        1.04860793026261
C           -3.87465972158677        0.86441107877705        1.18254894649317
C           -5.63826349354331       -0.69909117273654        1.65912608747428
C           -5.92144753341681       -0.48276600369843        3.15384020563529
C           -7.08660074419828        0.46652192836353        3.43212262383705
C           -8.44144106304290       -0.11078399463405        3.03875906781519
H            1.41128467100160        0.09743450226395       -0.31310230718777
H            1.66917758923787       -1.62658400972387       -0.08279628403332
H            2.69811913408349       -0.46705799264708        0.75242902319708
H           -0.29508743825887       -0.84491183144940        1.24734749389404
H            0.99059304323422       -1.49583245301375        2.26235610827818
H            0.22347529150584        0.48389414935478        3.35311909662392
H            1.79556515448050        0.87682529888160        2.65255911869836
H            0.26452931139974        2.73471079811472        2.25828349047416
H            0.60161807915185        1.96348278876947        0.69979795677438
H           -3.88522293319330        3.85247934101382       -0.37489578345563
H           -6.30934411813500        3.19755085045403       -0.59493048489791
H           -7.04369267553073        1.02599238612944        0.34525999223153
H           -3.21881652230556        0.17508886675667        1.69474481867584
H           -6.54643425121335       -1.02478066735946        1.15172847985541
H           -4.87493879979851       -1.47026958401532        1.54134198789255
H           -6.14580488757448       -1.45755300503791        3.58753488263834
H           -5.01733827742488       -0.10382538591158        3.63479955270648
H           -7.09811862831017        0.67009287942214        4.50343085294690
H           -6.92545818013464        1.42436788186339        2.92862336553976
H           -8.61690935427553       -1.04999989840889        3.55648082448646
H           -9.23251272758259        0.57941257842663        3.31722188018334
H           -8.52051484076648       -0.29217299497084        1.96904468941487

          :  Hamiltonian                  GFN2-xTB          :
         :: total energy             -51.871239998116 Eh    ::
         :: gradient norm              0.000378129902 Eh/a0 ::
         :: HOMO-LUMO gap              1.591268103331 eV    ::
         :: SCC energy               -52.605567481868 Eh    ::
         :: -> dispersion             -0.030987017840 Eh    ::
         :: repulsion energy           0.734327483752 Eh    ::

    * Orbital Energies and Occupations

         #    Occupation            Energy/Eh            Energy/eV
      -------------------------------------------------------------
         1        2.0000           -0.8826699             -24.0187
       ...           ...                  ...                  ...
        35        2.0000           -0.6037659             -16.4293
        36        2.0000           -0.5989181             -16.2974
        37        2.0000           -0.5946211             -16.1805
        38        2.0000           -0.5751859             -15.6516
        39        2.0000           -0.5731227             -15.5955
        40        2.0000           -0.5655014             -15.3881
        41        2.0000           -0.5632265             -15.3262
        42        2.0000           -0.5578534             -15.1800
        43        2.0000           -0.5573804             -15.1671
        44        2.0000           -0.5529093             -15.0454
        45        2.0000           -0.5321648             -14.4809
        46        2.0000           -0.5265485             -14.3281
        47        2.0000           -0.5201008             -14.1527 (HOMO)
        48                         -0.4616228             -12.5614 (LUMO)
        49                         -0.4430120             -12.0550
        50                         -0.3579545              -9.7404
        51                         -0.2831457              -7.7048
        52                         -0.1755442              -4.7768
        53                         -0.1340711              -3.6483
        54                         -0.0843289              -2.2947
        55                         -0.0697545              -1.8981
        56                         -0.0480022              -1.3062
        57                         -0.0357867              -0.9738
        58                         -0.0306994              -0.8354
       ...                                ...                  ...
        90                          0.5705685              15.5260
      -------------------------------------------------------------
                  HL-Gap            0.0584780 Eh            1.5913 eV

     #   Z          covCN         q      C6AA      α(0)
     1   6 C        3.752    -0.111    22.679     6.791
     2   6 C        3.800    -0.055    21.568     6.612
     3   6 C        3.801    -0.070    21.838     6.653
     4   6 C        3.703     0.072    19.521     6.317
     5   8 O        1.703    -0.245    18.065     5.739
     6   6 C        2.723     0.356    20.951     7.493
     7   8 O        0.857    -0.366    21.005     6.145
     8   6 C        2.967     0.005    27.902     8.664
     9   6 C        2.927     0.016    27.662     8.625
    10   6 C        2.914    -0.010    28.263     8.718
    11   6 C        2.891     0.034    27.240     8.557
    12   7 N        2.749     0.116    19.255     6.517
    13   6 C        2.895     0.033    27.272     8.562
    14   6 C        3.760    -0.038    21.297     6.579
    15   6 C        3.802    -0.071    21.851     6.655
    16   6 C        3.800    -0.062    21.692     6.631
    17   6 C        3.752    -0.115    22.760     6.803
    18   1 H        0.925     0.036     2.508     2.477
    19   1 H        0.925     0.047     2.361     2.403
    20   1 H        0.925     0.048     2.347     2.396
    21   1 H        0.924     0.029     2.596     2.519
    22   1 H        0.924     0.048     2.350     2.397
    23   1 H        0.924     0.054     2.271     2.357
    24   1 H        0.925     0.066     2.128     2.281
    25   1 H        0.924     0.067     2.121     2.278
    26   1 H        0.924     0.075     2.036     2.231
    27   1 H        0.926     0.127     1.554     1.950
    28   1 H        0.926     0.113     1.670     2.021
    29   1 H        0.926     0.115     1.650     2.009
    30   1 H        0.926     0.121     1.606     1.981
    31   1 H        0.925     0.098     1.803     2.100
    32   1 H        0.924     0.092     1.860     2.133
    33   1 H        0.924     0.084     1.942     2.179
    34   1 H        0.924     0.054     2.267     2.355
    35   1 H        0.924     0.064     2.148     2.292
    36   1 H        0.924     0.028     2.617     2.530
    37   1 H        0.925     0.055     2.256     2.349
    38   1 H        0.925     0.058     2.225     2.333
    39   1 H        0.925     0.031     2.571     2.507

Wiberg/Mayer (AO) data.
largest (>0.10) Wiberg bond orders for each atom

     #   Z sym  total        # sym  WBO       # sym  WBO       # sym  WBO
 ---------------------------------------------------------------------------
     1   6 C    3.995 --     2 C    1.021    20 H    0.986    19 H    0.986
                            18 H    0.985
     2   6 C    3.996 --     1 C    1.021     3 C    1.006    21 H    0.978
                            22 H    0.977
     3   6 C    3.988 --     4 C    1.008     2 C    1.006    23 H    0.974
                            24 H    0.969
     4   6 C    3.896 --     3 C    1.008    25 H    0.964    26 H    0.961
                             5 O    0.906
     5   8 O    2.348 --     6 C    1.182     4 C    0.906     7 O    0.200
     6   6 C    3.941 --     7 O    1.749     5 O    1.182     8 C    0.949
     7   8 O    2.078 --     6 C    1.749     5 O    0.200
     8   6 C    3.983 --    13 C    1.433     9 C    1.382     6 C    0.949
     9   6 C    3.960 --    10 C    1.431     8 C    1.382    27 H    0.953
    10   6 C    3.979 --    11 C    1.453     9 C    1.431    28 H    0.957
    11   6 C    3.954 --    10 C    1.453    12 N    1.323    29 H    0.951
    12   7 N    3.769 --    13 C    1.331    11 C    1.323    14 C    0.963
    13   6 C    3.956 --     8 C    1.433    12 N    1.331    30 H    0.949
    14   6 C    3.930 --    15 C    0.972    12 N    0.963    32 H    0.961
                            31 H    0.960
    15   6 C    3.981 --    16 C    1.009    34 H    0.974    14 C    0.972
                            33 H    0.963
    16   6 C    3.993 --    17 C    1.021    15 C    1.009    36 H    0.973
                            35 H    0.970
    17   6 C    3.992 --    16 C    1.021    37 H    0.985    38 H    0.984
                            39 H    0.983
    18   1 H    0.999 --     1 C    0.985
    19   1 H    0.998 --     1 C    0.986
    20   1 H    0.998 --     1 C    0.986
    21   1 H    0.999 --     2 C    0.978
    22   1 H    0.998 --     2 C    0.977
    23   1 H    0.997 --     3 C    0.974
    24   1 H    0.995 --     3 C    0.969
    25   1 H    0.995 --     4 C    0.964
    26   1 H    0.994 --     4 C    0.961
    27   1 H    0.984 --     9 C    0.953
    28   1 H    0.986 --    10 C    0.957
    29   1 H    0.986 --    11 C    0.951
    30   1 H    0.985 --    13 C    0.949
    31   1 H    0.990 --    14 C    0.960
    32   1 H    0.991 --    14 C    0.961
    33   1 H    0.991 --    15 C    0.963
    34   1 H    0.997 --    15 C    0.974
    35   1 H    0.995 --    16 C    0.970
    36   1 H    0.999 --    16 C    0.973
    37   1 H    0.997 --    17 C    0.985
    38   1 H    0.997 --    17 C    0.984
    39   1 H    0.999 --    17 C    0.983
 ---------------------------------------------------------------------------

molecular dipole:
                 x           y           z       tot (Debye)
 q only:       -8.963       1.019       2.616
   full:       -9.017       1.014       2.572      23.973

           -------------------------------------------------
          | TOTAL ENERGY              -51.871239998116 Eh   |
          | GRADIENT NORM               0.000378129902 Eh/α |
          | HOMO-LUMO GAP               1.591268103331 eV   |
           -------------------------------------------------

 * finished run on 2024/12/20 at 07:12:36.449
