   * xtb version 6.7.1 (edcfbbe) compiled by 'conda@3ef47c1a292c' on 2024-11-25

   ID    Z sym.   atoms
    1   17 Cl     1
    2    6 C      2, 3, 5-8
    3    7 N      4
    4    1 H      9-23

          program call               : xtb C1138.xyz --opt --namespace C1138 --charge +1
          :  Hamiltonian                  GFN2-xTB          :
 * total energy  :   -27.5590449 Eh     change       -0.3889511E-10 Eh
 * total energy  :   -27.5619052 Eh     change       -0.2860242E-02 Eh
 * total energy  :   -27.5625416 Eh     change       -0.6364040E-03 Eh
 * total energy  :   -27.5626218 Eh     change       -0.8026596E-04 Eh
 * total energy  :   -27.5626816 Eh     change       -0.5974980E-04 Eh
 * total energy  :   -27.5627131 Eh     change       -0.3146331E-04 Eh
 * total energy  :   -27.5627471 Eh     change       -0.3408015E-04 Eh
 * total energy  :   -27.5627922 Eh     change       -0.4508009E-04 Eh
 * total energy  :   -27.5628208 Eh     change       -0.2857823E-04 Eh
 * total energy  :   -27.5628475 Eh     change       -0.2666150E-04 Eh
 * total energy  :   -27.5629301 Eh     change       -0.1493326E-04 Eh
 * total energy  :   -27.5629468 Eh     change       -0.1673065E-04 Eh
 * total energy  :   -27.5629667 Eh     change       -0.1982513E-04 Eh
 * total energy  :   -27.5629859 Eh     change       -0.1924700E-04 Eh
 * total energy  :   -27.5630011 Eh     change       -0.1523256E-04 Eh
 * total energy  :   -27.5630130 Eh     change       -0.1181272E-04 Eh
 * total energy  :   -27.5630225 Eh     change       -0.9560114E-05 Eh
 * total energy  :   -27.5630297 Eh     change       -0.7149568E-05 Eh
 * total energy  :   -27.5630318 Eh     change       -0.2112165E-05 Eh
   *** GEOMETRY OPTIMIZATION CONVERGED AFTER 22 ITERATIONS ***

 final structure:
================
23
 xtb: 6.7.1 (edcfbbe)
Cl           0.93155546772417       -0.38116710486067        0.45343272819129
C            2.64856027620233        0.14454957360570        0.25894923096683
C            3.57057619266152       -1.04616986796915        0.49391247031552
N            3.10017595408687       -2.23054769682593       -0.26222060404570
C            3.45886477214231       -2.19169147676522       -1.70947424000845
C            4.93999969913042       -2.38811198109364       -1.98467451015347
C            3.46814985593486       -3.51647187126781        0.39348916578587
C            2.53503253401760       -3.83416109177159        1.54865300172689
H            2.74566379821389        0.56415795925637       -0.74131955363176
H            2.84150956134519        0.92444521831611        0.99396080432717
H            4.59028275762485       -0.79544573238209        0.19955723084192
H            3.56402761209768       -1.29707313764123        1.55515402317888
H            2.06439513059975       -2.13664940082488       -0.19962730503746
H            2.88867940863218       -2.97807625512714       -2.20799905093156
H            3.12969866182718       -1.23241537203126       -2.10986902025604
H            5.29285396434399       -3.35513446892883       -1.63981972417977
H            5.09597257774762       -2.34529244270545       -3.05907157257972
H            5.55118901401463       -1.60978472172730       -1.53746472127934
H            3.39556325672730       -4.30892623076816       -0.35288498812557
H            4.50280308799346       -3.45283037197362        0.73311983434418
H            1.50757681103408       -3.92535097182710        1.20416116287534
H            2.82354511651320       -4.78393732021060        1.98987470043365
H            2.57394448938460       -3.08271523447632        2.33217093724134

          :  Hamiltonian                  GFN2-xTB          :
         :: total energy             -27.563031774696 Eh    ::
         :: gradient norm              0.000218425197 Eh/a0 ::
         :: HOMO-LUMO gap              6.778561591780 eV    ::
         :: SCC energy               -27.887607004368 Eh    ::
         :: -> dispersion             -0.015423637312 Eh    ::
         :: repulsion energy           0.324575229672 Eh    ::

    * Orbital Energies and Occupations

         #    Occupation            Energy/Eh            Energy/eV
      -------------------------------------------------------------
         1        2.0000           -1.2011453             -32.6848
       ...           ...                  ...                  ...
        13        2.0000           -0.6776021             -18.4385
        14        2.0000           -0.6695880             -18.2204
        15        2.0000           -0.6634320             -18.0529
        16        2.0000           -0.6540567             -17.7978
        17        2.0000           -0.6399601             -17.4142
        18        2.0000           -0.6369915             -17.3334
        19        2.0000           -0.6276667             -17.0797
        20        2.0000           -0.6203984             -16.8819
        21        2.0000           -0.6133562             -16.6903
        22        2.0000           -0.6054395             -16.4748
        23        2.0000           -0.6022506             -16.3881
        24        2.0000           -0.5718631             -15.5612
        25        2.0000           -0.5652613             -15.3815 (HOMO)
        26                         -0.3161538              -8.6030 (LUMO)
        27                         -0.2384787              -6.4893
        28                         -0.1601676              -4.3584
        29                         -0.1484165              -4.0386
        30                         -0.1443361              -3.9276
        31                         -0.1342642              -3.6535
        32                         -0.1311531              -3.5689
        33                         -0.1278648              -3.4794
        34                         -0.0926603              -2.5214
        35                         -0.0755052              -2.0546
        36                         -0.0552194              -1.5026
       ...                                ...                  ...
        52                          0.1447118               3.9378
      -------------------------------------------------------------
                  HL-Gap            0.2491076 Eh            6.7786 eV

     #   Z          covCN         q      C6AA      α(0)
     1  17 Cl       0.919    -0.162   104.220    15.618
     2   6 C        3.712    -0.005    20.804     6.518
     3   6 C        3.770    -0.046    21.430     6.597
     4   7 N        3.577     0.015    20.988     6.804
     5   6 C        3.739    -0.032    21.224     6.574
     6   6 C        3.751    -0.133    23.110     6.856
     7   6 C        3.740    -0.031    21.214     6.572
     8   6 C        3.752    -0.137    23.194     6.868
     9   1 H        0.925     0.100     1.787     2.091
    10   1 H        0.925     0.113     1.672     2.022
    11   1 H        0.924     0.114     1.666     2.019
    12   1 H        0.924     0.116     1.648     2.008
    13   1 H        0.861     0.259     0.850     1.444
    14   1 H        0.924     0.091     1.866     2.136
    15   1 H        0.924     0.092     1.863     2.134
    16   1 H        0.925     0.071     2.073     2.252
    17   1 H        0.925     0.090     1.881     2.144
    18   1 H        0.925     0.066     2.134     2.284
    19   1 H        0.924     0.097     1.815     2.107
    20   1 H        0.924     0.094     1.839     2.121
    21   1 H        0.925     0.069     2.092     2.262
    22   1 H        0.925     0.092     1.861     2.133
    23   1 H        0.925     0.069     2.102     2.267

Wiberg/Mayer (AO) data.
largest (>0.10) Wiberg bond orders for each atom

     #   Z sym  total        # sym  WBO       # sym  WBO       # sym  WBO
 ---------------------------------------------------------------------------
     1  17 Cl   1.065 --     2 C    0.957
     2   6 C    3.934 --     3 C    1.018     9 H    0.970    10 H    0.968
                             1 Cl   0.957
     3   6 C    3.939 --     2 C    1.018    12 H    0.958    11 H    0.954
                             4 N    0.953
     4   7 N    3.752 --     3 C    0.953     5 C    0.931     7 C    0.930
                            13 H    0.857
     5   6 C    3.927 --     6 C    1.025    14 H    0.967    15 H    0.965
                             4 N    0.931
     6   6 C    3.981 --     5 C    1.025    16 H    0.981    18 H    0.978
                            17 H    0.972
     7   6 C    3.925 --     8 C    1.024    20 H    0.968    19 H    0.965
                             4 N    0.930
     8   6 C    3.981 --     7 C    1.024    21 H    0.981    23 H    0.979
                            22 H    0.972
     9   1 H    0.990 --     2 C    0.970
    10   1 H    0.987 --     2 C    0.968
    11   1 H    0.987 --     3 C    0.954
    12   1 H    0.987 --     3 C    0.958
    13   1 H    0.933 --     4 N    0.857
    14   1 H    0.992 --     5 C    0.967
    15   1 H    0.991 --     5 C    0.965
    16   1 H    0.995 --     6 C    0.981
    17   1 H    0.992 --     6 C    0.972
    18   1 H    0.996 --     6 C    0.978
    19   1 H    0.990 --     7 C    0.965
    20   1 H    0.991 --     7 C    0.968
    21   1 H    0.995 --     8 C    0.981
    22   1 H    0.991 --     8 C    0.972
    23   1 H    0.995 --     8 C    0.979
 ---------------------------------------------------------------------------

molecular dipole:
                 x           y           z       tot (Debye)
 q only:        6.806      -4.046      -0.464
   full:        6.203      -3.678      -0.354      18.352

           -------------------------------------------------
          | TOTAL ENERGY              -27.563031774696 Eh   |
          | GRADIENT NORM               0.000218425197 Eh/α |
          | HOMO-LUMO GAP               6.778561591780 eV   |
           -------------------------------------------------

 * finished run on 2024/12/20 at 07:12:35.349
