   * xtb version 6.7.1 (edcfbbe) compiled by 'conda@3ef47c1a292c' on 2024-11-25

   ID    Z sym.   atoms
    1    6 C      1-4, 6-8
    2    7 N      5
    3    1 H      9-26

          program call               : xtb C1148.xyz --opt --namespace C1148 --charge +1
          :  Hamiltonian                  GFN2-xTB          :
 * total energy  :   -26.6820074 Eh     change       -0.3653255E-10 Eh
 * total energy  :   -26.6873260 Eh     change       -0.5318579E-02 Eh
 * total energy  :   -26.6885296 Eh     change       -0.1203650E-02 Eh
 * total energy  :   -26.6885762 Eh     change       -0.4655099E-04 Eh
 * total energy  :   -26.6886126 Eh     change       -0.3639757E-04 Eh
 * total energy  :   -26.6886311 Eh     change       -0.1852935E-04 Eh
 * total energy  :   -26.6886654 Eh     change       -0.3435168E-04 Eh
 * total energy  :   -26.6886737 Eh     change       -0.8256082E-05 Eh
 * total energy  :   -26.6886791 Eh     change       -0.5355052E-05 Eh
 * total energy  :   -26.6886839 Eh     change       -0.4844867E-05 Eh
   *** GEOMETRY OPTIMIZATION CONVERGED AFTER 10 ITERATIONS ***

 final structure:
================
26
 xtb: 6.7.1 (edcfbbe)
C            1.46032695081494       -0.07504066637782        0.18699110917942
C            0.94747853445891        1.32069954005708        0.52104702385478
C            1.04701525832858        2.31069720373859       -0.64570744812433
C            0.42095113087426        1.90927989445812       -1.98453983218095
N           -1.06187347283820        2.05314703926831       -2.15920450592208
C           -1.50930574637956        3.41471234797492       -1.81650365611132
C           -1.36795680499171        1.80004056684605       -3.58203403772746
C           -1.80576341663404        1.07682533589587       -1.34509167230204
H            0.80250002651690       -0.60446336416227       -0.49871161287762
H            1.52667546756205       -0.66657838204043        1.09535570562151
H            2.45347544402523       -0.02232380135244       -0.25193622271620
H           -0.06726429202275        1.25605878705065        0.91577129554754
H            1.56297753231000        1.72835397434167        1.32440288585940
H            0.68585730507238        3.28729925934952       -0.32392547713041
H            2.11078259909170        2.43353587700493       -0.86314145590400
H            0.87719368398249        2.53208612476231       -2.75728472351847
H            0.67650851077735        0.87018928927997       -2.19749548029059
H           -0.91922999797359        4.15258334607595       -2.35758268821118
H           -2.55697746777047        3.53928066979191       -2.08591195974363
H           -1.40829346832770        3.59392727775455       -0.74859088955325
H           -1.02024158148340        0.81049701880393       -3.87393550607917
H           -2.44229078955006        1.85336949722605       -3.75038270737207
H           -0.88216102524012        2.54092089818696       -4.21472468432558
H           -1.47959775033277        0.06510166587344       -1.57679902091558
H           -1.64603374315489        1.26375058654057       -0.28720536466262
H           -2.87171288711552        1.15474001365152       -1.55265907439412

          :  Hamiltonian                  GFN2-xTB          :
         :: total energy             -26.688683900029 Eh    ::
         :: gradient norm              0.000537497511 Eh/a0 ::
         :: HOMO-LUMO gap              8.799496185204 eV    ::
         :: SCC energy               -27.071759618759 Eh    ::
         :: -> dispersion             -0.016645513178 Eh    ::
         :: repulsion energy           0.383075718730 Eh    ::

    * Orbital Energies and Occupations

         #    Occupation            Energy/Eh            Energy/eV
      -------------------------------------------------------------
         1        2.0000           -0.8711218             -23.7044
       ...           ...                  ...                  ...
        13        2.0000           -0.6670564             -18.1515
        14        2.0000           -0.6584856             -17.9183
        15        2.0000           -0.6574859             -17.8911
        16        2.0000           -0.6505727             -17.7030
        17        2.0000           -0.6476442             -17.6233
        18        2.0000           -0.6464472             -17.5907
        19        2.0000           -0.6420069             -17.4699
        20        2.0000           -0.6261352             -17.0380
        21        2.0000           -0.6108117             -16.6210
        22        2.0000           -0.5975997             -16.2615
        23        2.0000           -0.5740527             -15.6208
        24        2.0000           -0.5634183             -15.3314
        25        2.0000           -0.5559242             -15.1275 (HOMO)
        26                         -0.2325487              -6.3280 (LUMO)
        27                         -0.1641794              -4.4675
        28                         -0.1542456              -4.1972
        29                         -0.1461262              -3.9763
        30                         -0.0818360              -2.2269
        31                         -0.0662317              -1.8023
        32                         -0.0370692              -1.0087
        33                         -0.0265298              -0.7219
        34                         -0.0114501              -0.3116
        35                          0.0053808               0.1464
        36                          0.0120388               0.3276
       ...                                ...                  ...
        50                          0.1894352               5.1548
      -------------------------------------------------------------
                  HL-Gap            0.3233755 Eh            8.7995 eV

     #   Z          covCN         q      C6AA      α(0)
     1   6 C        3.751    -0.115    22.769     6.805
     2   6 C        3.799    -0.064    21.729     6.637
     3   6 C        3.799    -0.076    21.955     6.672
     4   6 C        3.759    -0.044    21.417     6.598
     5   7 N        3.622     0.145    18.782     6.437
     6   6 C        3.721    -0.097    22.464     6.769
     7   6 C        3.732    -0.099    22.482     6.768
     8   6 C        3.722    -0.096    22.453     6.767
     9   1 H        0.925     0.030     2.582     2.513
    10   1 H        0.925     0.059     2.207     2.323
    11   1 H        0.925     0.050     2.317     2.381
    12   1 H        0.924     0.035     2.520     2.483
    13   1 H        0.924     0.061     2.185     2.312
    14   1 H        0.925     0.056     2.243     2.342
    15   1 H        0.924     0.078     2.004     2.214
    16   1 H        0.924     0.082     1.957     2.188
    17   1 H        0.924     0.094     1.843     2.123
    18   1 H        0.925     0.099     1.794     2.095
    19   1 H        0.925     0.099     1.795     2.095
    20   1 H        0.925     0.103     1.756     2.073
    21   1 H        0.925     0.099     1.790     2.092
    22   1 H        0.925     0.100     1.781     2.087
    23   1 H        0.925     0.099     1.794     2.095
    24   1 H        0.925     0.098     1.804     2.101
    25   1 H        0.925     0.107     1.725     2.054
    26   1 H        0.925     0.096     1.820     2.110

Wiberg/Mayer (AO) data.
largest (>0.10) Wiberg bond orders for each atom

     #   Z sym  total        # sym  WBO       # sym  WBO       # sym  WBO
 ---------------------------------------------------------------------------
     1   6 C    3.993 --     2 C    1.021    11 H    0.986     9 H    0.984
                            10 H    0.984
     2   6 C    3.993 --     1 C    1.021     3 C    1.005    13 H    0.973
                            12 H    0.969
     3   6 C    3.983 --     4 C    1.006     2 C    1.005    14 H    0.969
                            15 H    0.964
     4   6 C    3.925 --     3 C    1.006    16 H    0.968    17 H    0.962
                             5 N    0.918
     5   7 N    3.816 --     6 C    0.959     8 C    0.958     7 C    0.958
                             4 C    0.918
     6   6 C    3.928 --    18 H    0.975    19 H    0.974    20 H    0.971
                             5 N    0.959
     7   6 C    3.928 --    21 H    0.975    23 H    0.975    22 H    0.974
                             5 N    0.958
     8   6 C    3.925 --    26 H    0.975    24 H    0.974    25 H    0.964
                             5 N    0.958
     9   1 H    0.999 --     1 C    0.984
    10   1 H    0.996 --     1 C    0.984
    11   1 H    0.997 --     1 C    0.986
    12   1 H    0.999 --     2 C    0.969
    13   1 H    0.996 --     2 C    0.973
    14   1 H    0.997 --     3 C    0.969
    15   1 H    0.994 --     3 C    0.964
    16   1 H    0.993 --     4 C    0.968
    17   1 H    0.991 --     4 C    0.962
    18   1 H    0.990 --     6 C    0.975
    19   1 H    0.990 --     6 C    0.974
    20   1 H    0.989 --     6 C    0.971
    21   1 H    0.990 --     7 C    0.975
    22   1 H    0.990 --     7 C    0.974
    23   1 H    0.990 --     7 C    0.975
    24   1 H    0.990 --     8 C    0.974
    25   1 H    0.989 --     8 C    0.964
    26   1 H    0.991 --     8 C    0.975
 ---------------------------------------------------------------------------

molecular dipole:
                 x           y           z       tot (Debye)
 q only:       -1.658       3.792      -3.723
   full:       -1.695       3.813      -3.804      14.351

           -------------------------------------------------
          | TOTAL ENERGY              -26.688683900029 Eh   |
          | GRADIENT NORM               0.000537497511 Eh/α |
          | HOMO-LUMO GAP               8.799496185204 eV   |
           -------------------------------------------------

 * finished run on 2024/12/20 at 07:12:45.890
