   * xtb version 6.7.1 (edcfbbe) compiled by 'conda@3ef47c1a292c' on 2024-11-25

   ID    Z sym.   atoms
    1    6 C      1, 2, 4, 6, 8, 9, 11-13
    2    8 O      3, 5
    3    7 N      7, 10
    4    1 H      14-28

          program call               : xtb C1141.xyz --opt --namespace C1141 --charge +1
          :  Hamiltonian                  GFN2-xTB          :
 * total energy  :   -40.5332436 Eh     change       -0.1195474E-08 Eh
 * total energy  :   -40.5400798 Eh     change       -0.6836188E-02 Eh
 * total energy  :   -40.5416101 Eh     change       -0.1530352E-02 Eh
 * total energy  :   -40.5419942 Eh     change       -0.3841367E-03 Eh
 * total energy  :   -40.5421729 Eh     change       -0.1787014E-03 Eh
 * total energy  :   -40.5422572 Eh     change       -0.8430826E-04 Eh
 * total energy  :   -40.5423736 Eh     change       -0.1163403E-03 Eh
 * total energy  :   -40.5424910 Eh     change       -0.1174564E-03 Eh
 * total energy  :   -40.5426288 Eh     change       -0.1377156E-03 Eh
 * total energy  :   -40.5427533 Eh     change       -0.1244990E-03 Eh
 * total energy  :   -40.5464166 Eh     change       -0.1754645E-04 Eh
 * total energy  :   -40.5464282 Eh     change       -0.1161496E-04 Eh
 * total energy  :   -40.5464574 Eh     change       -0.2924067E-04 Eh
 * total energy  :   -40.5464735 Eh     change       -0.1611570E-04 Eh
 * total energy  :   -40.5464940 Eh     change       -0.2045496E-04 Eh
 * total energy  :   -40.5465089 Eh     change       -0.1490069E-04 Eh
 * total energy  :   -40.5465208 Eh     change       -0.1188529E-04 Eh
 * total energy  :   -40.5465298 Eh     change       -0.8994411E-05 Eh
 * total energy  :   -40.5465341 Eh     change       -0.4322966E-05 Eh
   *** GEOMETRY OPTIMIZATION CONVERGED AFTER 56 ITERATIONS ***

 final structure:
================
28
 xtb: 6.7.1 (edcfbbe)
C            1.53997274025319        2.08390826308830        5.81376035502866
C            1.46157909519452        0.60819670371634        6.16445575969776
O            2.28225185521452       -0.18505588947381        5.28006190154604
C            1.77787389992561       -0.52801347857519        4.12286180169896
O            0.69263787667032       -0.26195826825641        3.68501191035064
C            2.79401164230158       -1.39818056897800        3.33222859889043
N            2.33010501070239       -1.49095045088094        1.96737975432779
C            1.13255756382991       -2.01363632640129        1.58234721142557
C            1.02048375476885       -1.81707777533097        0.23972289400097
N            2.14745853874259       -1.17337046185235       -0.17325720618717
C            2.92276865597913       -0.98174673327540        0.88838980394498
C            2.42439902194023       -0.76876546357814       -1.52482272859998
C            2.91243039505144       -2.77454319826658        3.98570001571567
H            2.57280783430113        2.42376549644775        5.82500271177275
H            0.97617715854070        2.65314726997782        6.54621878800950
H            1.11301136574599        2.26514823428958        4.82992479560643
H            1.86621938885760        0.41325983587942        7.15793621007266
H            0.43057786727871        0.25030279016706        6.09856073490848
H            3.76583101432661       -0.89677332264965        3.34082225552751
H            0.44493786458657       -2.46407355744477        2.26681067476061
H            0.22940759692870       -2.08276964522805       -0.43142434130759
H            3.88078245707502       -0.49863847215601        0.87854040239529
H            1.67838377329129       -0.04616639331590       -1.85804734595184
H            3.41055331389552       -0.31396655928691       -1.58303839529229
H            2.38877661315092       -1.63260803700729       -2.18915751727049
H            3.59721231414265       -3.40427269650055        3.42261995757334
H            3.29960709610251       -2.65684242198700        4.99363451899282
H            1.94603429121046       -3.26821887312465        4.04372647838074

          :  Hamiltonian                  GFN2-xTB          :
         :: total energy             -40.546534101381 Eh    ::
         :: gradient norm              0.000599171398 Eh/a0 ::
         :: HOMO-LUMO gap              3.870628467091 eV    ::
         :: SCC energy               -41.072792061864 Eh    ::
         :: -> dispersion             -0.020959757163 Eh    ::
         :: repulsion energy           0.526257960484 Eh    ::

    * Orbital Energies and Occupations

         #    Occupation            Energy/Eh            Energy/eV
      -------------------------------------------------------------
         1        2.0000           -0.8938539             -24.3230
       ...           ...                  ...                  ...
        24        2.0000           -0.6458812             -17.5753
        25        2.0000           -0.6384954             -17.3743
        26        2.0000           -0.6326220             -17.2145
        27        2.0000           -0.6225287             -16.9399
        28        2.0000           -0.6151371             -16.7387
        29        2.0000           -0.6072647             -16.5245
        30        2.0000           -0.6053301             -16.4719
        31        2.0000           -0.6016918             -16.3729
        32        2.0000           -0.5850052             -15.9188
        33        2.0000           -0.5715828             -15.5536
        34        2.0000           -0.5642506             -15.3540
        35        2.0000           -0.5540298             -15.0759
        36        2.0000           -0.5480212             -14.9124 (HOMO)
        37                         -0.4057782             -11.0418 (LUMO)
        38                         -0.3664429              -9.9714
        39                         -0.3637887              -9.8992
        40                         -0.1890143              -5.1433
        41                         -0.1383520              -3.7647
        42                         -0.1250225              -3.4020
        43                         -0.0612904              -1.6678
        44                         -0.0572037              -1.5566
        45                         -0.0312350              -0.8499
        46                         -0.0297254              -0.8089
        47                         -0.0151432              -0.4121
       ...                                ...                  ...
        67                          0.5386148              14.6565
      -------------------------------------------------------------
                  HL-Gap            0.1422430 Eh            3.8706 eV

     #   Z          covCN         q      C6AA      α(0)
     1   6 C        3.750    -0.121    22.886     6.823
     2   6 C        3.699     0.069    19.578     6.328
     3   8 O        1.702    -0.235    17.895     5.711
     4   6 C        2.718     0.359    20.903     7.484
     5   8 O        0.856    -0.393    21.542     6.223
     6   6 C        3.790    -0.003    20.637     6.470
     7   7 N        2.875     0.067    20.072     6.654
     8   6 C        3.069     0.007    27.787     8.643
     9   6 C        3.075    -0.009    28.156     8.700
    10   7 N        2.866     0.083    19.802     6.609
    11   6 C        3.096     0.043    26.917     8.503
    12   6 C        3.692    -0.088    22.363     6.766
    13   6 C        3.755    -0.124    22.937     6.829
    14   1 H        0.925     0.063     2.159     2.298
    15   1 H        0.925     0.073     2.050     2.239
    16   1 H        0.925     0.062     2.174     2.306
    17   1 H        0.924     0.082     1.960     2.190
    18   1 H        0.924     0.072     2.064     2.247
    19   1 H        0.924     0.091     1.868     2.137
    20   1 H        0.927     0.120     1.610     1.984
    21   1 H        0.926     0.113     1.672     2.022
    22   1 H        0.926     0.111     1.690     2.033
    23   1 H        0.924     0.110     1.699     2.038
    24   1 H        0.925     0.100     1.789     2.092
    25   1 H        0.924     0.108     1.711     2.045
    26   1 H        0.925     0.074     2.041     2.234
    27   1 H        0.925     0.092     1.862     2.134
    28   1 H        0.925     0.072     2.063     2.246

Wiberg/Mayer (AO) data.
largest (>0.10) Wiberg bond orders for each atom

     #   Z sym  total        # sym  WBO       # sym  WBO       # sym  WBO
 ---------------------------------------------------------------------------
     1   6 C    3.986 --     2 C    1.015    14 H    0.984    16 H    0.984
                            15 H    0.978
     2   6 C    3.895 --     1 C    1.015    18 H    0.969    17 H    0.969
                             3 O    0.902
     3   8 O    2.361 --     4 C    1.211     2 C    0.902     5 O    0.193
     4   6 C    3.935 --     5 O    1.748     3 O    1.211     6 C    0.899
     5   8 O    2.066 --     4 C    1.748     3 O    0.193
     6   6 C    3.947 --    13 C    0.984     7 N    0.971    19 H    0.953
                             4 C    0.899
     7   7 N    3.714 --    11 C    1.349     8 C    1.225     6 C    0.971
     8   6 C    3.947 --     9 C    1.590     7 N    1.225    20 H    0.958
     9   6 C    3.946 --     8 C    1.590    10 N    1.225    21 H    0.961
    10   7 N    3.724 --    11 C    1.367     9 C    1.225    12 C    0.990
    11   6 C    3.945 --    10 N    1.367     7 N    1.349    22 H    0.954
    12   6 C    3.932 --    10 N    0.990    24 H    0.976    25 H    0.963
                            23 H    0.961
    13   6 C    3.975 --     6 C    0.984    28 H    0.982    26 H    0.979
                            27 H    0.975
    14   1 H    0.996 --     1 C    0.984
    15   1 H    0.994 --     1 C    0.978
    16   1 H    0.996 --     1 C    0.984
    17   1 H    0.993 --     2 C    0.969
    18   1 H    0.995 --     2 C    0.969
    19   1 H    0.991 --     6 C    0.953
    20   1 H    0.985 --     8 C    0.958
    21   1 H    0.987 --     9 C    0.961
    22   1 H    0.988 --    11 C    0.954
    23   1 H    0.987 --    12 C    0.961
    24   1 H    0.990 --    12 C    0.976
    25   1 H    0.988 --    12 C    0.963
    26   1 H    0.994 --    13 C    0.979
    27   1 H    0.991 --    13 C    0.975
    28   1 H    0.995 --    13 C    0.982
 ---------------------------------------------------------------------------

molecular dipole:
                 x           y           z       tot (Debye)
 q only:        4.640      -2.172       2.862
   full:        4.807      -2.167       2.859      15.244

           -------------------------------------------------
          | TOTAL ENERGY              -40.546534101381 Eh   |
          | GRADIENT NORM               0.000599171398 Eh/α |
          | HOMO-LUMO GAP               3.870628467091 eV   |
           -------------------------------------------------

 * finished run on 2024/12/20 at 07:12:38.073
