   * xtb version 6.7.1 (edcfbbe) compiled by 'conda@3ef47c1a292c' on 2024-11-25

   ID    Z sym.   atoms
    1    6 C      1, 2, 4, 6, 9, 11, 12, 14, 15
    2    8 O      3, 5, 8
    3    7 N      7, 10, 13
    4    1 H      16-29

          program call               : xtb C1144.xyz --opt --namespace C1144 --charge +1
          :  Hamiltonian                  GFN2-xTB          :
 * total energy  :   -46.9459347 Eh     change       -0.3470575E-09 Eh
 * total energy  :   -46.9538855 Eh     change       -0.7950859E-02 Eh
 * total energy  :   -46.9559461 Eh     change       -0.2060564E-02 Eh
 * total energy  :   -46.9565741 Eh     change       -0.6280135E-03 Eh
 * total energy  :   -46.9571884 Eh     change       -0.6142804E-03 Eh
 * total energy  :   -46.9574636 Eh     change       -0.2751592E-03 Eh
 * total energy  :   -46.9578132 Eh     change       -0.3496059E-03 Eh
 * total energy  :   -46.9581625 Eh     change       -0.3493446E-03 Eh
 * total energy  :   -46.9585089 Eh     change       -0.3463909E-03 Eh
 * total energy  :   -46.9587467 Eh     change       -0.2378231E-03 Eh
 * total energy  :   -46.9608772 Eh     change       -0.1486292E-04 Eh
 * total energy  :   -46.9608678 Eh     change        0.9340751E-05 Eh
 * total energy  :   -46.9608880 Eh     change       -0.2019949E-04 Eh
 * total energy  :   -46.9608943 Eh     change       -0.6309990E-05 Eh
 * total energy  :   -46.9609036 Eh     change       -0.9242169E-05 Eh
 * total energy  :   -46.9609128 Eh     change       -0.9217069E-05 Eh
 * total energy  :   -46.9609209 Eh     change       -0.8089822E-05 Eh
 * total energy  :   -46.9609262 Eh     change       -0.5293725E-05 Eh
 * total energy  :   -46.9609295 Eh     change       -0.3307370E-05 Eh
   *** GEOMETRY OPTIMIZATION CONVERGED AFTER 67 ITERATIONS ***

 final structure:
================
29
 xtb: 6.7.1 (edcfbbe)
C            0.80799750230603        0.38123363873846        0.21128418254064
C            0.73823764883434       -1.13150769786846        0.07740909430080
O            1.17001516926335       -1.76677427657979        1.28896480773402
C            2.43373365615973       -2.07971928495833        1.41671727203270
O            3.30282021343742       -1.92720950700684        0.58081509894725
C            2.75089472327067       -2.70556024154414        2.74773270334524
N            1.94935754517135       -3.14509223310816        3.63019281369041
O            0.61601777692567       -3.05060656103346        3.44046188115603
C            4.22373571701402       -2.84754115268246        3.06771872722340
N            4.88238800174240       -3.69169159369052        2.09745593820208
C            4.78197270899087       -5.04900908964380        2.03288156559650
C            5.46044782467711       -5.44970597339959        0.92346113833014
N            5.95613020955809       -4.32885084564793        0.32519266621464
C            5.59394626753131       -3.27927340596521        1.05189277212439
C            6.74178164761270       -4.30542383627221       -0.87874776555470
H            0.21411771680373        0.71082581084732        1.05940275332357
H            0.41830409704307        0.84029761079349       -0.69173738674835
H            1.83687249048058        0.70419149775443        0.35213602585976
H           -0.29042376270393       -1.46641919474090       -0.06288502114783
H            1.36666638264162       -1.47858650547836       -0.74823236638219
H            0.20619757482260       -3.42461263942597        4.23987005331067
H            4.69478861744465       -1.86182646442657        3.04451005162563
H            4.32297662517681       -3.28298330176055        4.06415345405621
H            4.24830954577116       -5.62038935729280        2.76465325162613
H            5.61975010634703       -6.43211120142301        0.52810065094533
H            5.81341301384768       -2.25520775410467        0.82022104809242
H            6.86018726727047       -3.28016741470342       -1.22155613134133
H            7.72665627752170       -4.73824442325327       -0.69599286876199
H            6.24668743503370       -4.88638460212597       -1.65661641034585

          :  Hamiltonian                  GFN2-xTB          :
         :: total energy             -46.960929492061 Eh    ::
         :: gradient norm              0.000700731158 Eh/a0 ::
         :: HOMO-LUMO gap              2.711076674011 eV    ::
         :: SCC energy               -47.515806110183 Eh    ::
         :: -> dispersion             -0.023356325869 Eh    ::
         :: repulsion energy           0.554876618122 Eh    ::

    * Orbital Energies and Occupations

         #    Occupation            Energy/Eh            Energy/eV
      -------------------------------------------------------------
         1        2.0000           -0.8897791             -24.2121
       ...           ...                  ...                  ...
        29        2.0000           -0.6360072             -17.3066
        30        2.0000           -0.6310543             -17.1719
        31        2.0000           -0.6268176             -17.0566
        32        2.0000           -0.6104387             -16.6109
        33        2.0000           -0.5981704             -16.2770
        34        2.0000           -0.5961407             -16.2218
        35        2.0000           -0.5837453             -15.8845
        36        2.0000           -0.5642641             -15.3544
        37        2.0000           -0.5614801             -15.2787
        38        2.0000           -0.5579640             -15.1830
        39        2.0000           -0.5503553             -14.9759
        40        2.0000           -0.5414616             -14.7339
        41        2.0000           -0.5156499             -14.0315 (HOMO)
        42                         -0.4160197             -11.3205 (LUMO)
        43                         -0.3962922             -10.7837
        44                         -0.3659523              -9.9581
        45                         -0.3077345              -8.3739
        46                         -0.1771467              -4.8204
        47                         -0.1465588              -3.9881
        48                         -0.1206350              -3.2826
        49                         -0.1155551              -3.1444
        50                         -0.0493444              -1.3427
        51                         -0.0337756              -0.9191
        52                         -0.0137919              -0.3753
       ...                                ...                  ...
        74                          0.5414510              14.7336
      -------------------------------------------------------------
                  HL-Gap            0.0996302 Eh            2.7111 eV

     #   Z          covCN         q      C6AA      α(0)
     1   6 C        3.751    -0.118    22.825     6.813
     2   6 C        3.699     0.072    19.532     6.321
     3   8 O        1.704    -0.215    17.568     5.659
     4   6 C        2.717     0.351    21.032     7.507
     5   8 O        0.857    -0.451    22.727     6.392
     6   6 C        2.875     0.044    27.020     8.521
     7   7 N        1.841    -0.057    23.076     7.119
     8   8 O        1.728    -0.278    18.607     5.824
     9   6 C        3.754    -0.030    21.166     6.560
    10   7 N        2.875     0.075    19.933     6.631
    11   6 C        3.068    -0.008    28.141     8.698
    12   6 C        3.073    -0.010    28.181     8.704
    13   7 N        2.870     0.084    19.781     6.606
    14   6 C        3.094     0.058    26.587     8.451
    15   6 C        3.693    -0.088    22.368     6.767
    16   1 H        0.925     0.066     2.127     2.280
    17   1 H        0.925     0.068     2.109     2.271
    18   1 H        0.925     0.058     2.221     2.331
    19   1 H        0.924     0.077     2.011     2.218
    20   1 H        0.924     0.065     2.141     2.288
    21   1 H        0.804     0.343     0.604     1.221
    22   1 H        0.924     0.106     1.729     2.056
    23   1 H        0.924     0.114     1.666     2.018
    24   1 H        0.926     0.110     1.695     2.036
    25   1 H        0.926     0.111     1.688     2.032
    26   1 H        0.926     0.133     1.512     1.923
    27   1 H        0.925     0.104     1.750     2.069
    28   1 H        0.924     0.106     1.731     2.058
    29   1 H        0.925     0.109     1.709     2.044

Wiberg/Mayer (AO) data.
largest (>0.10) Wiberg bond orders for each atom

     #   Z sym  total        # sym  WBO       # sym  WBO       # sym  WBO
 ---------------------------------------------------------------------------
     1   6 C    3.987 --     2 C    1.010    18 H    0.985    16 H    0.984
                            17 H    0.979
     2   6 C    3.906 --     1 C    1.010    20 H    0.969    19 H    0.968
                             3 O    0.916
     3   8 O    2.393 --     4 C    1.215     2 C    0.916     5 O    0.194
     4   6 C    3.929 --     5 O    1.663     3 O    1.215     6 C    0.960
     5   8 O    1.996 --     4 C    1.663     3 O    0.194
     6   6 C    3.975 --     7 N    1.779     9 C    0.982     4 C    0.960
                             8 O    0.136
     7   7 N    3.038 --     6 C    1.779     8 O    1.117
     8   8 O    2.188 --     7 N    1.117    21 H    0.870     6 C    0.136
     9   6 C    3.946 --     6 C    0.982    10 N    0.972    23 H    0.956
                            22 H    0.953
    10   7 N    3.716 --    14 C    1.357    11 C    1.221     9 C    0.972
    11   6 C    3.948 --    12 C    1.600    10 N    1.221    24 H    0.961
    12   6 C    3.947 --    11 C    1.600    13 N    1.219    25 H    0.961
    13   7 N    3.723 --    14 C    1.375    12 C    1.219    15 C    0.990
    14   6 C    3.942 --    13 N    1.375    10 N    1.357    26 H    0.948
    15   6 C    3.932 --    13 N    0.990    27 H    0.975    29 H    0.965
                            28 H    0.961
    16   1 H    0.996 --     1 C    0.984
    17   1 H    0.995 --     1 C    0.979
    18   1 H    0.997 --     1 C    0.985
    19   1 H    0.994 --     2 C    0.968
    20   1 H    0.996 --     2 C    0.969
    21   1 H    0.882 --     8 O    0.870
    22   1 H    0.988 --     9 C    0.953
    23   1 H    0.986 --     9 C    0.956
    24   1 H    0.988 --    11 C    0.961
    25   1 H    0.987 --    12 C    0.961
    26   1 H    0.982 --    14 C    0.948
    27   1 H    0.989 --    15 C    0.975
    28   1 H    0.988 --    15 C    0.961
    29   1 H    0.988 --    15 C    0.965
 ---------------------------------------------------------------------------

molecular dipole:
                 x           y           z       tot (Debye)
 q only:        8.777      -7.165       2.692
   full:        8.693      -7.082       2.641      29.279

           -------------------------------------------------
          | TOTAL ENERGY              -46.960929492061 Eh   |
          | GRADIENT NORM               0.000700731158 Eh/α |
          | HOMO-LUMO GAP               2.711076674011 eV   |
           -------------------------------------------------

 * finished run on 2024/12/20 at 07:12:42.690
