   * xtb version 6.7.1 (edcfbbe) compiled by 'conda@3ef47c1a292c' on 2024-11-25

   ID    Z sym.   atoms
    1    6 C      1-4, 6-9
    2    7 N      5
    3    1 H      10-29

          program call               : xtb C1140.xyz --opt --namespace C1140 --charge +1
          :  Hamiltonian                  GFN2-xTB          :
 * total energy  :   -29.8473592 Eh     change       -0.3147704E-10 Eh
 * total energy  :   -29.8529904 Eh     change       -0.5631197E-02 Eh
 * total energy  :   -29.8542754 Eh     change       -0.1285003E-02 Eh
 * total energy  :   -29.8543222 Eh     change       -0.4680979E-04 Eh
 * total energy  :   -29.8543471 Eh     change       -0.2493597E-04 Eh
 * total energy  :   -29.8543646 Eh     change       -0.1750265E-04 Eh
 * total energy  :   -29.8543857 Eh     change       -0.2104107E-04 Eh
 * total energy  :   -29.8543926 Eh     change       -0.6904298E-05 Eh
 * total energy  :   -29.8543970 Eh     change       -0.4480619E-05 Eh
   *** GEOMETRY OPTIMIZATION CONVERGED AFTER 9 ITERATIONS ***

 final structure:
================
29
 xtb: 6.7.1 (edcfbbe)
C            1.41517078391749       -0.00143336137016        0.36355686461209
C            0.88386143495983        1.42678785808241        0.38667408774369
C            0.98601634729237        2.14514970240526       -0.96414669022097
C            0.35717161165229        1.46773397434372       -2.18581025653048
N           -1.12187653535745        1.58984519426837       -2.39692561339224
C           -1.59574686304532        3.00737581176993       -2.35522831049041
C           -0.93611071840884        3.95178138587749       -3.34718483077165
C           -1.43237532553126        0.99448415511872       -3.71237692454924
C           -1.86899476405860        0.83186523707862       -1.37641770961610
H            0.77152437499830       -0.67286054149620       -0.20046438253261
H            1.47536797009926       -0.38516437405959        1.37768596232543
H            2.41305905632265       -0.03161246177771       -0.06652401516597
H           -0.13464965604271        1.43354575686825        0.77620597687126
H            1.48584130390022        2.00458584587691        1.08980764373154
H            0.62592901225807        3.16800567450116       -0.85539590074703
H            2.05044672297844        2.21637060493249       -1.20117635375751
H            0.82921918637714        1.88474735654731       -3.07656928889207
H            0.59139516482161        0.40255601683979       -2.15711375038765
H           -2.67208674093848        2.99053460130001       -2.53997467113902
H           -1.43872817546554        3.37885069539891       -1.34162268691913
H           -1.12773974884234        3.67012521489119       -4.37819871438530
H           -1.36432538182670        4.94010011945120       -3.19880047320009
H            0.13514527680528        4.03534349977170       -3.19120625245186
H           -1.17452789059532       -0.06301931176313       -3.71265466036764
H           -2.49504240165700        1.09359473182035       -3.92645557095269
H           -0.86894091131591        1.48504218071876       -4.50206000567922
H           -1.51285541283345       -0.19511349682123       -1.33468220593448
H           -1.74616061629518        1.28544120783405       -0.39746221808284
H           -2.92975710416864        0.82130672159117       -1.62120904911793

          :  Hamiltonian                  GFN2-xTB          :
         :: total energy             -29.854397044779 Eh    ::
         :: gradient norm              0.000429746523 Eh/a0 ::
         :: HOMO-LUMO gap              8.750433949703 eV    ::
         :: SCC energy               -30.285009208873 Eh    ::
         :: -> dispersion             -0.019893559393 Eh    ::
         :: repulsion energy           0.430612164094 Eh    ::

    * Orbital Energies and Occupations

         #    Occupation            Energy/Eh            Energy/eV
      -------------------------------------------------------------
         1        2.0000           -0.8645866             -23.5266
       ...           ...                  ...                  ...
        16        2.0000           -0.6546487             -17.8139
        17        2.0000           -0.6505194             -17.7015
        18        2.0000           -0.6458396             -17.5742
        19        2.0000           -0.6396662             -17.4062
        20        2.0000           -0.6322452             -17.2043
        21        2.0000           -0.6259962             -17.0342
        22        2.0000           -0.6112561             -16.6331
        23        2.0000           -0.6081247             -16.5479
        24        2.0000           -0.6024787             -16.3943
        25        2.0000           -0.5951071             -16.1937
        26        2.0000           -0.5716686             -15.5559
        27        2.0000           -0.5615022             -15.2793
        28        2.0000           -0.5540381             -15.0761 (HOMO)
        29                         -0.2324656              -6.3257 (LUMO)
        30                         -0.1706223              -4.6429
        31                         -0.1511028              -4.1117
        32                         -0.1468326              -3.9955
        33                         -0.0778617              -2.1187
        34                         -0.0652954              -1.7768
        35                         -0.0472546              -1.2859
        36                         -0.0362286              -0.9858
        37                         -0.0329442              -0.8965
        38                         -0.0111107              -0.3023
        39                          0.0004760               0.0130
       ...                                ...                  ...
        56                          0.1908087               5.1922
      -------------------------------------------------------------
                  HL-Gap            0.3215725 Eh            8.7504 eV

     #   Z          covCN         q      C6AA      α(0)
     1   6 C        3.751    -0.115    22.754     6.803
     2   6 C        3.799    -0.064    21.731     6.637
     3   6 C        3.799    -0.075    21.929     6.667
     4   6 C        3.757    -0.042    21.374     6.592
     5   7 N        3.620     0.130    19.029     6.479
     6   6 C        3.760    -0.033    21.213     6.566
     7   6 C        3.751    -0.130    23.052     6.847
     8   6 C        3.728    -0.095    22.416     6.759
     9   6 C        3.726    -0.093    22.390     6.756
    10   1 H        0.925     0.030     2.590     2.517
    11   1 H        0.925     0.059     2.215     2.327
    12   1 H        0.925     0.050     2.322     2.383
    13   1 H        0.924     0.035     2.521     2.483
    14   1 H        0.924     0.060     2.199     2.319
    15   1 H        0.925     0.056     2.250     2.346
    16   1 H        0.924     0.075     2.036     2.232
    17   1 H        0.924     0.084     1.937     2.176
    18   1 H        0.924     0.091     1.872     2.139
    19   1 H        0.924     0.084     1.938     2.177
    20   1 H        0.924     0.088     1.896     2.153
    21   1 H        0.925     0.067     2.123     2.279
    22   1 H        0.925     0.086     1.922     2.168
    23   1 H        0.925     0.068     2.106     2.269
    24   1 H        0.925     0.096     1.820     2.110
    25   1 H        0.925     0.097     1.813     2.105
    26   1 H        0.925     0.100     1.787     2.090
    27   1 H        0.925     0.097     1.811     2.105
    28   1 H        0.925     0.102     1.763     2.076
    29   1 H        0.925     0.093     1.849     2.127

Wiberg/Mayer (AO) data.
largest (>0.10) Wiberg bond orders for each atom

     #   Z sym  total        # sym  WBO       # sym  WBO       # sym  WBO
 ---------------------------------------------------------------------------
     1   6 C    3.993 --     2 C    1.021    12 H    0.986    10 H    0.984
                            11 H    0.984
     2   6 C    3.993 --     1 C    1.021     3 C    1.005    14 H    0.973
                            13 H    0.970
     3   6 C    3.984 --     4 C    1.006     2 C    1.005    15 H    0.968
                            16 H    0.965
     4   6 C    3.926 --     3 C    1.006    17 H    0.966    18 H    0.962
                             5 N    0.921
     5   7 N    3.809 --     9 C    0.960     8 C    0.960     6 C    0.926
                             4 C    0.921
     6   6 C    3.934 --     7 C    1.023    19 H    0.967    20 H    0.964
                             5 N    0.926
     7   6 C    3.981 --     6 C    1.023    21 H    0.980    23 H    0.980
                            22 H    0.972
     8   6 C    3.930 --    24 H    0.975    25 H    0.974    26 H    0.972
                             5 N    0.960
     9   6 C    3.929 --    29 H    0.975    27 H    0.974    28 H    0.966
                             5 N    0.960
    10   1 H    0.999 --     1 C    0.984
    11   1 H    0.997 --     1 C    0.984
    12   1 H    0.998 --     1 C    0.986
    13   1 H    0.999 --     2 C    0.970
    14   1 H    0.996 --     2 C    0.973
    15   1 H    0.997 --     3 C    0.968
    16   1 H    0.994 --     3 C    0.965
    17   1 H    0.993 --     4 C    0.966
    18   1 H    0.992 --     4 C    0.962
    19   1 H    0.993 --     6 C    0.967
    20   1 H    0.992 --     6 C    0.964
    21   1 H    0.996 --     7 C    0.980
    22   1 H    0.992 --     7 C    0.972
    23   1 H    0.995 --     7 C    0.980
    24   1 H    0.991 --     8 C    0.975
    25   1 H    0.990 --     8 C    0.974
    26   1 H    0.990 --     8 C    0.972
    27   1 H    0.990 --     9 C    0.974
    28   1 H    0.990 --     9 C    0.966
    29   1 H    0.991 --     9 C    0.975
 ---------------------------------------------------------------------------

molecular dipole:
                 x           y           z       tot (Debye)
 q only:       -1.733       3.215      -4.294
   full:       -1.797       3.178      -4.332      14.401

           -------------------------------------------------
          | TOTAL ENERGY              -29.854397044779 Eh   |
          | GRADIENT NORM               0.000429746523 Eh/α |
          | HOMO-LUMO GAP               8.750433949703 eV   |
           -------------------------------------------------

 * finished run on 2024/12/20 at 07:12:37.068
