   * xtb version 6.7.1 (edcfbbe) compiled by 'conda@3ef47c1a292c' on 2024-11-25

   ID    Z sym.   atoms
    1    6 C      1, 3, 5-7
    2    8 O      2
    3   15 P      4
    4    1 H      8-21

          program call               : xtb C1147.xyz --opt --namespace C1147 --charge +1
          :  Hamiltonian                  GFN2-xTB          :
 * total energy  :   -24.0077331 Eh     change       -0.7840839E-11 Eh
 * total energy  :   -24.0124463 Eh     change       -0.4713184E-02 Eh
 * total energy  :   -24.0143074 Eh     change       -0.1861065E-02 Eh
 * total energy  :   -24.0145563 Eh     change       -0.2489690E-03 Eh
 * total energy  :   -24.0147291 Eh     change       -0.1727554E-03 Eh
 * total energy  :   -24.0149105 Eh     change       -0.1813860E-03 Eh
 * total energy  :   -24.0151138 Eh     change       -0.2033812E-03 Eh
 * total energy  :   -24.0153701 Eh     change       -0.2562345E-03 Eh
 * total energy  :   -24.0156691 Eh     change       -0.2990379E-03 Eh
 * total energy  :   -24.0160255 Eh     change       -0.3563417E-03 Eh
 * total energy  :   -24.0182251 Eh     change       -0.1131879E-03 Eh
 * total energy  :   -24.0182735 Eh     change       -0.4842238E-04 Eh
 * total energy  :   -24.0183601 Eh     change       -0.8663260E-04 Eh
 * total energy  :   -24.0183933 Eh     change       -0.3319162E-04 Eh
 * total energy  :   -24.0184105 Eh     change       -0.1724335E-04 Eh
 * total energy  :   -24.0184313 Eh     change       -0.2079292E-04 Eh
 * total energy  :   -24.0184383 Eh     change       -0.7005661E-05 Eh
 * total energy  :   -24.0184440 Eh     change       -0.5705761E-05 Eh
 * total energy  :   -24.0184471 Eh     change       -0.3058636E-05 Eh
   *** GEOMETRY OPTIMIZATION CONVERGED AFTER 31 ITERATIONS ***

 final structure:
================
21
 xtb: 6.7.1 (edcfbbe)
C            1.06897999832685       -0.61441840755952       -0.72921257708891
O            0.61044438043039        0.65711468987018       -0.29689861888742
C            1.21713195470196        1.73825491397611       -0.94911088222484
P            0.39545567619983        3.13182787039271       -0.09565220393931
C            0.77621936321231        3.00074350535986        1.66246295424940
C            0.98345134694881        4.71171627884905       -0.75660321344982
C           -1.38163759740029        2.95935813020162       -0.35053478817624
H            0.51320644248038       -1.34845792330467       -0.15150435372920
H            2.13988246631586       -0.72770342968172       -0.53807329810494
H            0.87218811875712       -0.75815274529337       -1.79518655758858
H            2.30806240668054        1.76239828551315       -0.80021964276008
H            1.00931951575539        1.74848045129034       -2.03076950287858
H            1.84425104644850        3.14037339822561        1.82553939611643
H            0.22458709753460        3.76298760261041        2.21118705495480
H            0.48101937908446        2.01246812674700        2.01345830136185
H            0.75844397598308        4.77710024187502       -1.82009195953381
H            0.48848058900979        5.53112822029691       -0.23803142891208
H            2.05943155323373        4.79812985570736       -0.61138862430627
H           -1.61712865834064        3.04409994447533       -1.41060096155370
H           -1.69469128103321        1.98137035111652        0.01297230625030
H           -1.90569777432955        3.73972063933140        0.19965860019998

          :  Hamiltonian                  GFN2-xTB          :
         :: total energy             -24.018447108550 Eh    ::
         :: gradient norm              0.000529027341 Eh/a0 ::
         :: HOMO-LUMO gap              7.257223171993 eV    ::
         :: SCC energy               -24.317509204596 Eh    ::
         :: -> dispersion             -0.012903935991 Eh    ::
         :: repulsion energy           0.299062096046 Eh    ::

    * Orbital Energies and Occupations

         #    Occupation            Energy/Eh            Energy/eV
      -------------------------------------------------------------
         1        2.0000           -0.8717707             -23.7221
       ...           ...                  ...                  ...
        10        2.0000           -0.6886838             -18.7400
        11        2.0000           -0.6702645             -18.2388
        12        2.0000           -0.6680110             -18.1775
        13        2.0000           -0.6573344             -17.8870
        14        2.0000           -0.6500179             -17.6879
        15        2.0000           -0.6477204             -17.6254
        16        2.0000           -0.6413213             -17.4512
        17        2.0000           -0.6332257             -17.2309
        18        2.0000           -0.6237109             -16.9720
        19        2.0000           -0.6210851             -16.9006
        20        2.0000           -0.6078654             -16.5409
        21        2.0000           -0.5953097             -16.1992
        22        2.0000           -0.5540659             -15.0769 (HOMO)
        23                         -0.2873679              -7.8197 (LUMO)
        24                         -0.2787843              -7.5861
        25                         -0.2778735              -7.5613
        26                         -0.1925355              -5.2392
        27                         -0.1351777              -3.6784
        28                         -0.0601138              -1.6358
        29                         -0.0532998              -1.4504
        30                         -0.0224875              -0.6119
        31                         -0.0104153              -0.2834
        32                         -0.0025435              -0.0692
        33                         -0.0013423              -0.0365
       ...                                ...                  ...
        47                          0.7548902              20.5416
      -------------------------------------------------------------
                  HL-Gap            0.2666980 Eh            7.2572 eV

     #   Z          covCN         q      C6AA      α(0)
     1   6 C        3.647     0.021    20.556     6.515
     2   8 O        1.859    -0.289    18.771     5.851
     3   6 C        3.648     0.060    19.883     6.407
     4  15 P        3.887     0.214   151.075    22.079
     5   6 C        3.701    -0.139    23.358     6.911
     6   6 C        3.701    -0.146    23.495     6.932
     7   6 C        3.701    -0.139    23.356     6.911
     8   1 H        0.925     0.089     1.892     2.151
     9   1 H        0.924     0.055     2.256     2.349
    10   1 H        0.924     0.056     2.252     2.347
    11   1 H        0.924     0.078     2.002     2.213
    12   1 H        0.924     0.078     2.002     2.213
    13   1 H        0.927     0.116     1.647     2.007
    14   1 H        0.927     0.114     1.659     2.014
    15   1 H        0.927     0.129     1.539     1.940
    16   1 H        0.926     0.114     1.661     2.015
    17   1 H        0.927     0.115     1.652     2.010
    18   1 H        0.926     0.114     1.661     2.016
    19   1 H        0.927     0.116     1.645     2.005
    20   1 H        0.927     0.130     1.536     1.938
    21   1 H        0.927     0.114     1.660     2.015

Wiberg/Mayer (AO) data.
largest (>0.10) Wiberg bond orders for each atom

     #   Z sym  total        # sym  WBO       # sym  WBO       # sym  WBO
 ---------------------------------------------------------------------------
     1   6 C    3.919 --    10 H    0.978     9 H    0.978     8 H    0.975
                             2 O    0.960
     2   8 O    2.125 --     3 C    1.001     1 C    0.960
     3   6 C    3.963 --     2 O    1.001     4 P    0.968    11 H    0.935
                            12 H    0.935
     4  15 P    4.643 --     7 C    1.064     5 C    1.064     6 C    1.049
                             3 C    0.968
     5   6 C    3.982 --     4 P    1.064    14 H    0.938    13 H    0.938
                            15 H    0.934
     6   6 C    3.981 --     4 P    1.049    17 H    0.942    16 H    0.940
                            18 H    0.940
     7   6 C    3.982 --     4 P    1.064    21 H    0.938    19 H    0.938
                            20 H    0.934
     8   1 H    0.992 --     1 C    0.975
     9   1 H    0.997 --     1 C    0.978
    10   1 H    0.997 --     1 C    0.978
    11   1 H    0.994 --     3 C    0.935
    12   1 H    0.994 --     3 C    0.935
    13   1 H    0.987 --     5 C    0.938
    14   1 H    0.987 --     5 C    0.938
    15   1 H    0.983 --     5 C    0.934
    16   1 H    0.987 --     6 C    0.940
    17   1 H    0.986 --     6 C    0.942
    18   1 H    0.987 --     6 C    0.940
    19   1 H    0.987 --     7 C    0.938
    20   1 H    0.983 --     7 C    0.934
    21   1 H    0.987 --     7 C    0.938
 ---------------------------------------------------------------------------

molecular dipole:
                 x           y           z       tot (Debye)
 q only:        0.885       5.573      -0.306
   full:        1.039       5.552      -0.465      14.405

           -------------------------------------------------
          | TOTAL ENERGY              -24.018447108550 Eh   |
          | GRADIENT NORM               0.000529027341 Eh/α |
          | HOMO-LUMO GAP               7.257223171993 eV   |
           -------------------------------------------------

 * finished run on 2024/12/20 at 07:12:45.392
