   * xtb version 6.7.1 (edcfbbe) compiled by 'conda@3ef47c1a292c' on 2024-11-25

   ID    Z sym.   atoms
    1    6 C      1-4, 6, 8, 10, 11, 13-20, 22-27
    2    7 N      5, 9, 12
    3    8 O      7, 21
    4    1 H      28-53

          program call               : xtb C1142.xyz --opt --namespace C1142 --charge +1
          :  Hamiltonian                  GFN2-xTB          :
 * total energy  :   -76.9082464 Eh     change       -0.1714113E-08 Eh
 * total energy  :   -76.9185866 Eh     change       -0.1034018E-01 Eh
 * total energy  :   -76.9210936 Eh     change       -0.2507023E-02 Eh
 * total energy  :   -76.9215497 Eh     change       -0.4561220E-03 Eh
 * total energy  :   -76.9220280 Eh     change       -0.4783027E-03 Eh
 * total energy  :   -76.9223364 Eh     change       -0.3083688E-03 Eh
 * total energy  :   -76.9226887 Eh     change       -0.3523272E-03 Eh
 * total energy  :   -76.9230566 Eh     change       -0.3679027E-03 Eh
 * total energy  :   -76.9233701 Eh     change       -0.3134648E-03 Eh
 * total energy  :   -76.9236374 Eh     change       -0.2673577E-03 Eh
 * total energy  :   -76.9257294 Eh     change       -0.2574033E-04 Eh
 * total energy  :   -76.9257531 Eh     change       -0.2377202E-04 Eh
 * total energy  :   -76.9257696 Eh     change       -0.1642803E-04 Eh
 * total energy  :   -76.9257795 Eh     change       -0.9915524E-05 Eh
 * total energy  :   -76.9257885 Eh     change       -0.9011235E-05 Eh
 * total energy  :   -76.9257964 Eh     change       -0.7889444E-05 Eh
 * total energy  :   -76.9258047 Eh     change       -0.8270387E-05 Eh
 * total energy  :   -76.9258142 Eh     change       -0.9570620E-05 Eh
 * total energy  :   -76.9258171 Eh     change       -0.2896495E-05 Eh
   *** GEOMETRY OPTIMIZATION CONVERGED AFTER 44 ITERATIONS ***

 final structure:
================
53
 xtb: 6.7.1 (edcfbbe)
C            1.39757429422717        0.00282365684672       -0.09033147888882
C            0.97366831218242       -0.61607753004362        1.23615150447437
C            1.33908339497083        0.24245272639263        2.44953150885630
C            0.65829757892086        1.61843231124515        2.46121629595255
N           -0.77857199418154        1.52519384273513        2.34523381465579
C           -1.73547756940768        1.52559174676387        3.28140261262966
O           -2.90130754490081        1.32988619957410        3.02357887226876
C           -1.31071874498782        1.81515962972943        4.74297814280697
N           -0.55721274641441        0.74376822511741        5.34449164689003
C           -0.95921985611872       -0.53212955279391        5.44444087596117
C           -2.21436983952942       -1.05671493339618        4.88407941475513
N           -0.01838701096421       -1.25540370275529        6.07197091187395
C            1.04597208749828       -0.42408114410125        6.37303852291066
C            0.69181072122704        0.86018248940444        5.92581481300698
C            1.54411203916224        1.94354167490580        6.09803504044835
C            2.76076943662867        1.69884201875463        6.70103458442977
C            3.12806101148061        0.41676498884220        7.11312286589046
C            2.28329238999474       -0.66346466695536        6.95904964302454
C           -0.10177154178088       -2.66446114870256        6.37576510719030
C           -1.28857547621183       -3.01236959525655        7.31722072591190
O           -2.23747947244634       -3.58621669845420        6.83459077067887
C           -1.21696935810481       -2.62955656125120        8.72844203190925
C           -0.14734690468300       -1.93848853050224        9.30458825777645
C           -0.17107089033778       -1.62332911953488       10.64908160842052
C           -1.25069153767849       -1.99203930675917       11.43881229449518
C           -2.31812374361961       -2.67808379530309       10.87883952324952
C           -2.30333892970835       -2.99313446338622        9.53604628150790
H            0.84579285062412        0.91438477689045       -0.30558379403452
H            1.21199927826542       -0.69677359144636       -0.90053910449331
H            2.45948381759689        0.23578520479888       -0.07987323022071
H           -0.10241634866523       -0.80496995965916        1.22751490152460
H            1.47055087918459       -1.58181419998608        1.34691743244650
H            1.07468119351331       -0.30392764481361        3.35882872504708
H            2.41779090882307        0.40505020370683        2.46579169139919
H            0.92646526676843        2.14754653549321        3.37643395717734
H            1.02407946657911        2.20679410959036        1.61762278439154
H           -1.12836411844408        1.35181382459681        1.41091756255919
H           -0.71968640891782        2.72978762779728        4.78486788940784
H           -2.23901310469521        1.97456231475379        5.30142939488241
H           -2.99742940986671       -0.30097024052099        4.89517257509140
H           -2.06519431320365       -1.33483028592274        3.83802473061436
H           -2.55964854485544       -1.94070066472789        5.41235692696873
H            1.27609011479503        2.93983087225622        5.78557735659626
H            3.44833903572293        2.51525180610996        6.85207005957569
H            4.09616322682245        0.26815028366727        7.56356062705302
H            2.59067785021813       -1.64838215754561        7.27267388678437
H           -0.26255688407493       -3.22864510085193        5.45110845388501
H            0.83678967992462       -2.98559959393784        6.82621585203690
H            0.70750416387012       -1.64232846753033        8.71902795306563
H            0.65975762320161       -1.09148291671630       11.08717334123411
H           -1.25668038404608       -1.74624733088978       12.48941302895094
H           -3.15783729663042       -2.96757013102241       11.49090360822864
H           -3.12255664765942       -3.52946403516216        9.08181719674235

          :  Hamiltonian                  GFN2-xTB          :
         :: total energy             -76.925817126941 Eh    ::
         :: gradient norm              0.000276444423 Eh/a0 ::
         :: HOMO-LUMO gap              2.988458809695 eV    ::
         :: SCC energy               -78.109390373212 Eh    ::
         :: -> dispersion             -0.059157179004 Eh    ::
         :: repulsion energy           1.183573246272 Eh    ::

    * Orbital Energies and Occupations

         #    Occupation            Energy/Eh            Energy/eV
      -------------------------------------------------------------
         1        2.0000           -0.8759186             -23.8350
       ...           ...                  ...                  ...
        58        2.0000           -0.5744815             -15.6324
        59        2.0000           -0.5520425             -15.0218
        60        2.0000           -0.5493681             -14.9491
        61        2.0000           -0.5478893             -14.9088
        62        2.0000           -0.5445257             -14.8173
        63        2.0000           -0.5400653             -14.6959
        64        2.0000           -0.5344314             -14.5426
        65        2.0000           -0.5338040             -14.5255
        66        2.0000           -0.5252341             -14.2923
        67        2.0000           -0.5228747             -14.2281
        68        2.0000           -0.5213723             -14.1873
        69        2.0000           -0.5204189             -14.1613
        70        2.0000           -0.5173140             -14.0768 (HOMO)
        71                         -0.4074901             -11.0884 (LUMO)
        72                         -0.4058409             -11.0435
        73                         -0.3638260              -9.9002
        74                         -0.3554376              -9.6720
        75                         -0.3382567              -9.2044
        76                         -0.3378691              -9.1939
        77                         -0.3114967              -8.4763
        78                         -0.2390563              -6.5051
        79                         -0.2028158              -5.5189
        80                         -0.1686226              -4.5885
        81                         -0.1291721              -3.5150
       ...                                ...                  ...
       134                          0.5516243              15.0105
      -------------------------------------------------------------
                  HL-Gap            0.1098238 Eh            2.9885 eV

     #   Z          covCN         q      C6AA      α(0)
     1   6 C        3.752    -0.112    22.695     6.794
     2   6 C        3.800    -0.057    21.607     6.618
     3   6 C        3.801    -0.064    21.736     6.638
     4   6 C        3.734    -0.007    20.797     6.509
     5   7 N        2.685    -0.163    24.521     7.354
     6   6 C        2.742     0.267    22.495     7.766
     7   8 O        0.860    -0.410    21.884     6.272
     8   6 C        3.740    -0.044    21.432     6.605
     9   7 N        2.829     0.008    21.123     6.826
    10   6 C        3.064     0.126    25.174     8.227
    11   6 C        3.755    -0.144    23.338     6.888
    12   7 N        2.827     0.006    21.161     6.832
    13   6 C        3.090     0.039    27.035     8.523
    14   6 C        3.089     0.038    27.053     8.526
    15   6 C        2.910    -0.036    28.892     8.814
    16   6 C        2.925    -0.021    28.525     8.759
    17   6 C        2.925    -0.021    28.529     8.759
    18   6 C        2.910    -0.035    28.871     8.811
    19   6 C        3.738    -0.042    21.405     6.602
    20   6 C        2.819     0.223    23.318     7.912
    21   8 O        0.858    -0.340    20.525     6.074
    22   6 C        2.969    -0.018    28.465     8.751
    23   6 C        2.919    -0.031    28.768     8.795
    24   6 C        2.917    -0.023    28.576     8.766
    25   6 C        2.920    -0.009    28.234     8.714
    26   6 C        2.916    -0.018    28.457     8.748
    27   6 C        2.928    -0.011    28.284     8.722
    28   1 H        0.925     0.037     2.487     2.466
    29   1 H        0.925     0.052     2.295     2.369
    30   1 H        0.925     0.046     2.373     2.409
    31   1 H        0.924     0.033     2.539     2.492
    32   1 H        0.924     0.044     2.397     2.421
    33   1 H        0.924     0.015     2.816     2.624
    34   1 H        0.924     0.053     2.281     2.362
    35   1 H        0.924     0.049     2.334     2.389
    36   1 H        0.924     0.074     2.041     2.234
    37   1 H        0.860     0.210     1.057     1.610
    38   1 H        0.925     0.089     1.890     2.150
    39   1 H        0.924     0.099     1.792     2.094
    40   1 H        0.925     0.112     1.677     2.025
    41   1 H        0.924     0.109     1.709     2.044
    42   1 H        0.925     0.114     1.661     2.015
    43   1 H        0.926     0.063     2.164     2.301
    44   1 H        0.926     0.077     2.005     2.214
    45   1 H        0.926     0.077     2.005     2.215
    46   1 H        0.926     0.065     2.142     2.289
    47   1 H        0.924     0.096     1.825     2.112
    48   1 H        0.925     0.091     1.867     2.137
    49   1 H        0.926     0.035     2.511     2.478
    50   1 H        0.926     0.053     2.286     2.364
    51   1 H        0.926     0.064     2.153     2.295
    52   1 H        0.926     0.065     2.141     2.288
    53   1 H        0.926     0.077     2.008     2.216

Wiberg/Mayer (AO) data.
largest (>0.10) Wiberg bond orders for each atom

     #   Z sym  total        # sym  WBO       # sym  WBO       # sym  WBO
 ---------------------------------------------------------------------------
     1   6 C    3.994 --     2 C    1.021    30 H    0.987    28 H    0.985
                            29 H    0.985
     2   6 C    3.996 --     1 C    1.021     3 C    1.007    31 H    0.977
                            32 H    0.976
     3   6 C    3.994 --     2 C    1.007     4 C    0.990    33 H    0.977
                            34 H    0.973
     4   6 C    3.963 --     5 N    0.993     3 C    0.990    36 H    0.966
                            35 H    0.966
     5   7 N    3.479 --     6 C    1.294     4 C    0.993    37 H    0.921
                             7 O    0.217
     6   6 C    3.962 --     7 O    1.691     5 N    1.294     8 C    0.918
     7   8 O    2.035 --     6 C    1.691     5 N    0.217
     8   6 C    3.944 --     9 N    0.981    38 H    0.956    39 H    0.954
                             6 C    0.918
     9   7 N    3.655 --    10 C    1.319    14 C    1.115     8 C    0.981
    10   6 C    3.952 --     9 N    1.319    12 N    1.317    11 C    1.060
    11   6 C    3.968 --    10 C    1.060    40 H    0.954    42 H    0.954
                            41 H    0.928
    12   7 N    3.652 --    10 C    1.317    13 C    1.115    19 C    0.978
    13   6 C    3.953 --    18 C    1.343    14 C    1.277    12 N    1.115
    14   6 C    3.953 --    15 C    1.344    13 C    1.277     9 N    1.115
    15   6 C    3.984 --    16 C    1.487    14 C    1.344    43 H    0.961
                            18 C    0.117
    16   6 C    3.983 --    15 C    1.487    17 C    1.385    44 H    0.966
    17   6 C    3.983 --    18 C    1.486    16 C    1.385    45 H    0.966
    18   6 C    3.984 --    17 C    1.486    13 C    1.343    46 H    0.960
                            15 C    0.117
    19   6 C    3.942 --    12 N    0.978    47 H    0.958    48 H    0.957
                            20 C    0.925
    20   6 C    3.929 --    21 O    1.819    22 C    1.076    19 C    0.925
    21   8 O    2.094 --    20 C    1.819
    22   6 C    3.986 --    23 C    1.359    27 C    1.350    20 C    1.076
    23   6 C    3.992 --    24 C    1.468    22 C    1.359    49 H    0.962
                            26 C    0.102
    24   6 C    3.991 --    23 C    1.468    25 C    1.421    50 H    0.969
                            27 C    0.100
    25   6 C    3.986 --    26 C    1.426    24 C    1.421    51 H    0.969
    26   6 C    3.989 --    27 C    1.465    25 C    1.426    52 H    0.967
                            23 C    0.102
    27   6 C    3.984 --    26 C    1.465    22 C    1.350    53 H    0.963
                            24 C    0.100
    28   1 H    0.999 --     1 C    0.985
    29   1 H    0.997 --     1 C    0.985
    30   1 H    0.998 --     1 C    0.987
    31   1 H    0.999 --     2 C    0.977
    32   1 H    0.998 --     2 C    0.976
    33   1 H    1.000 --     3 C    0.977
    34   1 H    0.996 --     3 C    0.973
    35   1 H    0.998 --     4 C    0.966
    36   1 H    0.994 --     4 C    0.966
    37   1 H    0.956 --     5 N    0.921
    38   1 H    0.992 --     8 C    0.956
    39   1 H    0.989 --     8 C    0.954
    40   1 H    0.986 --    11 C    0.954
    41   1 H    0.983 --    11 C    0.928
    42   1 H    0.986 --    11 C    0.954
    43   1 H    0.995 --    15 C    0.961
    44   1 H    0.994 --    16 C    0.966
    45   1 H    0.994 --    17 C    0.966
    46   1 H    0.995 --    18 C    0.960
    47   1 H    0.990 --    19 C    0.958
    48   1 H    0.991 --    19 C    0.957
    49   1 H    0.999 --    23 C    0.962
    50   1 H    0.997 --    24 C    0.969
    51   1 H    0.995 --    25 C    0.969
    52   1 H    0.995 --    26 C    0.967
    53   1 H    0.994 --    27 C    0.963
 ---------------------------------------------------------------------------

molecular dipole:
                 x           y           z       tot (Debye)
 q only:        1.459      -0.009      11.544
   full:        1.750       0.094      11.588      29.788

           -------------------------------------------------
          | TOTAL ENERGY              -76.925817126941 Eh   |
          | GRADIENT NORM               0.000276444423 Eh/α |
          | HOMO-LUMO GAP               2.988458809695 eV   |
           -------------------------------------------------

 * finished run on 2024/12/20 at 07:12:40.804
