   * xtb version 6.7.1 (edcfbbe) compiled by 'conda@3ef47c1a292c' on 2024-11-25

   ID    Z sym.   atoms
    1    6 C      1-3, 5-7
    2   15 P      4
    3    1 H      8-23

          program call               : xtb C1149.xyz --opt --namespace C1149 --charge +1
          :  Hamiltonian                  GFN2-xTB          :
 * total energy  :   -23.1267610 Eh     change       -0.5103828E-10 Eh
 * total energy  :   -23.1303617 Eh     change       -0.3600623E-02 Eh
 * total energy  :   -23.1314933 Eh     change       -0.1131641E-02 Eh
 * total energy  :   -23.1315558 Eh     change       -0.6252433E-04 Eh
 * total energy  :   -23.1315927 Eh     change       -0.3685347E-04 Eh
 * total energy  :   -23.1316139 Eh     change       -0.2118283E-04 Eh
 * total energy  :   -23.1316478 Eh     change       -0.3390580E-04 Eh
 * total energy  :   -23.1316663 Eh     change       -0.1855098E-04 Eh
 * total energy  :   -23.1316818 Eh     change       -0.1549893E-04 Eh
 * total energy  :   -23.1316958 Eh     change       -0.1398547E-04 Eh
 * total energy  :   -23.1317068 Eh     change       -0.1098629E-04 Eh
 * total energy  :   -23.1317158 Eh     change       -0.9003131E-05 Eh
 * total energy  :   -23.1317242 Eh     change       -0.8463729E-05 Eh
 * total energy  :   -23.1317330 Eh     change       -0.8743665E-05 Eh
 * total energy  :   -23.1317416 Eh     change       -0.8563090E-05 Eh
 * total energy  :   -23.1317491 Eh     change       -0.7505057E-05 Eh
 * total energy  :   -23.1317539 Eh     change       -0.4814388E-05 Eh
   *** GEOMETRY OPTIMIZATION CONVERGED AFTER 17 ITERATIONS ***

 final structure:
================
23
 xtb: 6.7.1 (edcfbbe)
C            0.70124769632327        0.26527399129640        0.05113632453098
C            0.57850009323774        0.48168778130568       -1.45024506296490
C            1.21923879401743       -0.63948302267288       -2.26962274058745
P            0.47101691651605       -2.29349489476238       -2.06210924012863
C           -1.32987099262289       -2.19887833440632       -1.91932082366402
C            0.86357115846809       -3.24713936709050       -3.54941354910437
C            1.16131584612985       -3.20194811698283       -0.65569137457728
H            0.09942502678580       -0.58083365908438        0.37904058534625
H            0.35155230032867        1.14618549932536        0.58225104811074
H            1.73708386222732        0.09250496652321        0.33364224693296
H           -0.47232938130048        0.59093650871523       -1.72463887627865
H            1.08118389926426        1.41247646800196       -1.71830509912703
H            1.14913015141095       -0.40452939044466       -3.33651529290337
H            2.27979413610920       -0.73438623693406       -2.01715578568661
H           -1.73641407523980       -1.67343891775266       -2.78291445596284
H           -1.73831925162423       -3.20868279169248       -1.89147791120452
H           -1.61708275424608       -1.67287378921093       -1.01090694357726
H            1.94286874976169       -3.27990452056400       -3.69380768076898
H            0.48800497731283       -4.26416332917724       -3.44415716403413
H            0.40166574247117       -2.78482475059031       -4.42067657629866
H            2.24508072545375       -3.25419328224641       -0.75835005452635
H            0.91667896470818       -2.71824980216984        0.28725740654171
H            0.75484741450717       -4.21334100938618       -0.65453898006775

          :  Hamiltonian                  GFN2-xTB          :
         :: total energy             -23.131753872797 Eh    ::
         :: gradient norm              0.000497798661 Eh/a0 ::
         :: HOMO-LUMO gap              7.526070298957 eV    ::
         :: SCC energy               -23.479639460568 Eh    ::
         :: -> dispersion             -0.015238675585 Eh    ::
         :: repulsion energy           0.347885587771 Eh    ::

    * Orbital Energies and Occupations

         #    Occupation            Energy/Eh            Energy/eV
      -------------------------------------------------------------
         1        2.0000           -0.8625599             -23.4714
       ...           ...                  ...                  ...
        10        2.0000           -0.6705814             -18.2474
        11        2.0000           -0.6589145             -17.9300
        12        2.0000           -0.6518854             -17.7387
        13        2.0000           -0.6458857             -17.5754
        14        2.0000           -0.6433644             -17.5068
        15        2.0000           -0.6418359             -17.4652
        16        2.0000           -0.6324182             -17.2090
        17        2.0000           -0.6215555             -16.9134
        18        2.0000           -0.6208924             -16.8953
        19        2.0000           -0.6109447             -16.6247
        20        2.0000           -0.5908863             -16.0788
        21        2.0000           -0.5787321             -15.7481
        22        2.0000           -0.5698209             -15.5056 (HOMO)
        23                         -0.2932429              -7.9795 (LUMO)
        24                         -0.2794775              -7.6050
        25                         -0.2713163              -7.3829
        26                         -0.1862627              -5.0685
        27                         -0.0901163              -2.4522
        28                         -0.0651799              -1.7736
        29                         -0.0407887              -1.1099
        30                         -0.0268717              -0.7312
        31                         -0.0163028              -0.4436
        32                         -0.0096211              -0.2618
        33                         -0.0012862              -0.0350
       ...                                ...                  ...
        49                          0.7710020              20.9800
      -------------------------------------------------------------
                  HL-Gap            0.2765780 Eh            7.5261 eV

     #   Z          covCN         q      C6AA      α(0)
     1   6 C        3.752    -0.117    22.803     6.810
     2   6 C        3.847    -0.063    21.666     6.621
     3   6 C        3.751    -0.075    21.998     6.689
     4  15 P        3.778     0.193   151.930    22.142
     5   6 C        3.701    -0.135    23.279     6.900
     6   6 C        3.700    -0.142    23.416     6.920
     7   6 C        3.700    -0.137    23.318     6.906
     8   1 H        0.925     0.040     2.453     2.449
     9   1 H        0.925     0.069     2.100     2.266
    10   1 H        0.925     0.054     2.272     2.357
    11   1 H        0.924     0.058     2.224     2.332
    12   1 H        0.924     0.073     2.056     2.242
    13   1 H        0.927     0.094     1.842     2.122
    14   1 H        0.927     0.097     1.814     2.106
    15   1 H        0.927     0.111     1.689     2.032
    16   1 H        0.927     0.110     1.695     2.036
    17   1 H        0.926     0.113     1.669     2.020
    18   1 H        0.927     0.109     1.706     2.043
    19   1 H        0.927     0.109     1.707     2.043
    20   1 H        0.926     0.108     1.711     2.046
    21   1 H        0.927     0.110     1.696     2.036
    22   1 H        0.926     0.114     1.665     2.018
    23   1 H        0.927     0.109     1.703     2.041

Wiberg/Mayer (AO) data.
largest (>0.10) Wiberg bond orders for each atom

     #   Z sym  total        # sym  WBO       # sym  WBO       # sym  WBO
 ---------------------------------------------------------------------------
     1   6 C    3.992 --     2 C    1.021    10 H    0.984     9 H    0.982
                             8 H    0.972
     2   6 C    3.987 --     1 C    1.021     3 C    0.989    11 H    0.971
                            12 H    0.969
     3   6 C    3.984 --     4 P    1.003     2 C    0.989    13 H    0.933
                            14 H    0.933
     4  15 P    4.642 --     6 C    1.059     5 C    1.055     7 C    1.052
                             3 C    1.003
     5   6 C    3.986 --     4 P    1.055    17 H    0.940    15 H    0.940
                            16 H    0.939
     6   6 C    3.987 --     4 P    1.059    20 H    0.942    19 H    0.942
                            18 H    0.941
     7   6 C    3.985 --     4 P    1.052    22 H    0.940    21 H    0.940
                            23 H    0.939
     8   1 H    0.998 --     1 C    0.972
     9   1 H    0.995 --     1 C    0.982
    10   1 H    0.997 --     1 C    0.984
    11   1 H    0.997 --     2 C    0.971
    12   1 H    0.994 --     2 C    0.969
    13   1 H    0.991 --     3 C    0.933
    14   1 H    0.991 --     3 C    0.933
    15   1 H    0.988 --     5 C    0.940
    16   1 H    0.988 --     5 C    0.939
    17   1 H    0.987 --     5 C    0.940
    18   1 H    0.988 --     6 C    0.941
    19   1 H    0.988 --     6 C    0.942
    20   1 H    0.988 --     6 C    0.942
    21   1 H    0.988 --     7 C    0.940
    22   1 H    0.987 --     7 C    0.940
    23   1 H    0.988 --     7 C    0.939
 ---------------------------------------------------------------------------

molecular dipole:
                 x           y           z       tot (Debye)
 q only:        0.860      -4.056      -3.698
   full:        0.882      -4.124      -3.772      14.381

           -------------------------------------------------
          | TOTAL ENERGY              -23.131753872797 Eh   |
          | GRADIENT NORM               0.000497798661 Eh/α |
          | HOMO-LUMO GAP               7.526070298957 eV   |
           -------------------------------------------------

 * finished run on 2024/12/20 at 07:12:46.348
