   * xtb version 6.7.1 (edcfbbe) compiled by 'conda@3ef47c1a292c' on 2024-11-25

   ID    Z sym.   atoms
    1    6 C      1-4, 6, 7, 9-12, 14, 15, 17-20
    2    7 N      5, 8
    3   17 Cl     13, 16
    4    8 O      21, 22
    5    1 H      23-43

          program call               : xtb C1146.xyz --opt --namespace C1146 --charge +1
          :  Hamiltonian                  GFN2-xTB          :
 * total energy  :   -67.7418557 Eh     change       -0.2322906E-08 Eh
 * total energy  :   -67.7488475 Eh     change       -0.6991819E-02 Eh
 * total energy  :   -67.7505093 Eh     change       -0.1661849E-02 Eh
 * total energy  :   -67.7509245 Eh     change       -0.4151369E-03 Eh
 * total energy  :   -67.7514391 Eh     change       -0.5146635E-03 Eh
 * total energy  :   -67.7517301 Eh     change       -0.2909862E-03 Eh
 * total energy  :   -67.7522226 Eh     change       -0.4924325E-03 Eh
 * total energy  :   -67.7527473 Eh     change       -0.5247228E-03 Eh
 * total energy  :   -67.7533533 Eh     change       -0.6060346E-03 Eh
 * total energy  :   -67.7536794 Eh     change       -0.3261204E-03 Eh
 * total energy  :   -67.7584960 Eh     change       -0.1772615E-04 Eh
 * total energy  :   -67.7585186 Eh     change       -0.2261853E-04 Eh
 * total energy  :   -67.7585450 Eh     change       -0.2640883E-04 Eh
 * total energy  :   -67.7585522 Eh     change       -0.7196761E-05 Eh
 * total energy  :   -67.7585625 Eh     change       -0.1034099E-04 Eh
 * total energy  :   -67.7585752 Eh     change       -0.1267436E-04 Eh
 * total energy  :   -67.7585818 Eh     change       -0.6568419E-05 Eh
 * total energy  :   -67.7585903 Eh     change       -0.8546385E-05 Eh
 * total energy  :   -67.7585924 Eh     change       -0.2112288E-05 Eh
   *** GEOMETRY OPTIMIZATION CONVERGED AFTER 40 ITERATIONS ***

 final structure:
================
43
 xtb: 6.7.1 (edcfbbe)
C            1.93034426635523        0.34557527634447        0.42665738972010
C            0.95925393948230        1.51734326866256        0.33937556346856
C            1.15289773441896        2.36887453595914       -0.91611260769688
C            0.68933202035048        1.68498605588866       -2.20794412914138
N           -0.74637616475698        1.50663437263120       -2.22538071715116
C           -1.44526532612902        0.38353235016048       -2.00286395338460
C           -0.85203952304162       -0.94679615009121       -1.77912199348064
N           -2.75933579228027        0.65728008004908       -2.01140857589866
C           -2.92177512234894        2.00850125632293       -2.24433010221248
C           -1.63456413749581        2.54997471627123       -2.38876693152168
C           -1.44265602724469        3.89974088492190       -2.65083754675988
C           -2.57048454275380        4.69622239225230       -2.74630376069208
Cl          -2.39183585732994        6.36951472685305       -3.06891910213168
C           -3.86521493648386        4.15625771454872       -2.57578534704965
C           -4.05399177842229        2.80806664465463       -2.32557869836626
Cl          -5.22850220541442        5.18820087259271       -2.68378080773128
C           -3.86958460507697       -0.25159471037681       -1.81989107561227
C           -4.63800422756448       -0.50319064073526       -3.12290501160005
C           -3.87402628572652       -1.37172591705228       -4.13134772887045
C           -3.68852787920844       -2.77709438189074       -3.59974828675944
O           -2.97033580579494       -3.05369524675424       -2.66827534225346
O           -4.41730162700980       -3.66147589627828       -4.24898873606431
H            1.81758798772091       -0.34551665124766       -0.40489026529966
H            1.76673124389763       -0.20698463878204        1.34778755837888
H            2.95502913528493        0.70724910178422        0.42979444183052
H           -0.07304227677413        1.16133748412377        0.39051744281145
H            1.11775682402000        2.15893180338417        1.20693106454985
H            0.60938547504008        3.30745549762130       -0.79874590087601
H            2.21129582632839        2.60607691239310       -1.02679532242476
H            0.95711350206280        2.30389810285005       -3.06760578717308
H            1.17541305989526        0.71644796730212       -2.31437200547549
H            0.05455404645322       -1.06771201627302       -2.36722950315722
H           -0.58812472322021       -1.07600847408370       -0.72869636557874
H           -1.54124375832386       -1.74644391129835       -2.04848216715406
H           -0.46489858601160        4.33163030011420       -2.78057771538017
H           -5.04972550577882        2.41969011048971       -2.19506916264046
H           -3.49984158801818       -1.19383480665562       -1.41556328949619
H           -4.54146219781994        0.20113903953284       -1.08631991224025
H           -5.57819676505597       -0.99451434946847       -2.87013710303834
H           -4.87436422945739        0.44859942147015       -3.59968969202265
H           -4.43660413376771       -1.42833797489275       -5.06157165917110
H           -2.89234165945080       -0.93925123081287       -4.33371655878513
H           -4.30688779354073       -4.56235389246673       -3.90033059647596

          :  Hamiltonian                  GFN2-xTB          :
         :: total energy             -67.758592425794 Eh    ::
         :: gradient norm              0.000831554053 Eh/a0 ::
         :: HOMO-LUMO gap              2.845970008256 eV    ::
         :: SCC energy               -68.589992633009 Eh    ::
         :: -> dispersion             -0.046983767616 Eh    ::
         :: repulsion energy           0.831400207215 Eh    ::

    * Orbital Energies and Occupations

         #    Occupation            Energy/Eh            Energy/eV
      -------------------------------------------------------------
         1        2.0000           -1.1640564             -31.6756
       ...           ...                  ...                  ...
        48        2.0000           -0.5876176             -15.9899
        49        2.0000           -0.5824029             -15.8480
        50        2.0000           -0.5801644             -15.7871
        51        2.0000           -0.5699860             -15.5101
        52        2.0000           -0.5675039             -15.4426
        53        2.0000           -0.5541614             -15.0795
        54        2.0000           -0.5475596             -14.8999
        55        2.0000           -0.5414878             -14.7346
        56        2.0000           -0.5366017             -14.6017
        57        2.0000           -0.5330360             -14.5046
        58        2.0000           -0.5290220             -14.3954
        59        2.0000           -0.5274235             -14.3519
        60        2.0000           -0.5123644             -13.9421 (HOMO)
        61                         -0.4077770             -11.0962 (LUMO)
        62                         -0.3687123             -10.0332
        63                         -0.3567285              -9.7071
        64                         -0.3520654              -9.5802
        65                         -0.2565130              -6.9801
        66                         -0.2498316              -6.7983
        67                         -0.2421352              -6.5888
        68                         -0.1780127              -4.8440
        69                         -0.1266616              -3.4466
        70                         -0.1015600              -2.7636
        71                         -0.0985430              -2.6815
       ...                                ...                  ...
       119                          0.5232746              14.2390
      -------------------------------------------------------------
                  HL-Gap            0.1045875 Eh            2.8460 eV

     #   Z          covCN         q      C6AA      α(0)
     1   6 C        3.752    -0.114    22.747     6.802
     2   6 C        3.800    -0.059    21.631     6.622
     3   6 C        3.802    -0.072    21.885     6.660
     4   6 C        3.740    -0.021    21.032     6.543
     5   7 N        2.830     0.018    20.943     6.797
     6   6 C        3.068     0.124    25.216     8.234
     7   6 C        3.755    -0.151    23.483     6.910
     8   7 N        2.829     0.016    20.971     6.801
     9   6 C        3.095     0.033    27.139     8.538
    10   6 C        3.095     0.035    27.094     8.531
    11   6 C        2.953    -0.051    29.253     8.871
    12   6 C        2.922     0.093    25.924     8.350
    13  17 Cl       1.004    -0.078   101.609    15.422
    14   6 C        2.922     0.093    25.924     8.350
    15   6 C        2.953    -0.052    29.302     8.879
    16  17 Cl       1.005    -0.079   101.620    15.422
    17   6 C        3.740    -0.029    21.166     6.564
    18   6 C        3.803    -0.067    21.781     6.644
    19   6 C        3.802    -0.099    22.393     6.737
    20   6 C        2.690     0.365    20.803     7.464
    21   8 O        0.856    -0.429    22.273     6.327
    22   8 O        1.660    -0.343    19.781     6.004
    23   1 H        0.925     0.033     2.539     2.492
    24   1 H        0.925     0.050     2.315     2.379
    25   1 H        0.925     0.052     2.299     2.371
    26   1 H        0.924     0.024     2.675     2.558
    27   1 H        0.924     0.055     2.255     2.348
    28   1 H        0.924     0.052     2.292     2.368
    29   1 H        0.924     0.072     2.064     2.247
    30   1 H        0.924     0.079     1.990     2.206
    31   1 H        0.925     0.084     1.936     2.176
    32   1 H        0.925     0.090     1.882     2.145
    33   1 H        0.924     0.110     1.698     2.038
    34   1 H        0.925     0.130     1.533     1.936
    35   1 H        0.926     0.098     1.800     2.098
    36   1 H        0.926     0.097     1.817     2.108
    37   1 H        0.925     0.105     1.743     2.065
    38   1 H        0.924     0.086     1.922     2.168
    39   1 H        0.924     0.076     2.022     2.223
    40   1 H        0.924     0.069     2.093     2.262
    41   1 H        0.925     0.089     1.887     2.148
    42   1 H        0.924     0.068     2.110     2.272
    43   1 H        0.804     0.348     0.594     1.210

Wiberg/Mayer (AO) data.
largest (>0.10) Wiberg bond orders for each atom

     #   Z sym  total        # sym  WBO       # sym  WBO       # sym  WBO
 ---------------------------------------------------------------------------
     1   6 C    3.994 --     2 C    1.021    25 H    0.986    24 H    0.985
                            23 H    0.983
     2   6 C    3.995 --     1 C    1.021     3 C    1.008    26 H    0.976
                            27 H    0.974
     3   6 C    3.985 --     2 C    1.008     4 C    0.986    28 H    0.973
                            29 H    0.968
     4   6 C    3.940 --     3 C    0.986     5 N    0.969    30 H    0.962
                            31 H    0.959
     5   7 N    3.661 --     6 C    1.324    10 C    1.130     4 C    0.969
     6   6 C    3.939 --     5 N    1.324     8 N    1.318     7 C    1.053
     7   6 C    3.966 --     6 C    1.053    32 H    0.957    34 H    0.937
                            33 H    0.933
     8   7 N    3.658 --     6 C    1.318     9 C    1.129    17 C    0.971
     9   6 C    3.961 --    15 C    1.340    10 C    1.272     8 N    1.129
    10   6 C    3.962 --    11 C    1.340     9 C    1.272     5 N    1.130
    11   6 C    3.979 --    12 C    1.441    10 C    1.340    35 H    0.956
                            15 C    0.103
    12   6 C    3.936 --    11 C    1.441    14 C    1.288    13 Cl   1.042
    13  17 Cl   1.207 --    12 C    1.042
    14   6 C    3.936 --    15 C    1.440    12 C    1.288    16 Cl   1.041
    15   6 C    3.979 --    14 C    1.440     9 C    1.340    36 H    0.957
                            11 C    0.103
    16  17 Cl   1.206 --    14 C    1.041
    17   6 C    3.942 --    18 C    0.994     8 N    0.971    38 H    0.959
                            37 H    0.956
    18   6 C    3.987 --    17 C    0.994    19 C    0.989    39 H    0.970
                            40 H    0.969
    19   6 C    3.991 --    18 C    0.989    20 C    0.971    41 H    0.970
                            42 H    0.961
    20   6 C    3.913 --    21 O    1.718    22 O    1.192    19 C    0.971
    21   8 O    2.028 --    20 C    1.718    22 O    0.181
    22   8 O    2.255 --    20 C    1.192    43 H    0.852    21 O    0.181
    23   1 H    0.999 --     1 C    0.983
    24   1 H    0.997 --     1 C    0.985
    25   1 H    0.997 --     1 C    0.986
    26   1 H    0.999 --     2 C    0.976
    27   1 H    0.997 --     2 C    0.974
    28   1 H    0.997 --     3 C    0.973
    29   1 H    0.994 --     3 C    0.968
    30   1 H    0.993 --     4 C    0.962
    31   1 H    0.992 --     4 C    0.959
    32   1 H    0.990 --     7 C    0.957
    33   1 H    0.982 --     7 C    0.933
    34   1 H    0.982 --     7 C    0.937
    35   1 H    0.990 --    11 C    0.956
    36   1 H    0.990 --    15 C    0.957
    37   1 H    0.988 --    17 C    0.956
    38   1 H    0.992 --    17 C    0.959
    39   1 H    0.993 --    18 C    0.970
    40   1 H    0.995 --    18 C    0.969
    41   1 H    0.992 --    19 C    0.970
    42   1 H    0.995 --    19 C    0.961
    43   1 H    0.879 --    22 O    0.852
 ---------------------------------------------------------------------------

molecular dipole:
                 x           y           z       tot (Debye)
 q only:       -3.357       0.768      -4.251
   full:       -3.660       1.281      -4.409      14.925

           -------------------------------------------------
          | TOTAL ENERGY              -67.758592425794 Eh   |
          | GRADIENT NORM               0.000831554053 Eh/α |
          | HOMO-LUMO GAP               2.845970008256 eV   |
           -------------------------------------------------

 * finished run on 2024/12/20 at 07:12:44.901
