   * xtb version 6.7.1 (edcfbbe) compiled by 'conda@3ef47c1a292c' on 2024-11-25

   ID    Z sym.   atoms
    1    6 C      1-3, 5, 6, 8-11
    2    7 N      4, 7
    3    1 H      12-24

          program call               : xtb C1145.xyz --opt --namespace C1145 --charge +1
          :  Hamiltonian                  GFN2-xTB          :
 * total energy  :   -31.3013355 Eh     change       -0.7072742E-10 Eh
 * total energy  :   -31.3057493 Eh     change       -0.4413768E-02 Eh
 * total energy  :   -31.3064734 Eh     change       -0.7240792E-03 Eh
 * total energy  :   -31.3066210 Eh     change       -0.1476251E-03 Eh
 * total energy  :   -31.3066997 Eh     change       -0.7867934E-04 Eh
 * total energy  :   -31.3067117 Eh     change       -0.1201703E-04 Eh
 * total energy  :   -31.3067228 Eh     change       -0.1115299E-04 Eh
 * total energy  :   -31.3067237 Eh     change       -0.8649051E-06 Eh
 * total energy  :   -31.3067329 Eh     change       -0.9227868E-05 Eh
 * total energy  :   -31.3067500 Eh     change       -0.1702900E-04 Eh
 * total energy  :   -31.3067594 Eh     change       -0.9435837E-05 Eh
 * total energy  :   -31.3067693 Eh     change       -0.9934425E-05 Eh
 * total energy  :   -31.3067780 Eh     change       -0.8677470E-05 Eh
 * total energy  :   -31.3067833 Eh     change       -0.5277659E-05 Eh
 * total energy  :   -31.3067849 Eh     change       -0.1651661E-05 Eh
   *** GEOMETRY OPTIMIZATION CONVERGED AFTER 15 ITERATIONS ***

 final structure:
================
24
 xtb: 6.7.1 (edcfbbe)
C            0.98341898956700       -0.04147498497598        0.04292207448255
C            0.26972650022248       -0.19207544173266       -1.05545745928483
C           -1.23199311527149       -0.07833000868759       -1.09449184446434
N           -1.64019378566047        0.93578721800988       -2.04549549559146
C           -1.40467174286759        2.27012853242598       -1.91179562769388
C           -1.89573060120401        2.88079058549016       -3.02609284521548
N           -2.42192490543510        1.91073959859645       -3.82144492223048
C           -2.25038120048979        0.74060341136539       -3.20969017505873
C           -3.03479994517169        2.09521607446580       -5.12283471360752
C           -2.28223019536831        1.33890035788803       -6.18470078410877
C           -2.84726105329439        0.47190104292030       -7.00189590139321
H            0.53061791892703        0.17792244623364        0.99574559804319
H            2.05325504772176       -0.15012528316783        0.03734878566531
H            0.73767096899729       -0.42183894615047       -2.00241845504151
H           -1.67463930366650       -1.03009808482722       -1.39959913820741
H           -1.61283703589207        0.19039788686809       -0.10590270050172
H           -0.91347524979257        2.68250978076288       -1.05432758846291
H           -1.90562622416039        3.91762799157226       -3.29425849662996
H           -2.56195541513378       -0.20821082601425       -3.60188027624101
H           -4.07348821816361        1.75526079486324       -5.08385622295068
H           -3.02470949921719        3.16515413099668       -5.34632653221301
H           -1.22830766878821        1.56986291354920       -6.25274223739633
H           -2.28283048793224       -0.02993757903210       -7.76738378627381
H           -3.89914377792617        0.24240838858006       -6.95612125562416

          :  Hamiltonian                  GFN2-xTB          :
         :: total energy             -31.306784932740 Eh    ::
         :: gradient norm              0.000297931853 Eh/a0 ::
         :: HOMO-LUMO gap              3.855601676381 eV    ::
         :: SCC energy               -31.839955434945 Eh    ::
         :: -> dispersion             -0.017357993150 Eh    ::
         :: repulsion energy           0.533170502205 Eh    ::

    * Orbital Energies and Occupations

         #    Occupation            Energy/Eh            Energy/eV
      -------------------------------------------------------------
         1        2.0000           -0.8961988             -24.3868
       ...           ...                  ...                  ...
        17        2.0000           -0.6626166             -18.0307
        18        2.0000           -0.6604251             -17.9711
        19        2.0000           -0.6497751             -17.6813
        20        2.0000           -0.6482303             -17.6392
        21        2.0000           -0.6306873             -17.1619
        22        2.0000           -0.6090641             -16.5735
        23        2.0000           -0.6014032             -16.3650
        24        2.0000           -0.5999086             -16.3243
        25        2.0000           -0.5883864             -16.0108
        26        2.0000           -0.5702968             -15.5186
        27        2.0000           -0.5674829             -15.4420
        28        2.0000           -0.5510394             -14.9945
        29        2.0000           -0.5493827             -14.9495 (HOMO)
        30                         -0.4076920             -11.0939 (LUMO)
        31                         -0.3711047             -10.0983
        32                         -0.3490686              -9.4986
        33                         -0.3466537              -9.4329
        34                         -0.1784558              -4.8560
        35                         -0.1272484              -3.4626
        36                         -0.0565158              -1.5379
        37                         -0.0489567              -1.3322
        38                         -0.0350029              -0.9525
        39                         -0.0281227              -0.7653
        40                         -0.0233108              -0.6343
       ...                                ...                  ...
        57                          0.4870631              13.2537
      -------------------------------------------------------------
                  HL-Gap            0.1416908 Eh            3.8556 eV

     #   Z          covCN         q      C6AA      α(0)
     1   6 C        2.837    -0.077    29.915     8.963
     2   6 C        2.887    -0.040    28.990     8.827
     3   6 C        3.746    -0.026    21.115     6.554
     4   7 N        2.871     0.069    20.038     6.648
     5   6 C        3.073    -0.006    28.083     8.689
     6   6 C        3.072    -0.005    28.075     8.688
     7   7 N        2.871     0.067    20.077     6.655
     8   6 C        3.099     0.048    26.807     8.485
     9   6 C        3.746    -0.027    21.129     6.557
    10   6 C        2.886    -0.043    29.057     8.837
    11   6 C        2.837    -0.079    29.972     8.972
    12   1 H        0.926     0.069     2.095     2.264
    13   1 H        0.926     0.081     1.964     2.192
    14   1 H        0.926     0.057     2.229     2.335
    15   1 H        0.924     0.089     1.892     2.151
    16   1 H        0.924     0.097     1.814     2.106
    17   1 H        0.926     0.109     1.701     2.040
    18   1 H        0.926     0.108     1.714     2.047
    19   1 H        0.926     0.112     1.679     2.026
    20   1 H        0.924     0.093     1.851     2.128
    21   1 H        0.924     0.097     1.816     2.107
    22   1 H        0.926     0.059     2.210     2.325
    23   1 H        0.926     0.081     1.973     2.197
    24   1 H        0.926     0.068     2.111     2.272

Wiberg/Mayer (AO) data.
largest (>0.10) Wiberg bond orders for each atom

     #   Z sym  total        # sym  WBO       # sym  WBO       # sym  WBO
 ---------------------------------------------------------------------------
     1   6 C    3.982 --     2 C    1.988    12 H    0.971    13 H    0.970
     2   6 C    3.980 --     1 C    1.988     3 C    0.995    14 H    0.964
     3   6 C    3.936 --     2 C    0.995     4 N    0.960    15 H    0.957
                            16 H    0.955
     4   7 N    3.719 --     8 C    1.367     5 C    1.229     3 C    0.960
     5   6 C    3.948 --     6 C    1.588     4 N    1.229    17 H    0.961
     6   6 C    3.949 --     5 C    1.588     7 N    1.233    18 H    0.961
     7   7 N    3.715 --     8 C    1.358     6 C    1.233     9 C    0.959
     8   6 C    3.947 --     4 N    1.367     7 N    1.358    19 H    0.954
     9   6 C    3.936 --    10 C    0.999     7 N    0.959    21 H    0.955
                            20 H    0.954
    10   6 C    3.981 --    11 C    1.988     9 C    0.999    22 H    0.963
    11   6 C    3.983 --    10 C    1.988    24 H    0.971    23 H    0.970
    12   1 H    0.995 --     1 C    0.971
    13   1 H    0.992 --     1 C    0.970
    14   1 H    0.997 --     2 C    0.964
    15   1 H    0.992 --     3 C    0.957
    16   1 H    0.990 --     3 C    0.955
    17   1 H    0.988 --     5 C    0.961
    18   1 H    0.988 --     6 C    0.961
    19   1 H    0.987 --     8 C    0.954
    20   1 H    0.991 --     9 C    0.954
    21   1 H    0.990 --     9 C    0.955
    22   1 H    0.996 --    10 C    0.963
    23   1 H    0.993 --    11 C    0.970
    24   1 H    0.995 --    11 C    0.971
 ---------------------------------------------------------------------------

molecular dipole:
                 x           y           z       tot (Debye)
 q only:       -3.506       2.330      -5.677
   full:       -3.622       2.330      -5.676      18.111

           -------------------------------------------------
          | TOTAL ENERGY              -31.306784932740 Eh   |
          | GRADIENT NORM               0.000297931853 Eh/α |
          | HOMO-LUMO GAP               3.855601676381 eV   |
           -------------------------------------------------

 * finished run on 2024/12/20 at 07:12:42.938
