   * xtb version 6.7.1 (edcfbbe) compiled by 'conda@3ef47c1a292c' on 2024-11-25

   ID    Z sym.   atoms
    1    6 C      1-4, 6-10
    2   16 S      5
    3    1 H      11-29

          program call               : xtb C1143.xyz --opt --namespace C1143 --charge +1
          :  Hamiltonian                  GFN2-xTB          :
 * total energy  :   -31.7957271 Eh     change       -0.1816574E-09 Eh
 * total energy  :   -31.7985532 Eh     change       -0.2826105E-02 Eh
 * total energy  :   -31.7988684 Eh     change       -0.3152225E-03 Eh
 * total energy  :   -31.7989972 Eh     change       -0.1287799E-03 Eh
 * total energy  :   -31.7990526 Eh     change       -0.5544108E-04 Eh
 * total energy  :   -31.7990843 Eh     change       -0.3171244E-04 Eh
 * total energy  :   -31.7991365 Eh     change       -0.5214981E-04 Eh
 * total energy  :   -31.7991728 Eh     change       -0.3626296E-04 Eh
 * total energy  :   -31.7992265 Eh     change       -0.5377714E-04 Eh
 * total energy  :   -31.7992834 Eh     change       -0.5688466E-04 Eh
 * total energy  :   -31.8010798 Eh     change       -0.1028706E-04 Eh
 * total energy  :   -31.8010934 Eh     change       -0.1366331E-04 Eh
 * total energy  :   -31.8011025 Eh     change       -0.9082703E-05 Eh
 * total energy  :   -31.8011110 Eh     change       -0.8532364E-05 Eh
 * total energy  :   -31.8011197 Eh     change       -0.8673993E-05 Eh
 * total energy  :   -31.8011293 Eh     change       -0.9544670E-05 Eh
 * total energy  :   -31.8011362 Eh     change       -0.6897686E-05 Eh
 * total energy  :   -31.8011426 Eh     change       -0.6407194E-05 Eh
 * total energy  :   -31.8011470 Eh     change       -0.4436472E-05 Eh
   *** GEOMETRY OPTIMIZATION CONVERGED AFTER 47 ITERATIONS ***

 final structure:
================
29
 xtb: 6.7.1 (edcfbbe)
C            1.05815444558933       -1.19195216544146       -0.39354623885409
C            0.04003197055501       -0.79358908167930       -1.45357710096632
C            0.70051653103076       -0.02820879021352       -2.60603625525160
C            1.65305696119825       -0.88586793467509       -3.43008960356717
S            0.22817861230165       -1.90586956219897        1.07332081968450
C           -0.14572243251034       -3.59998839264720        0.49871106453236
C           -0.43892963505211       -4.48606249823976        1.69976310264903
C            0.78066323455830       -4.64649677225908        2.60434375041898
C            1.23144314987950       -3.31387579550075        3.19833664708878
C            1.66462633302912       -2.32866035261078        2.12325406325607
H            1.59138501653076       -0.31138191867117       -0.03324476810277
H            1.77240602147920       -1.92177266382364       -0.77112538508292
H           -0.45239068038975       -1.68064458065870       -1.85566596752489
H           -0.72071067998503       -0.15723830653184       -0.99779593917433
H           -0.09311665210518        0.34068062588170       -3.25630253225837
H            1.23186477051466        0.83898939031909       -2.21080196674098
H            1.15040410553624       -1.77897947108807       -3.79421544592263
H            1.99982779842285       -0.32246856759184       -4.29122641153485
H            2.52822088899871       -1.18313434170929       -2.85720101262166
H            0.71102607454239       -3.96589620197825       -0.06660397466907
H           -1.01403495749801       -3.52434671764882       -0.15365000590942
H           -0.74810265329931       -5.46493916651020        1.32994284854711
H           -1.27292280248417       -4.07134655946155        2.26907972877012
H            0.53072947905069       -5.32802673033941        3.41644145473216
H            1.60135474271585       -5.09558865408944        2.04103411196298
H            0.42553109095584       -2.87973639512176        3.79301633427622
H            2.07876907463899       -3.48118509071481        3.86496858382677
H            2.01355397782471       -1.39487218154592        2.56212442211331
H            2.44277621397294       -2.74928112324707        1.48697567631905

          :  Hamiltonian                  GFN2-xTB          :
         :: total energy             -31.801147000922 Eh    ::
         :: gradient norm              0.000304190707 Eh/a0 ::
         :: HOMO-LUMO gap              4.381730163341 eV    ::
         :: SCC energy               -32.238651867115 Eh    ::
         :: -> dispersion             -0.021000878652 Eh    ::
         :: repulsion energy           0.437504866193 Eh    ::

    * Orbital Energies and Occupations

         #    Occupation            Energy/Eh            Energy/eV
      -------------------------------------------------------------
         1        2.0000           -0.9283976             -25.2630
       ...           ...                  ...                  ...
        18        2.0000           -0.6411612             -17.4469
        19        2.0000           -0.6356516             -17.2970
        20        2.0000           -0.6228334             -16.9482
        21        2.0000           -0.6111192             -16.6294
        22        2.0000           -0.6104512             -16.6112
        23        2.0000           -0.6037676             -16.4294
        24        2.0000           -0.5946213             -16.1805
        25        2.0000           -0.5847519             -15.9119
        26        2.0000           -0.5809572             -15.8087
        27        2.0000           -0.5800522             -15.7840
        28        2.0000           -0.5648462             -15.3702
        29        2.0000           -0.5550051             -15.1025
        30        2.0000           -0.5478315             -14.9073 (HOMO)
        31                         -0.3868059             -10.5255 (LUMO)
        32                         -0.3825704             -10.4103
        33                         -0.2747206              -7.4755
        34                         -0.2034929              -5.5373
        35                         -0.1918610              -5.2208
        36                         -0.1436562              -3.9091
        37                         -0.0718372              -1.9548
        38                         -0.0658839              -1.7928
        39                         -0.0579729              -1.5775
        40                         -0.0503546              -1.3702
        41                         -0.0318554              -0.8668
       ...                                ...                  ...
        64                          0.2336509               6.3580
      -------------------------------------------------------------
                  HL-Gap            0.1610256 Eh            4.3817 eV

     #   Z          covCN         q      C6AA      α(0)
     1   6 C        3.795    -0.064    21.743     6.640
     2   6 C        3.833    -0.069    21.793     6.642
     3   6 C        3.801    -0.061    21.665     6.627
     4   6 C        3.751    -0.114    22.751     6.802
     5  16 S        3.025     0.310   129.055    19.120
     6   6 C        3.796    -0.061    21.685     6.631
     7   6 C        3.845    -0.073    21.860     6.651
     8   6 C        3.804    -0.075    21.929     6.667
     9   6 C        3.844    -0.073    21.858     6.650
    10   6 C        3.795    -0.063    21.708     6.635
    11   1 H        0.925     0.094     1.845     2.124
    12   1 H        0.925     0.087     1.904     2.158
    13   1 H        0.924     0.056     2.246     2.344
    14   1 H        0.924     0.058     2.218     2.329
    15   1 H        0.924     0.063     2.160     2.298
    16   1 H        0.924     0.049     2.336     2.390
    17   1 H        0.925     0.046     2.374     2.410
    18   1 H        0.925     0.060     2.197     2.318
    19   1 H        0.925     0.034     2.523     2.484
    20   1 H        0.925     0.088     1.903     2.157
    21   1 H        0.925     0.091     1.871     2.139
    22   1 H        0.924     0.084     1.938     2.177
    23   1 H        0.924     0.068     2.108     2.271
    24   1 H        0.925     0.075     2.029     2.228
    25   1 H        0.924     0.058     2.222     2.331
    26   1 H        0.924     0.068     2.103     2.268
    27   1 H        0.924     0.085     1.932     2.174
    28   1 H        0.925     0.091     1.869     2.138
    29   1 H        0.925     0.088     1.903     2.157

Wiberg/Mayer (AO) data.
largest (>0.10) Wiberg bond orders for each atom

     #   Z sym  total        # sym  WBO       # sym  WBO       # sym  WBO
 ---------------------------------------------------------------------------
     1   6 C    3.943 --     2 C    1.005    12 H    0.961    11 H    0.959
                             5 S    0.957
     2   6 C    3.982 --     1 C    1.005     3 C    0.993    13 H    0.974
                            14 H    0.973
     3   6 C    3.988 --     4 C    1.021     2 C    0.993    16 H    0.976
                            15 H    0.972
     4   6 C    3.993 --     3 C    1.021    17 H    0.986    19 H    0.986
                            18 H    0.984
     5  16 S    3.053 --     6 C    0.960    10 C    0.959     1 C    0.957
     6   6 C    3.950 --     7 C    1.009    21 H    0.963    20 H    0.963
                             5 S    0.960
     7   6 C    3.985 --     8 C    1.009     6 C    1.009    23 H    0.971
                            22 H    0.959
     8   6 C    3.991 --     7 C    1.009     9 C    1.009    25 H    0.974
                            24 H    0.971
     9   6 C    3.983 --     8 C    1.009    10 C    1.008    26 H    0.971
                            27 H    0.958
    10   6 C    3.948 --     9 C    1.008    28 H    0.964    29 H    0.963
                             5 S    0.959
    11   1 H    0.991 --     1 C    0.959
    12   1 H    0.992 --     1 C    0.961
    13   1 H    0.997 --     2 C    0.974
    14   1 H    0.997 --     2 C    0.973
    15   1 H    0.995 --     3 C    0.972
    16   1 H    0.998 --     3 C    0.976
    17   1 H    0.998 --     4 C    0.986
    18   1 H    0.996 --     4 C    0.984
    19   1 H    0.999 --     4 C    0.986
    20   1 H    0.992 --     6 C    0.963
    21   1 H    0.992 --     6 C    0.963
    22   1 H    0.993 --     7 C    0.959
    23   1 H    0.995 --     7 C    0.971
    24   1 H    0.994 --     8 C    0.971
    25   1 H    0.997 --     8 C    0.974
    26   1 H    0.995 --     9 C    0.971
    27   1 H    0.992 --     9 C    0.958
    28   1 H    0.992 --    10 C    0.964
    29   1 H    0.992 --    10 C    0.963
 ---------------------------------------------------------------------------

molecular dipole:
                 x           y           z       tot (Debye)
 q only:        1.254      -4.556       1.488
   full:        1.447      -4.586       1.388      12.722

           -------------------------------------------------
          | TOTAL ENERGY              -31.801147000922 Eh   |
          | GRADIENT NORM               0.000304190707 Eh/α |
          | HOMO-LUMO GAP               4.381730163341 eV   |
           -------------------------------------------------

 * finished run on 2024/12/20 at 07:12:41.765
