   * xtb version 6.7.1 (edcfbbe) compiled by 'conda@3ef47c1a292c' on 2024-11-25

   ID    Z sym.   atoms
    1    6 C      1-4, 7-11, 13, 15-22
    2    8 O      5, 6
    3    7 N      12, 14
    4   35 Br     23
    5    1 H      24-45

          program call               : xtb C1154.xyz --opt --namespace C1154 --charge +1
          :  Hamiltonian                  GFN2-xTB          :
 * total energy  :   -67.4753712 Eh     change       -0.1349733E-08 Eh
 * total energy  :   -67.4821254 Eh     change       -0.6754203E-02 Eh
 * total energy  :   -67.4832827 Eh     change       -0.1157303E-02 Eh
 * total energy  :   -67.4835584 Eh     change       -0.2756987E-03 Eh
 * total energy  :   -67.4837801 Eh     change       -0.2217782E-03 Eh
 * total energy  :   -67.4839064 Eh     change       -0.1262674E-03 Eh
 * total energy  :   -67.4840741 Eh     change       -0.1676500E-03 Eh
 * total energy  :   -67.4842842 Eh     change       -0.2101156E-03 Eh
 * total energy  :   -67.4845833 Eh     change       -0.2991714E-03 Eh
 * total energy  :   -67.4848448 Eh     change       -0.2614653E-03 Eh
 * total energy  :   -67.4866611 Eh     change       -0.4343479E-04 Eh
 * total energy  :   -67.4866740 Eh     change       -0.1285349E-04 Eh
 * total energy  :   -67.4866860 Eh     change       -0.1199241E-04 Eh
 * total energy  :   -67.4866937 Eh     change       -0.7762849E-05 Eh
 * total energy  :   -67.4867041 Eh     change       -0.1032012E-04 Eh
 * total energy  :   -67.4867031 Eh     change        0.9081134E-06 Eh
 * total energy  :   -67.4867088 Eh     change       -0.5625888E-05 Eh
 * total energy  :   -67.4867139 Eh     change       -0.5144263E-05 Eh
 * total energy  :   -67.4867174 Eh     change       -0.3503207E-05 Eh
   *** GEOMETRY OPTIMIZATION CONVERGED AFTER 29 ITERATIONS ***

 final structure:
================
45
 xtb: 6.7.1 (edcfbbe)
C            1.82120857708218       -0.68286994028697       -0.15836771797775
C            0.55932086455192       -0.96438936448587        0.64765939643174
C            0.68193352975440       -0.48717273823129        2.09145052827688
C           -0.50878854332364       -0.88732382211195        2.96082429598655
O           -1.25501698952987       -1.80156070562549        2.81637283019122
O           -0.64852183987346        0.02563939177167        3.95800660577850
C            0.38253827047981        0.99728280481320        3.86394905028582
C            0.75528738564819        1.02148317298853        2.37763076333768
C           -0.29389300635734        1.78339789014241        1.53601062181021
C           -0.63551087072834        3.11714408675772        2.09160360258884
C            0.05832970507507        4.29562929626460        2.04613710065798
N           -0.66050765812441        5.23394560003095        2.72031104697052
C           -1.77134401679883        4.65475793454504        3.16363077010729
N           -1.78063513001014        3.37248915805012        2.80412064242750
C           -2.82563142209129        2.42790348888466        3.10771628453251
C           -0.32138459318453        6.63889698393972        2.84785087611721
C           -1.03194532887390        7.44689007296961        1.78492603235648
C           -2.14139093084733        8.21793394541359        2.10763660431050
C           -2.79832022493739        8.94545752856256        1.13247411310540
C           -2.34696919775234        8.89259010882781       -0.17828271543692
C           -1.24185467328411        8.12364560443545       -0.51586790813334
C           -0.58977121363987        7.40467282492431        0.46725452411893
Br          -3.25040533448626        9.88096998617110       -1.52587337744786
H            2.01889298375485        0.38492811546357       -0.22662528106997
H            1.71255719904405       -1.07270810253454       -1.16613285837084
H            2.68307714953733       -1.16229298915873        0.29843200137547
H           -0.30380566907144       -0.50870471632295        0.16158811521101
H            0.37685586279151       -2.03955652892355        0.67725815507983
H            1.56372914434075       -0.96655217266603        2.53487289457880
H            1.23745442323291        0.67970690033776        4.47178247551074
H            0.00451536503490        1.93808278530998        4.26581560848595
H            1.74666472828536        1.44438145768062        2.22213160940926
H            0.09946290751080        1.90891166046741        0.52681073356624
H           -1.20052161905994        1.18077714639321        1.47542855455955
H            1.00170230344525        4.51196297105329        1.58877008699906
H           -2.54163737634019        5.14481339185334        3.72625778050519
H           -2.41696367234880        1.54149259148794        3.59673643176185
H           -3.55111830575841        2.89285146145931        3.77033427142328
H           -3.33388913595059        2.11915906399969        2.19315118906800
H           -0.61389747580840        6.98201287109693        3.84213102619854
H            0.76096833457958        6.73491891884776        2.74118388678891
H           -2.48918894715905        8.26959295893783        3.12867331937957
H           -3.65268254412876        9.55232734704070        1.38624547011079
H           -0.89442891218157        8.09537177229263       -1.53629159090134
H            0.27672589749722        6.81675978712210        0.20338214993789

          :  Hamiltonian                  GFN2-xTB          :
         :: total energy             -67.486717418102 Eh    ::
         :: gradient norm              0.000543858211 Eh/a0 ::
         :: HOMO-LUMO gap              2.379953941555 eV    ::
         :: SCC energy               -68.412284299890 Eh    ::
         :: -> dispersion             -0.046334047880 Eh    ::
         :: repulsion energy           0.925566881787 Eh    ::

    * Orbital Energies and Occupations

         #    Occupation            Energy/Eh            Energy/eV
      -------------------------------------------------------------
         1        2.0000           -0.9232334             -25.1225
       ...           ...                  ...                  ...
        49        2.0000           -0.5819572             -15.8359
        50        2.0000           -0.5668740             -15.4254
        51        2.0000           -0.5638113             -15.3421
        52        2.0000           -0.5587096             -15.2033
        53        2.0000           -0.5567240             -15.1492
        54        2.0000           -0.5550552             -15.1038
        55        2.0000           -0.5525431             -15.0355
        56        2.0000           -0.5408319             -14.7168
        57        2.0000           -0.5383289             -14.6487
        58        2.0000           -0.5325826             -14.4923
        59        2.0000           -0.5157715             -14.0349
        60        2.0000           -0.4990490             -13.5798
        61        2.0000           -0.4945482             -13.4573 (HOMO)
        62                         -0.4070865             -11.0774 (LUMO)
        63                         -0.3721439             -10.1266
        64                         -0.3622240              -9.8566
        65                         -0.3562853              -9.6950
        66                         -0.3355470              -9.1307
        67                         -0.2933100              -7.9814
        68                         -0.2388761              -6.5001
        69                         -0.1792301              -4.8771
        70                         -0.1399384              -3.8079
        71                         -0.1100317              -2.9941
        72                         -0.0879228              -2.3925
       ...                                ...                  ...
       119                          0.5856299              15.9358
      -------------------------------------------------------------
                  HL-Gap            0.0874617 Eh            2.3800 eV

     #   Z          covCN         q      C6AA      α(0)
     1   6 C        3.752    -0.112    22.698     6.794
     2   6 C        3.801    -0.061    21.679     6.629
     3   6 C        3.892    -0.057    21.535     6.597
     4   6 C        2.785     0.351    21.044     7.514
     5   8 O        0.856    -0.343    20.572     6.081
     6   8 O        1.706    -0.272    18.506     5.808
     7   6 C        3.785     0.065    19.514     6.292
     8   6 C        3.877    -0.029    21.044     6.523
     9   6 C        3.806    -0.077    21.969     6.672
    10   6 C        3.095     0.043    26.914     8.502
    11   6 C        3.078    -0.024    28.528     8.757
    12   7 N        2.858     0.059    20.214     6.678
    13   6 C        3.086     0.044    26.926     8.506
    14   7 N        2.867     0.056    20.266     6.686
    15   6 C        3.692    -0.085    22.316     6.760
    16   6 C        3.747    -0.028    21.141     6.558
    17   6 C        2.971    -0.004    28.127     8.699
    18   6 C        2.924    -0.035    28.869     8.811
    19   6 C        2.990    -0.030    28.734     8.793
    20   6 C        2.915     0.092    25.949     8.353
    21   6 C        2.990    -0.031    28.752     8.796
    22   6 C        2.925    -0.035    28.876     8.812
    23  35 Br       1.065    -0.119   188.322    22.127
    24   1 H        0.925     0.033     2.548     2.496
    25   1 H        0.925     0.056     2.242     2.342
    26   1 H        0.925     0.049     2.332     2.388
    27   1 H        0.924     0.043     2.413     2.429
    28   1 H        0.924     0.072     2.068     2.249
    29   1 H        0.924     0.079     1.994     2.208
    30   1 H        0.924     0.063     2.161     2.299
    31   1 H        0.924     0.048     2.349     2.397
    32   1 H        0.925     0.059     2.208     2.323
    33   1 H        0.924     0.089     1.888     2.149
    34   1 H        0.924     0.080     1.977     2.199
    35   1 H        0.926     0.099     1.798     2.097
    36   1 H        0.926     0.109     1.706     2.043
    37   1 H        0.924     0.121     1.605     1.981
    38   1 H        0.925     0.095     1.827     2.114
    39   1 H        0.924     0.101     1.774     2.083
    40   1 H        0.924     0.087     1.906     2.159
    41   1 H        0.924     0.093     1.847     2.125
    42   1 H        0.926     0.053     2.284     2.363
    43   1 H        0.926     0.078     2.003     2.213
    44   1 H        0.926     0.076     2.020     2.223
    45   1 H        0.926     0.049     2.326     2.385

Wiberg/Mayer (AO) data.
largest (>0.10) Wiberg bond orders for each atom

     #   Z sym  total        # sym  WBO       # sym  WBO       # sym  WBO
 ---------------------------------------------------------------------------
     1   6 C    3.994 --     2 C    1.019    24 H    0.987    26 H    0.986
                            25 H    0.985
     2   6 C    3.989 --     1 C    1.019     3 C    0.993    27 H    0.974
                            28 H    0.969
     3   6 C    3.988 --     2 C    0.993     8 C    0.978     4 C    0.946
                            29 H    0.934
     4   6 C    3.914 --     5 O    1.826     6 O    1.076     3 C    0.946
     5   8 O    2.112 --     4 C    1.826     6 O    0.159
     6   8 O    2.279 --     4 C    1.076     7 C    0.962     5 O    0.159
     7   6 C    3.939 --     8 C    0.988    31 H    0.969    30 H    0.966
                             6 O    0.962
     8   6 C    3.990 --     7 C    0.988     3 C    0.978    32 H    0.969
                             9 C    0.968
     9   6 C    3.984 --    10 C    1.028     8 C    0.968    34 H    0.961
                            33 H    0.955
    10   6 C    3.951 --    11 C    1.543    14 N    1.195     9 C    1.028
    11   6 C    3.942 --    10 C    1.543    12 N    1.222    35 H    0.962
    12   7 N    3.710 --    13 C    1.361    11 C    1.222    16 C    0.958
    13   6 C    3.945 --    12 N    1.361    14 N    1.354    36 H    0.954
    14   7 N    3.706 --    13 C    1.354    10 C    1.195    15 C    0.988
    15   6 C    3.930 --    14 N    0.988    38 H    0.975    39 H    0.960
                            37 H    0.954
    16   6 C    3.936 --    17 C    0.981    40 H    0.962    41 H    0.961
                            12 N    0.958
    17   6 C    3.979 --    18 C    1.410    22 C    1.405    16 C    0.981
    18   6 C    3.990 --    19 C    1.446    17 C    1.410    42 H    0.966
                            21 C    0.106
    19   6 C    3.987 --    18 C    1.446    20 C    1.401    43 H    0.965
                            22 C    0.107
    20   6 C    3.948 --    19 C    1.401    21 C    1.396    23 Br   1.020
    21   6 C    3.988 --    22 C    1.452    20 C    1.396    44 H    0.965
                            18 C    0.106
    22   6 C    3.991 --    21 C    1.452    17 C    1.405    45 H    0.966
                            19 C    0.107
    23  35 Br   1.173 --    20 C    1.020
    24   1 H    0.999 --     1 C    0.987
    25   1 H    0.996 --     1 C    0.985
    26   1 H    0.998 --     1 C    0.986
    27   1 H    0.998 --     2 C    0.974
    28   1 H    0.994 --     2 C    0.969
    29   1 H    0.992 --     3 C    0.934
    30   1 H    0.996 --     7 C    0.966
    31   1 H    0.997 --     7 C    0.969
    32   1 H    0.996 --     8 C    0.969
    33   1 H    0.992 --     9 C    0.955
    34   1 H    0.993 --     9 C    0.961
    35   1 H    0.990 --    11 C    0.962
    36   1 H    0.988 --    13 C    0.954
    37   1 H    0.985 --    15 C    0.954
    38   1 H    0.990 --    15 C    0.975
    39   1 H    0.989 --    15 C    0.960
    40   1 H    0.992 --    16 C    0.962
    41   1 H    0.990 --    16 C    0.961
    42   1 H    0.997 --    18 C    0.966
    43   1 H    0.993 --    19 C    0.965
    44   1 H    0.994 --    21 C    0.965
    45   1 H    0.998 --    22 C    0.966
 ---------------------------------------------------------------------------

molecular dipole:
                 x           y           z       tot (Debye)
 q only:       -0.944       8.378       4.606
   full:       -0.664       8.580       4.963      25.251

           -------------------------------------------------
          | TOTAL ENERGY              -67.486717418102 Eh   |
          | GRADIENT NORM               0.000543858211 Eh/α |
          | HOMO-LUMO GAP               2.379953941555 eV   |
           -------------------------------------------------

 * finished run on 2024/12/20 at 07:12:53.294
