   * xtb version 6.7.1 (edcfbbe) compiled by 'conda@3ef47c1a292c' on 2024-11-25

   ID    Z sym.   atoms
    1    6 C      1-9, 11, 13, 14, 16, 17
    2    8 O      10
    3    7 N      12, 15
    4    1 H      18-34

          program call               : xtb C1156.xyz --opt --namespace C1156 --charge +1
          :  Hamiltonian                  GFN2-xTB          :
 * total energy  :   -48.1660968 Eh     change       -0.6426006E-09 Eh
 * total energy  :   -48.1736501 Eh     change       -0.7553338E-02 Eh
 * total energy  :   -48.1755704 Eh     change       -0.1920343E-02 Eh
 * total energy  :   -48.1758938 Eh     change       -0.3233337E-03 Eh
 * total energy  :   -48.1760524 Eh     change       -0.1585887E-03 Eh
 * total energy  :   -48.1761365 Eh     change       -0.8414599E-04 Eh
 * total energy  :   -48.1761995 Eh     change       -0.6299459E-04 Eh
 * total energy  :   -48.1762704 Eh     change       -0.7087176E-04 Eh
 * total energy  :   -48.1763301 Eh     change       -0.5971645E-04 Eh
 * total energy  :   -48.1763824 Eh     change       -0.5228231E-04 Eh
 * total energy  :   -48.1894544 Eh     change       -0.4067895E-04 Eh
 * total energy  :   -48.1894784 Eh     change       -0.2393588E-04 Eh
 * total energy  :   -48.1894968 Eh     change       -0.1842590E-04 Eh
 * total energy  :   -48.1895082 Eh     change       -0.1139239E-04 Eh
 * total energy  :   -48.1895175 Eh     change       -0.9255551E-05 Eh
 * total energy  :   -48.1895311 Eh     change       -0.1362976E-04 Eh
 * total energy  :   -48.1895459 Eh     change       -0.1477425E-04 Eh
 * total energy  :   -48.1895524 Eh     change       -0.6499031E-05 Eh
 * total energy  :   -48.1895549 Eh     change       -0.2530977E-05 Eh
   *** GEOMETRY OPTIMIZATION CONVERGED AFTER 136 ITERATIONS ***

 final structure:
================
34
 xtb: 6.7.1 (edcfbbe)
C            1.44366229788569        2.10912244302487        2.07796474192894
C            0.88382642312877        1.01108939686499        1.24153912243056
C            1.18350442467167       -0.32183239643939        1.53642470156876
C            0.67383650638425       -1.33887489258520        0.76957621608467
C           -0.15238382600307       -1.07520467449334       -0.33873226780717
C           -0.45002993767485        0.27162162756621       -0.65652975145668
C            0.07106196652221        1.27451644523165        0.14915064690807
C           -1.30347807735555        0.64874439024590       -1.81735513302801
C           -0.67808656846926       -2.15139123386246       -1.15097714622020
O           -1.25985413297560       -2.04294119818969       -2.21045883416587
C           -0.46573296805707       -3.61072893256814       -0.61347349370097
N           -1.29594536579237       -4.47884358793831       -1.39000151578762
C           -2.40840831698364       -5.14475650663425       -0.96706602649007
C           -3.02620115119023       -5.64215530454685       -2.07164646352330
N           -2.29269298875746       -5.25989472184073       -3.15535712393498
C           -1.25759669599488       -4.54630052101647       -2.72119666770483
C           -2.60794272576679       -5.56641644035366       -4.52390426553657
H            0.99983245680581        3.06726367738337        1.82381616191827
H            1.27640420801156        1.90727125254323        3.13436308342673
H            2.52096618766232        2.17569181116663        1.92606813840716
H            1.82210753079556       -0.54942014524254        2.37625223038127
H            0.94031100510433       -2.35226452315177        1.02360410801957
H           -0.16376282560985        2.30143341196585       -0.08991153551230
H           -1.47598890921088        1.72098637748500       -1.83279403265951
H           -0.82362616986609        0.35532930512231       -2.75014829736540
H           -2.26226518194925        0.13409688458886       -1.78250151407248
H            0.58803043529714       -3.87074361238655       -0.74240795551681
H           -0.74403792018364       -3.68932327598053        0.43637816518047
H           -2.67565912184895       -5.22325825281136        0.06674407238828
H           -3.91899518766808       -6.22683403862646       -2.15791903016782
H           -0.49552760295716       -4.12056447670494       -3.34299893585195
H           -1.84108556221589       -5.15931320471243       -5.17855470980122
H           -2.66427345118335       -6.64642476196908       -4.66375435212400
H           -3.57079875458853       -5.13019032112263       -4.79254233619244

          :  Hamiltonian                  GFN2-xTB          :
         :: total energy             -48.189554888764 Eh    ::
         :: gradient norm              0.000280118353 Eh/a0 ::
         :: HOMO-LUMO gap              2.861861928119 eV    ::
         :: SCC energy               -48.954150073823 Eh    ::
         :: -> dispersion             -0.030501187105 Eh    ::
         :: repulsion energy           0.764595185059 Eh    ::

    * Orbital Energies and Occupations

         #    Occupation            Energy/Eh            Energy/eV
      -------------------------------------------------------------
         1        2.0000           -0.8788880             -23.9158
       ...           ...                  ...                  ...
        32        2.0000           -0.5942335             -16.1699
        33        2.0000           -0.5871332             -15.9767
        34        2.0000           -0.5786467             -15.7458
        35        2.0000           -0.5783937             -15.7389
        36        2.0000           -0.5713008             -15.5459
        37        2.0000           -0.5590018             -15.2112
        38        2.0000           -0.5566552             -15.1474
        39        2.0000           -0.5499511             -14.9649
        40        2.0000           -0.5477711             -14.9056
        41        2.0000           -0.5264374             -14.3251
        42        2.0000           -0.5149459             -14.0124
        43        2.0000           -0.5077173             -13.8157
        44        2.0000           -0.5030920             -13.6898 (HOMO)
        45                         -0.3979206             -10.8280 (LUMO)
        46                         -0.3878548             -10.5541
        47                         -0.3564035              -9.6982
        48                         -0.3284317              -8.9371
        49                         -0.3022276              -8.2240
        50                         -0.1973208              -5.3694
        51                         -0.1643041              -4.4709
        52                         -0.1149601              -3.1282
        53                         -0.0845424              -2.3005
        54                         -0.0379013              -1.0313
        55                         -0.0341720              -0.9299
       ...                                ...                  ...
        85                          0.5623153              15.3014
      -------------------------------------------------------------
                  HL-Gap            0.1051715 Eh            2.8619 eV

     #   Z          covCN         q      C6AA      α(0)
     1   6 C        3.759    -0.121    22.868     6.818
     2   6 C        2.964     0.045    26.994     8.522
     3   6 C        2.921    -0.037    28.921     8.819
     4   6 C        2.918    -0.034    28.835     8.806
     5   6 C        2.970    -0.034    28.849     8.810
     6   6 C        2.965     0.045    26.989     8.521
     7   6 C        2.928    -0.044    29.091     8.845
     8   6 C        3.759    -0.118    22.811     6.809
     9   6 C        2.819     0.223    23.306     7.910
    10   8 O        0.857    -0.373    21.154     6.167
    11   6 C        3.743    -0.051    21.560     6.624
    12   7 N        2.872     0.071    19.996     6.641
    13   6 C        3.066    -0.008    28.158     8.701
    14   6 C        3.070    -0.009    28.176     8.704
    15   7 N        2.866     0.075    19.939     6.632
    16   6 C        3.094     0.059    26.567     8.448
    17   6 C        3.692    -0.084    22.302     6.757
    18   1 H        0.925     0.062     2.177     2.307
    19   1 H        0.925     0.069     2.095     2.263
    20   1 H        0.925     0.074     2.044     2.236
    21   1 H        0.926     0.056     2.242     2.341
    22   1 H        0.926     0.038     2.472     2.458
    23   1 H        0.926     0.059     2.205     2.322
    24   1 H        0.925     0.059     2.207     2.323
    25   1 H        0.925     0.079     1.993     2.208
    26   1 H        0.925     0.072     2.058     2.244
    27   1 H        0.924     0.096     1.823     2.112
    28   1 H        0.925     0.096     1.818     2.109
    29   1 H        0.926     0.101     1.773     2.082
    30   1 H        0.926     0.106     1.734     2.059
    31   1 H        0.926     0.120     1.610     1.984
    32   1 H        0.925     0.099     1.797     2.096
    33   1 H        0.924     0.102     1.765     2.077
    34   1 H        0.924     0.106     1.733     2.059

Wiberg/Mayer (AO) data.
largest (>0.10) Wiberg bond orders for each atom

     #   Z sym  total        # sym  WBO       # sym  WBO       # sym  WBO
 ---------------------------------------------------------------------------
     1   6 C    3.989 --     2 C    1.043    18 H    0.982    19 H    0.965
                            20 H    0.954
     2   6 C    3.982 --     7 C    1.414     3 C    1.346     1 C    1.043
     3   6 C    3.990 --     4 C    1.516     2 C    1.346    21 H    0.967
     4   6 C    3.991 --     3 C    1.516     5 C    1.318    22 H    0.965
     5   6 C    3.978 --     4 C    1.318     6 C    1.299     9 C    1.125
     6   6 C    3.980 --     7 C    1.423     5 C    1.299     8 C    1.048
     7   6 C    3.988 --     6 C    1.423     2 C    1.414    23 H    0.963
     8   6 C    3.992 --     6 C    1.048    24 H    0.981    26 H    0.958
                            25 H    0.953
     9   6 C    3.930 --    10 O    1.767     5 C    1.125    11 C    0.905
    10   8 O    2.096 --     9 C    1.767
    11   6 C    3.943 --    12 N    0.998    28 H    0.960    27 H    0.945
                             9 C    0.905
    12   7 N    3.707 --    16 C    1.340    13 C    1.212    11 C    0.998
    13   6 C    3.948 --    14 C    1.603    12 N    1.212    29 H    0.962
    14   6 C    3.949 --    13 C    1.603    15 N    1.218    30 H    0.962
    15   7 N    3.713 --    16 C    1.356    14 C    1.218    17 C    0.992
    16   6 C    3.944 --    15 N    1.356    12 N    1.340    31 H    0.952
    17   6 C    3.936 --    15 N    0.992    32 H    0.976    33 H    0.965
                            34 H    0.962
    18   1 H    0.996 --     1 C    0.982
    19   1 H    0.992 --     1 C    0.965
    20   1 H    0.990 --     1 C    0.954
    21   1 H    0.996 --     3 C    0.967
    22   1 H    0.998 --     4 C    0.965
    23   1 H    0.996 --     7 C    0.963
    24   1 H    0.996 --     8 C    0.981
    25   1 H    0.993 --     8 C    0.953
    26   1 H    0.994 --     8 C    0.958
    27   1 H    0.990 --    11 C    0.945
    28   1 H    0.990 --    11 C    0.960
    29   1 H    0.989 --    13 C    0.962
    30   1 H    0.989 --    14 C    0.962
    31   1 H    0.986 --    16 C    0.952
    32   1 H    0.990 --    17 C    0.976
    33   1 H    0.989 --    17 C    0.965
    34   1 H    0.988 --    17 C    0.962
 ---------------------------------------------------------------------------

molecular dipole:
                 x           y           z       tot (Debye)
 q only:       -2.336      -6.974      -2.906
   full:       -2.197      -7.113      -2.776      20.194

           -------------------------------------------------
          | TOTAL ENERGY              -48.189554888764 Eh   |
          | GRADIENT NORM               0.000280118353 Eh/α |
          | HOMO-LUMO GAP               2.861861928119 eV   |
           -------------------------------------------------

 * finished run on 2024/12/20 at 07:12:56.348
