   * xtb version 6.7.1 (edcfbbe) compiled by 'conda@3ef47c1a292c' on 2024-11-25

   ID    Z sym.   atoms
    1    6 C      1-7, 9-14, 17, 19, 20
    2    7 N      8, 16
    3    8 O      15, 18, 21
    4    1 H      22-36

          program call               : xtb C1151.xyz --opt --namespace C1151 --charge +1
          :  Hamiltonian                  GFN2-xTB          :
 * total energy  :   -59.5755498 Eh     change       -0.1183757E-08 Eh
 * total energy  :   -59.5844860 Eh     change       -0.8936214E-02 Eh
 * total energy  :   -59.5866380 Eh     change       -0.2151939E-02 Eh
 * total energy  :   -59.5871594 Eh     change       -0.5214443E-03 Eh
 * total energy  :   -59.5875251 Eh     change       -0.3657291E-03 Eh
 * total energy  :   -59.5877527 Eh     change       -0.2275210E-03 Eh
 * total energy  :   -59.5879722 Eh     change       -0.2195693E-03 Eh
 * total energy  :   -59.5881312 Eh     change       -0.1589483E-03 Eh
 * total energy  :   -59.5882267 Eh     change       -0.9553783E-04 Eh
 * total energy  :   -59.5882764 Eh     change       -0.4970179E-04 Eh
 * total energy  :   -59.5885968 Eh     change       -0.3831867E-04 Eh
 * total energy  :   -59.5886198 Eh     change       -0.2294706E-04 Eh
 * total energy  :   -59.5886418 Eh     change       -0.2204466E-04 Eh
 * total energy  :   -59.5886612 Eh     change       -0.1940312E-04 Eh
 * total energy  :   -59.5886850 Eh     change       -0.2378533E-04 Eh
 * total energy  :   -59.5887014 Eh     change       -0.1640130E-04 Eh
 * total energy  :   -59.5887111 Eh     change       -0.9717516E-05 Eh
 * total energy  :   -59.5887200 Eh     change       -0.8837545E-05 Eh
 * total energy  :   -59.5887243 Eh     change       -0.4323517E-05 Eh
   *** GEOMETRY OPTIMIZATION CONVERGED AFTER 24 ITERATIONS ***

 final structure:
================
36
 xtb: 6.7.1 (edcfbbe)
C           -0.13331781000375       -0.04203654777161        0.55256307496184
C            0.20830777425319        1.43326499416987        0.57157355463589
C            1.41070228134911        1.86873445000681        0.02696245724520
C            1.73290357296848        3.21395195686065        0.04343879016912
C            0.85763544767487        4.13001546683646        0.60393018309055
C           -0.34162734759911        3.69965874403021        1.14521248229306
C           -0.67003118460782        2.35451780254001        1.12436662301967
N           -0.24341519937392       -0.51694099572727       -0.81940227701468
C            0.63199539761133       -1.38954030678400       -1.31016474739883
C            0.53259720798518       -1.84391041934580       -2.61762389630469
C           -0.46446674178499       -1.33084599116687       -3.43666117599239
C           -1.35863552805213       -0.40764078770064       -2.90365333164382
C           -1.23140479081327       -0.03232363162928       -1.58659168289839
C            1.48419457584498       -2.87423313424872       -3.16570467659558
O            2.15395552858557       -2.68007341126487       -4.14369908504751
N            1.50481233384842       -4.06695343668932       -2.48610454731033
C            0.67267479217961       -4.48577619505009       -1.43382033420601
O            0.88778997479910       -5.75645321846961       -1.18258048285100
C            1.88020657852606       -6.31820403923476       -2.03873345491349
C            2.32860854583570       -5.17216301308780       -2.95574672032128
O           -0.10193167910140       -3.78236216403435       -0.84796745864595
H           -1.08649397552930       -0.21253957851019        1.05901425468395
H            0.63683116880077       -0.62139285092532        1.06569408269247
H            2.10104441775208        1.15710331559399       -0.40424455383242
H            2.66949779395056        3.54555530503173       -0.37646422446177
H            1.11304860450658        5.17770430477227        0.62195798752880
H           -1.02372237870469        4.40919487005347        1.58624521362603
H           -1.60282715473220        2.02244313399201        1.55630500029930
H            1.41774619233114       -1.73051455969573       -0.65251144351568
H           -0.54227114077202       -1.65415362962746       -4.46345877754865
H           -2.15302933086088        0.00321298470641       -3.50577878468831
H           -1.90919920222277        0.66921780236421       -1.12243937887285
H            1.42593650874492       -7.14981889456397       -2.58168722402131
H            2.68743735580463       -6.70110998029743       -1.41008566858646
H            2.13064641494792       -5.36455392109041       -4.01295889867407
H            3.38654099585501       -4.92458442404239       -2.84233087890232

          :  Hamiltonian                  GFN2-xTB          :
         :: total energy             -59.588724297415 Eh    ::
         :: gradient norm              0.000726741674 Eh/a0 ::
         :: HOMO-LUMO gap              1.983206154337 eV    ::
         :: SCC energy               -60.451609473492 Eh    ::
         :: -> dispersion             -0.037009276058 Eh    ::
         :: repulsion energy           0.862885176077 Eh    ::

    * Orbital Energies and Occupations

         #    Occupation            Energy/Eh            Energy/eV
      -------------------------------------------------------------
         1        2.0000           -0.8914870             -24.2586
       ...           ...                  ...                  ...
        41        2.0000           -0.6094341             -16.5835
        42        2.0000           -0.6032747             -16.4159
        43        2.0000           -0.5944744             -16.1765
        44        2.0000           -0.5939400             -16.1619
        45        2.0000           -0.5919479             -16.1077
        46        2.0000           -0.5811969             -15.8152
        47        2.0000           -0.5684176             -15.4674
        48        2.0000           -0.5577135             -15.1762
        49        2.0000           -0.5537945             -15.0695
        50        2.0000           -0.5421527             -14.7527
        51        2.0000           -0.5375940             -14.6287
        52        2.0000           -0.5228017             -14.2262
        53        2.0000           -0.5222793             -14.2119 (HOMO)
        54                         -0.4493978             -12.2287 (LUMO)
        55                         -0.4305562             -11.7160
        56                         -0.3854513             -10.4887
        57                         -0.3476043              -9.4588
        58                         -0.3404697              -9.2647
        59                         -0.3268367              -8.8937
        60                         -0.2973167              -8.0904
        61                         -0.2177422              -5.9251
        62                         -0.1679192              -4.5693
        63                         -0.1443264              -3.9273
        64                         -0.1122755              -3.0552
       ...                                ...                  ...
        99                          0.5459616              14.8564
      -------------------------------------------------------------
                  HL-Gap            0.0728815 Eh            1.9832 eV

     #   Z          covCN         q      C6AA      α(0)
     1   6 C        3.765    -0.039    21.319     6.581
     2   6 C        2.972    -0.002    28.082     8.692
     3   6 C        2.923    -0.037    28.931     8.821
     4   6 C        2.919    -0.021    28.531     8.759
     5   6 C        2.920    -0.019    28.478     8.751
     6   6 C        2.920    -0.020    28.513     8.756
     7   6 C        2.922    -0.035    28.882     8.813
     8   7 N        2.751     0.124    19.131     6.496
     9   6 C        2.892     0.050    26.883     8.501
    10   6 C        2.971     0.016    27.651     8.625
    11   6 C        2.928     0.014    27.697     8.631
    12   6 C        2.915    -0.009    28.239     8.714
    13   6 C        2.895     0.033    27.253     8.559
    14   6 C        2.760     0.284    22.191     7.714
    15   8 O        0.859    -0.339    20.497     6.070
    16   7 N        2.755    -0.125    23.706     7.231
    17   6 C        2.724     0.416    19.993     7.320
    18   8 O        1.709    -0.211    17.504     5.649
    19   6 C        3.759     0.054    19.710     6.329
    20   6 C        3.769    -0.007    20.731     6.489
    21   8 O        0.857    -0.413    21.942     6.280
    22   1 H        0.924     0.102     1.771     2.081
    23   1 H        0.924     0.094     1.839     2.121
    24   1 H        0.926     0.031     2.568     2.506
    25   1 H        0.926     0.058     2.225     2.333
    26   1 H        0.926     0.062     2.170     2.304
    27   1 H        0.926     0.061     2.183     2.310
    28   1 H        0.926     0.046     2.374     2.409
    29   1 H        0.926     0.110     1.700     2.039
    30   1 H        0.926     0.110     1.693     2.035
    31   1 H        0.926     0.112     1.679     2.026
    32   1 H        0.926     0.115     1.657     2.013
    33   1 H        0.924     0.098     1.802     2.099
    34   1 H        0.924     0.098     1.806     2.102
    35   1 H        0.924     0.096     1.823     2.111
    36   1 H        0.924     0.093     1.847     2.125

Wiberg/Mayer (AO) data.
largest (>0.10) Wiberg bond orders for each atom

     #   Z sym  total        # sym  WBO       # sym  WBO       # sym  WBO
 ---------------------------------------------------------------------------
     1   6 C    3.927 --     2 C    0.974    23 H    0.959     8 N    0.953
                            22 H    0.951
     2   6 C    3.974 --     7 C    1.417     3 C    1.409     1 C    0.974
                             5 C    0.108
     3   6 C    3.992 --     4 C    1.447     2 C    1.409    24 H    0.969
                             6 C    0.112
     4   6 C    3.990 --     3 C    1.447     5 C    1.435    25 H    0.969
                             7 C    0.110
     5   6 C    3.988 --     6 C    1.443     4 C    1.435    26 H    0.968
                             2 C    0.108
     6   6 C    3.988 --     5 C    1.443     7 C    1.437    27 H    0.968
                             3 C    0.112
     7   6 C    3.989 --     6 C    1.437     2 C    1.417    28 H    0.967
                             4 C    0.110
     8   7 N    3.771 --     9 C    1.355    13 C    1.305     1 C    0.953
     9   6 C    3.958 --    10 C    1.398     8 N    1.355    29 H    0.952
    10   6 C    3.986 --    11 C    1.418     9 C    1.398    14 C    0.953
    11   6 C    3.969 --    10 C    1.418    12 C    1.400    30 H    0.959
    12   6 C    3.980 --    13 C    1.483    11 C    1.400    31 H    0.958
    13   6 C    3.955 --    12 C    1.483     8 N    1.305    32 H    0.953
    14   6 C    3.956 --    15 O    1.769    16 N    1.151    10 C    0.953
    15   8 O    2.097 --    14 C    1.769    16 N    0.162
    16   7 N    3.533 --    14 C    1.151    17 C    1.040    20 C    0.972
                            15 O    0.162    21 O    0.113
    17   6 C    3.941 --    21 O    1.671    18 O    1.164    16 N    1.040
    18   8 O    2.359 --    17 C    1.164    19 C    0.941    21 O    0.152
    19   6 C    3.911 --    20 C    0.998    33 H    0.965    34 H    0.965
                            18 O    0.941
    20   6 C    3.949 --    19 C    0.998    16 N    0.972    36 H    0.964
                            35 H    0.964
    21   8 O    2.042 --    17 C    1.671    18 O    0.152    16 N    0.113
    22   1 H    0.989 --     1 C    0.951
    23   1 H    0.991 --     1 C    0.959
    24   1 H    0.999 --     3 C    0.969
    25   1 H    0.996 --     4 C    0.969
    26   1 H    0.995 --     5 C    0.968
    27   1 H    0.995 --     6 C    0.968
    28   1 H    0.998 --     7 C    0.967
    29   1 H    0.988 --     9 C    0.952
    30   1 H    0.988 --    11 C    0.959
    31   1 H    0.987 --    12 C    0.958
    32   1 H    0.986 --    13 C    0.953
    33   1 H    0.990 --    19 C    0.965
    34   1 H    0.990 --    19 C    0.965
    35   1 H    0.991 --    20 C    0.964
    36   1 H    0.991 --    20 C    0.964
 ---------------------------------------------------------------------------

molecular dipole:
                 x           y           z       tot (Debye)
 q only:        0.550      -2.144      -2.652
   full:        0.575      -2.362      -2.622       9.088

           -------------------------------------------------
          | TOTAL ENERGY              -59.588724297415 Eh   |
          | GRADIENT NORM               0.000726741674 Eh/α |
          | HOMO-LUMO GAP               1.983206154337 eV   |
           -------------------------------------------------

 * finished run on 2024/12/20 at 07:12:47.730
