   * xtb version 6.7.1 (edcfbbe) compiled by 'conda@3ef47c1a292c' on 2024-11-25

   ID    Z sym.   atoms
    1    6 C      1-6, 8-13, 15-17
    2    7 N      7, 14
    3    1 H      18-46

          program call               : xtb C1152.xyz --opt --namespace C1152 --charge +1
          :  Hamiltonian                  GFN2-xTB          :
 * total energy  :   -52.4281255 Eh     change       -0.1242810E-09 Eh
 * total energy  :   -52.4331877 Eh     change       -0.5062189E-02 Eh
 * total energy  :   -52.4341201 Eh     change       -0.9324238E-03 Eh
 * total energy  :   -52.4342707 Eh     change       -0.1505994E-03 Eh
 * total energy  :   -52.4343766 Eh     change       -0.1059091E-03 Eh
 * total energy  :   -52.4344325 Eh     change       -0.5588048E-04 Eh
 * total energy  :   -52.4345092 Eh     change       -0.7666428E-04 Eh
 * total energy  :   -52.4346037 Eh     change       -0.9451059E-04 Eh
 * total energy  :   -52.4347115 Eh     change       -0.1077533E-03 Eh
 * total energy  :   -52.4348382 Eh     change       -0.1267311E-03 Eh
 * total energy  :   -52.4401747 Eh     change       -0.7418254E-04 Eh
 * total energy  :   -52.4401900 Eh     change       -0.1527605E-04 Eh
 * total energy  :   -52.4402031 Eh     change       -0.1313861E-04 Eh
 * total energy  :   -52.4402138 Eh     change       -0.1068030E-04 Eh
 * total energy  :   -52.4402266 Eh     change       -0.1279749E-04 Eh
 * total energy  :   -52.4402331 Eh     change       -0.6512761E-05 Eh
 * total energy  :   -52.4402392 Eh     change       -0.6105704E-05 Eh
 * total energy  :   -52.4402447 Eh     change       -0.5421937E-05 Eh
 * total energy  :   -52.4402486 Eh     change       -0.3948432E-05 Eh
   *** GEOMETRY OPTIMIZATION CONVERGED AFTER 75 ITERATIONS ***

 final structure:
================
46
 xtb: 6.7.1 (edcfbbe)
C            1.32451576112798       -0.78597641659890       -0.62184649746776
C            0.00373161275657       -1.54539100754857       -0.59790428916843
C            0.09420849922163       -2.91041607488195        0.08851784276814
C            0.51072623711598       -2.86501052893770        1.56142733033431
C           -0.50248704256034       -2.18144315586203        2.48168368096256
C           -1.73377415492364       -3.04532393906392        2.77927613848717
N           -1.40593769628139       -4.24428838404986        3.54215956680836
C           -1.67444150250109       -5.49044080976283        3.18079361206525
C           -2.49380979162774       -5.78659628106952        1.96076080600805
C           -1.64231843806744       -6.26238007429374        0.77098649610998
C           -1.33482847435999       -7.75374804719088        0.83972920272631
C           -0.57086960658374       -8.14429236475151        2.10099422321970
C           -1.35654211964002       -7.89855782790658        3.39181878980264
N           -1.24125322339804       -6.53057076128989        3.88130979431913
C           -0.56999982765322       -6.37380656386885        5.16129517314590
C           -1.00582557410665       -5.06997875376129        5.80253380028700
C           -0.73742296583132       -3.95836639644620        4.80562572109790
H            1.62228213364977       -0.47232560400341        0.37548493142520
H            1.22807371056845        0.10524585433178       -1.23595350043676
H            2.11360227960625       -1.40481241689710       -1.04237980062309
H           -0.76024938739629       -0.93017206680133       -0.11858591600936
H           -0.32190009058829       -1.71513078569551       -1.62608558559102
H           -0.87305301791935       -3.40902960934140       -0.01107888832057
H            0.82862628607058       -3.51422159559904       -0.44918403655303
H            0.68700779822329       -3.88662155725136        1.91216597274044
H            1.45996384269470       -2.33566408531260        1.63603091588292
H           -0.01287606531955       -1.88667260060134        3.40947334354910
H           -0.85978670012516       -1.26746169800040        2.00858885334665
H           -2.45351250606649       -2.46010043590564        3.36131094616447
H           -2.19098034048376       -3.30518297893738        1.82988116960362
H           -3.07562107690229       -4.91468110830063        1.67409703805154
H           -3.21449922011994       -6.56816593380069        2.20920535048493
H           -0.71225384683154       -5.69420140647317        0.73076947336157
H           -2.19207322997239       -6.06291750545387       -0.14886116929616
H           -2.26787356444851       -8.31904024020564        0.79508466120143
H           -0.74334255453379       -8.03247871874453       -0.03251900215852
H           -0.33819909883490       -9.20798198475796        2.04774088814052
H            0.37609903699627       -7.60301078115851        2.14755237654348
H           -0.95893083128256       -8.54475113147400        4.17388787241827
H           -2.40708405510676       -8.16832041709088        3.24885982815797
H            0.51585492758842       -6.39262544363751        5.01745081826631
H           -0.84226851865052       -7.21726722609411        5.79859248451907
H           -0.45436538691793       -4.89445438846300        6.72378831984609
H           -2.07036203888151       -5.11139891233586        6.03973359524277
H            0.33953226586886       -3.85746613697505        4.63980745797613
H           -1.11865244358054       -3.00721169776426        5.18157021054144

          :  Hamiltonian                  GFN2-xTB          :
         :: total energy             -52.440248599855 Eh    ::
         :: gradient norm              0.000286482288 Eh/a0 ::
         :: HOMO-LUMO gap              3.426840843286 eV    ::
         :: SCC energy               -53.192678186485 Eh    ::
         :: -> dispersion             -0.040851698732 Eh    ::
         :: repulsion energy           0.752429586630 Eh    ::

    * Orbital Energies and Occupations

         #    Occupation            Energy/Eh            Energy/eV
      -------------------------------------------------------------
         1        2.0000           -0.8450101             -22.9939
       ...           ...                  ...                  ...
        37        2.0000           -0.5809320             -15.8080
        38        2.0000           -0.5791764             -15.7602
        39        2.0000           -0.5756432             -15.6640
        40        2.0000           -0.5632564             -15.3270
        41        2.0000           -0.5599588             -15.2373
        42        2.0000           -0.5572935             -15.1647
        43        2.0000           -0.5561195             -15.1328
        44        2.0000           -0.5515656             -15.0089
        45        2.0000           -0.5435564             -14.7909
        46        2.0000           -0.5325197             -14.4906
        47        2.0000           -0.5221014             -14.2071
        48        2.0000           -0.5161401             -14.0449
        49        2.0000           -0.5106980             -13.8968 (HOMO)
        50                         -0.3847639             -10.4700 (LUMO)
        51                         -0.1825440              -4.9673
        52                         -0.1546339              -4.2078
        53                         -0.1141186              -3.1053
        54                         -0.0705285              -1.9192
        55                         -0.0608360              -1.6554
        56                         -0.0528705              -1.4387
        57                         -0.0488231              -1.3285
        58                         -0.0390703              -1.0632
        59                         -0.0320455              -0.8720
        60                         -0.0252932              -0.6883
       ...                                ...                  ...
        97                          0.3594505               9.7811
      -------------------------------------------------------------
                  HL-Gap            0.1259341 Eh            3.4268 eV

     #   Z          covCN         q      C6AA      α(0)
     1   6 C        3.751    -0.108    22.621     6.783
     2   6 C        3.799    -0.056    21.591     6.616
     3   6 C        3.800    -0.062    21.692     6.631
     4   6 C        3.800    -0.061    21.680     6.629
     5   6 C        3.801    -0.073    21.887     6.661
     6   6 C        3.747    -0.022    21.033     6.541
     7   7 N        2.740    -0.022    21.670     6.914
     8   6 C        2.838     0.145    24.847     8.169
     9   6 C        3.809    -0.081    22.042     6.683
    10   6 C        3.802    -0.061    21.668     6.627
    11   6 C        3.803    -0.070    21.836     6.653
    12   6 C        3.802    -0.070    21.846     6.654
    13   6 C        3.748    -0.021    21.022     6.539
    14   7 N        2.744    -0.025    21.732     6.924
    15   6 C        3.757    -0.018    20.953     6.526
    16   6 C        3.808    -0.076    21.945     6.669
    17   6 C        3.762    -0.019    20.952     6.525
    18   1 H        0.925     0.035     2.511     2.478
    19   1 H        0.925     0.045     2.389     2.417
    20   1 H        0.925     0.041     2.442     2.444
    21   1 H        0.924     0.030     2.585     2.514
    22   1 H        0.924     0.040     2.452     2.449
    23   1 H        0.924     0.023     2.687     2.563
    24   1 H        0.924     0.040     2.446     2.446
    25   1 H        0.924     0.019     2.755     2.596
    26   1 H        0.925     0.056     2.252     2.347
    27   1 H        0.925     0.047     2.362     2.404
    28   1 H        0.925     0.071     2.079     2.255
    29   1 H        0.924     0.064     2.148     2.292
    30   1 H        0.925     0.078     1.997     2.210
    31   1 H        0.925     0.071     2.070     2.250
    32   1 H        0.924     0.083     1.948     2.183
    33   1 H        0.924     0.054     2.275     2.359
    34   1 H        0.925     0.063     2.163     2.300
    35   1 H        0.924     0.051     2.305     2.374
    36   1 H        0.925     0.061     2.182     2.310
    37   1 H        0.925     0.067     2.119     2.276
    38   1 H        0.924     0.052     2.291     2.367
    39   1 H        0.925     0.075     2.034     2.230
    40   1 H        0.924     0.073     2.049     2.238
    41   1 H        0.924     0.074     2.044     2.236
    42   1 H        0.924     0.080     1.981     2.201
    43   1 H        0.925     0.082     1.957     2.188
    44   1 H        0.924     0.066     2.127     2.281
    45   1 H        0.924     0.077     2.008     2.216
    46   1 H        0.924     0.083     1.952     2.185

Wiberg/Mayer (AO) data.
largest (>0.10) Wiberg bond orders for each atom

     #   Z sym  total        # sym  WBO       # sym  WBO       # sym  WBO
 ---------------------------------------------------------------------------
     1   6 C    3.995 --     2 C    1.021    20 H    0.987    19 H    0.986
                            18 H    0.986
     2   6 C    3.997 --     1 C    1.021     3 C    1.007    22 H    0.977
                            21 H    0.974
     3   6 C    3.997 --     2 C    1.007     4 C    1.007    24 H    0.976
                            23 H    0.974
     4   6 C    3.995 --     5 C    1.007     3 C    1.007    25 H    0.975
                            26 H    0.972
     5   6 C    3.987 --     4 C    1.007     6 C    0.992    27 H    0.973
                            28 H    0.963
     6   6 C    3.950 --     5 C    0.992     7 N    0.970    29 H    0.962
                            30 H    0.956
     7   7 N    3.598 --     8 C    1.396    17 C    0.972     6 C    0.970
                            14 N    0.149
     8   6 C    3.961 --     7 N    1.396    14 N    1.384     9 C    1.013
     9   6 C    3.983 --     8 C    1.013    10 C    0.975    31 H    0.959
                            32 H    0.947
    10   6 C    3.989 --    11 C    1.011     9 C    0.975    33 H    0.973
                            34 H    0.973
    11   6 C    3.993 --    10 C    1.011    12 C    1.010    35 H    0.974
                            36 H    0.973
    12   6 C    3.990 --    11 C    1.010    13 C    0.996    38 H    0.974
                            37 H    0.970
    13   6 C    3.952 --    12 C    0.996    14 N    0.971    39 H    0.968
                            40 H    0.954
    14   7 N    3.589 --     8 C    1.384    15 C    0.976    13 C    0.971
                             7 N    0.149
    15   6 C    3.963 --    16 C    1.008    14 N    0.976    42 H    0.962
                            41 H    0.960
    16   6 C    3.991 --    15 C    1.008    17 C    1.007    44 H    0.973
                            43 H    0.967
    17   6 C    3.962 --    16 C    1.007     7 N    0.972    46 H    0.963
                            45 H    0.959
    18   1 H    0.999 --     1 C    0.986
    19   1 H    0.998 --     1 C    0.986
    20   1 H    0.998 --     1 C    0.987
    21   1 H    0.999 --     2 C    0.974
    22   1 H    0.998 --     2 C    0.977
    23   1 H    0.999 --     3 C    0.974
    24   1 H    0.998 --     3 C    0.976
    25   1 H    1.000 --     4 C    0.975
    26   1 H    0.997 --     4 C    0.972
    27   1 H    0.998 --     5 C    0.973
    28   1 H    0.994 --     5 C    0.963
    29   1 H    0.995 --     6 C    0.962
    30   1 H    0.994 --     6 C    0.956
    31   1 H    0.995 --     9 C    0.959
    32   1 H    0.993 --     9 C    0.947
    33   1 H    0.997 --    10 C    0.973
    34   1 H    0.995 --    10 C    0.973
    35   1 H    0.997 --    11 C    0.974
    36   1 H    0.996 --    11 C    0.973
    37   1 H    0.995 --    12 C    0.970
    38   1 H    0.997 --    12 C    0.974
    39   1 H    0.994 --    13 C    0.968
    40   1 H    0.994 --    13 C    0.954
    41   1 H    0.994 --    15 C    0.960
    42   1 H    0.993 --    15 C    0.962
    43   1 H    0.993 --    16 C    0.967
    44   1 H    0.996 --    16 C    0.973
    45   1 H    0.994 --    17 C    0.959
    46   1 H    0.993 --    17 C    0.963
 ---------------------------------------------------------------------------

molecular dipole:
                 x           y           z       tot (Debye)
 q only:       -2.246     -10.106       6.223
   full:       -2.333     -10.117       6.345      30.926

           -------------------------------------------------
          | TOTAL ENERGY              -52.440248599855 Eh   |
          | GRADIENT NORM               0.000286482288 Eh/α |
          | HOMO-LUMO GAP               3.426840843286 eV   |
           -------------------------------------------------

 * finished run on 2024/12/20 at 07:12:50.217
