   * xtb version 6.7.1 (edcfbbe) compiled by 'conda@3ef47c1a292c' on 2024-11-25

   ID    Z sym.   atoms
    1    6 C      1, 2, 4, 6, 8, 9, 11-17
    2    8 O      3, 5
    3    7 N      7, 10
    4    1 H      18-34

          program call               : xtb C1159.xyz --opt --namespace C1159 --charge +1
          :  Hamiltonian                  GFN2-xTB          :
 * total energy  :   -50.1462570 Eh     change       -0.5372982E-09 Eh
 * total energy  :   -50.1539123 Eh     change       -0.7655281E-02 Eh
 * total energy  :   -50.1553398 Eh     change       -0.1427560E-02 Eh
 * total energy  :   -50.1556265 Eh     change       -0.2866913E-03 Eh
 * total energy  :   -50.1558904 Eh     change       -0.2638333E-03 Eh
 * total energy  :   -50.1560743 Eh     change       -0.1839128E-03 Eh
 * total energy  :   -50.1563382 Eh     change       -0.2639280E-03 Eh
 * total energy  :   -50.1566855 Eh     change       -0.3472821E-03 Eh
 * total energy  :   -50.1570668 Eh     change       -0.3813262E-03 Eh
 * total energy  :   -50.1574285 Eh     change       -0.3617003E-03 Eh
 * total energy  :   -50.1605425 Eh     change       -0.2903276E-04 Eh
 * total energy  :   -50.1605693 Eh     change       -0.2680149E-04 Eh
 * total energy  :   -50.1605879 Eh     change       -0.1862830E-04 Eh
 * total energy  :   -50.1605983 Eh     change       -0.1033738E-04 Eh
 * total energy  :   -50.1606076 Eh     change       -0.9335823E-05 Eh
 * total energy  :   -50.1606141 Eh     change       -0.6496390E-05 Eh
 * total energy  :   -50.1606199 Eh     change       -0.5830208E-05 Eh
 * total energy  :   -50.1606299 Eh     change       -0.9952909E-05 Eh
 * total energy  :   -50.1606344 Eh     change       -0.4534333E-05 Eh
   *** GEOMETRY OPTIMIZATION CONVERGED AFTER 44 ITERATIONS ***

 final structure:
================
34
 xtb: 6.7.1 (edcfbbe)
C            1.29571266375619        1.42987485989471       -0.64534149269588
C            2.50679593532292        0.90328930953147       -1.39616244270966
O            2.12272040061407       -0.07994172108466       -2.38003899548346
C            1.95599288311306       -1.31596744540175       -1.98421901263919
O            2.11885839553505       -1.76475693643212       -0.88159424160506
C            1.49238796108014       -2.20285143980970       -3.16330391820032
N            1.60810242850098       -3.58604283297614       -2.79797968333517
C            0.90029591901604       -4.19881713313500       -1.83787354297798
C           -0.25879959055757       -3.62987765158580       -1.12628451130207
N            1.38414909891826       -5.42634552580723       -1.62765504543579
C            2.45501282275771       -5.62988858679164       -2.47728601986146
C            2.60880563572916       -4.44529014665890       -3.21814846384365
C            3.61220259506644       -4.31436804305994       -4.16845319607701
C            4.44594651134968       -5.39891677942568       -4.35320437748103
C            4.29026746481021       -6.57765365409568       -3.62115778561182
C            3.29710068652725       -6.71676942807335       -2.67317499073545
C            0.88463154415678       -6.37125349762584       -0.66257045645023
H            0.55717853096353        1.81823877049435       -1.34211456268065
H            1.60762603965698        2.23193893390315        0.01611433225778
H            0.84454171241351        0.64194106514926       -0.04681409941290
H            2.98852057905917        1.69265446834842       -1.97388933342533
H            3.22340203775778        0.44823054836195       -0.70690535227286
H            0.45744170600232       -1.94328289678630       -3.40450985800809
H            2.10917561920788       -1.99710835885978       -4.03775224607430
H            0.08187180911939       -3.09236080601851       -0.23962123279885
H           -0.79437923275861       -2.92364098735420       -1.75563143895933
H           -0.94292869121103       -4.41407797921567       -0.81308286455524
H            3.74459048590192       -3.41162580146248       -4.74183650839010
H            5.23800337729437       -5.33622262786092       -5.08192655950072
H            4.96421869272936       -7.39932284714637       -3.80275220851564
H            3.18559438853663       -7.63357649341210       -2.11824403338987
H            0.75101434946897       -5.88802377920579        0.30472706155236
H           -0.06779770487479       -6.79235398810418       -0.99012164009610
H            1.60318294505023       -7.17910056827870       -0.55290127928797

          :  Hamiltonian                  GFN2-xTB          :
         :: total energy             -50.160634428041 Eh    ::
         :: gradient norm              0.000416312375 Eh/a0 ::
         :: HOMO-LUMO gap              3.628570111822 eV    ::
         :: SCC energy               -50.877959260891 Eh    ::
         :: -> dispersion             -0.030982405426 Eh    ::
         :: repulsion energy           0.717324832850 Eh    ::

    * Orbital Energies and Occupations

         #    Occupation            Energy/Eh            Energy/eV
      -------------------------------------------------------------
         1        2.0000           -0.8760978             -23.8398
       ...           ...                  ...                  ...
        33        2.0000           -0.6183149             -16.8252
        34        2.0000           -0.6169683             -16.7886
        35        2.0000           -0.6080481             -16.5458
        36        2.0000           -0.6034387             -16.4204
        37        2.0000           -0.5956796             -16.2093
        38        2.0000           -0.5752692             -15.6539
        39        2.0000           -0.5716003             -15.5540
        40        2.0000           -0.5680638             -15.4578
        41        2.0000           -0.5629851             -15.3196
        42        2.0000           -0.5555281             -15.1167
        43        2.0000           -0.5494954             -14.9525
        44        2.0000           -0.5429033             -14.7732
        45        2.0000           -0.5364391             -14.5973 (HOMO)
        46                         -0.4030916             -10.9687 (LUMO)
        47                         -0.3608208              -9.8184
        48                         -0.3572821              -9.7221
        49                         -0.3491128              -9.4998
        50                         -0.2318176              -6.3081
        51                         -0.1774049              -4.8274
        52                         -0.1384394              -3.7671
        53                         -0.1164212              -3.1680
        54                         -0.0644037              -1.7525
        55                         -0.0456846              -1.2431
        56                         -0.0359382              -0.9779
       ...                                ...                  ...
        85                          0.5506733              14.9846
      -------------------------------------------------------------
                  HL-Gap            0.1333475 Eh            3.6286 eV

     #   Z          covCN         q      C6AA      α(0)
     1   6 C        3.751    -0.121    22.881     6.822
     2   6 C        3.698     0.070    19.570     6.328
     3   8 O        1.703    -0.238    17.938     5.718
     4   6 C        2.714     0.361    20.869     7.478
     5   8 O        0.856    -0.402    21.720     6.248
     6   6 C        3.742    -0.047    21.497     6.615
     7   7 N        2.831     0.016    20.974     6.802
     8   6 C        3.074     0.130    25.084     8.212
     9   6 C        3.755    -0.137    23.202     6.868
    10   7 N        2.829     0.023    20.849     6.782
    11   6 C        3.096     0.040    27.000     8.516
    12   6 C        3.094     0.039    27.017     8.519
    13   6 C        2.909    -0.034    28.839     8.806
    14   6 C        2.926    -0.019    28.475     8.751
    15   6 C        2.925    -0.019    28.481     8.752
    16   6 C        2.909    -0.033    28.811     8.802
    17   6 C        3.691    -0.075    22.127     6.731
    18   1 H        0.925     0.064     2.148     2.292
    19   1 H        0.925     0.073     2.058     2.243
    20   1 H        0.925     0.060     2.200     2.320
    21   1 H        0.924     0.081     1.965     2.192
    22   1 H        0.924     0.071     2.075     2.252
    23   1 H        0.924     0.101     1.775     2.083
    24   1 H        0.925     0.109     1.702     2.040
    25   1 H        0.924     0.121     1.601     1.979
    26   1 H        0.925     0.090     1.882     2.146
    27   1 H        0.925     0.096     1.822     2.111
    28   1 H        0.926     0.065     2.136     2.285
    29   1 H        0.926     0.079     1.990     2.206
    30   1 H        0.926     0.079     1.986     2.204
    31   1 H        0.926     0.070     2.088     2.259
    32   1 H        0.925     0.095     1.828     2.114
    33   1 H        0.924     0.090     1.878     2.143
    34   1 H        0.925     0.100     1.784     2.089

Wiberg/Mayer (AO) data.
largest (>0.10) Wiberg bond orders for each atom

     #   Z sym  total        # sym  WBO       # sym  WBO       # sym  WBO
 ---------------------------------------------------------------------------
     1   6 C    3.987 --     2 C    1.014    20 H    0.985    18 H    0.984
                            19 H    0.978
     2   6 C    3.896 --     1 C    1.014    22 H    0.969    21 H    0.969
                             3 O    0.904
     3   8 O    2.359 --     4 C    1.209     2 C    0.904     5 O    0.191
     4   6 C    3.933 --     5 O    1.740     3 O    1.209     6 C    0.918
     5   8 O    2.052 --     4 C    1.740     3 O    0.191
     6   6 C    3.955 --     7 N    0.998    24 H    0.953    23 H    0.942
                             4 C    0.918
     7   7 N    3.652 --     8 C    1.314    12 C    1.110     6 C    0.998
     8   6 C    3.954 --    10 N    1.339     7 N    1.314     9 C    1.051
     9   6 C    3.976 --     8 C    1.051    27 H    0.966    26 H    0.963
                            25 H    0.933
    10   7 N    3.665 --     8 C    1.339    11 C    1.117    17 C    0.990
    11   6 C    3.953 --    16 C    1.345    12 C    1.279    10 N    1.117
    12   6 C    3.951 --    13 C    1.348    11 C    1.279     7 N    1.110
    13   6 C    3.985 --    14 C    1.486    12 C    1.348    28 H    0.962
                            16 C    0.118
    14   6 C    3.982 --    13 C    1.486    15 C    1.385    29 H    0.966
    15   6 C    3.984 --    16 C    1.488    14 C    1.385    30 H    0.966
    16   6 C    3.984 --    15 C    1.488    11 C    1.345    31 H    0.962
                            13 C    0.118
    17   6 C    3.940 --    10 N    0.990    34 H    0.972    32 H    0.969
                            33 H    0.964
    18   1 H    0.996 --     1 C    0.984
    19   1 H    0.994 --     1 C    0.978
    20   1 H    0.996 --     1 C    0.985
    21   1 H    0.993 --     2 C    0.969
    22   1 H    0.995 --     2 C    0.969
    23   1 H    0.989 --     6 C    0.942
    24   1 H    0.988 --     6 C    0.953
    25   1 H    0.980 --     9 C    0.933
    26   1 H    0.991 --     9 C    0.963
    27   1 H    0.990 --     9 C    0.966
    28   1 H    0.995 --    13 C    0.962
    29   1 H    0.993 --    14 C    0.966
    30   1 H    0.993 --    15 C    0.966
    31   1 H    0.995 --    16 C    0.962
    32   1 H    0.990 --    17 C    0.969
    33   1 H    0.991 --    17 C    0.964
    34   1 H    0.989 --    17 C    0.972
 ---------------------------------------------------------------------------

molecular dipole:
                 x           y           z       tot (Debye)
 q only:        2.925      -7.471      -4.260
   full:        2.850      -7.383      -4.370      22.978

           -------------------------------------------------
          | TOTAL ENERGY              -50.160634428041 Eh   |
          | GRADIENT NORM               0.000416312375 Eh/α |
          | HOMO-LUMO GAP               3.628570111822 eV   |
           -------------------------------------------------

 * finished run on 2024/12/20 at 07:13:01.035
