   * xtb version 6.7.1 (edcfbbe) compiled by 'conda@3ef47c1a292c' on 2024-11-25

   ID    Z sym.   atoms
    1    8 O      1, 8
    2    6 C      2, 3, 5-7, 9, 10
    3    7 N      4
    4    1 H      11-26

          program call               : xtb C1158.xyz --opt --namespace C1158 --charge +1
          :  Hamiltonian                  GFN2-xTB          :
 * total energy  :   -33.7816276 Eh     change       -0.7182166E-10 Eh
 * total energy  :   -33.7896315 Eh     change       -0.8003890E-02 Eh
 * total energy  :   -33.7916799 Eh     change       -0.2048348E-02 Eh
 * total energy  :   -33.7917942 Eh     change       -0.1143579E-03 Eh
 * total energy  :   -33.7919166 Eh     change       -0.1223478E-03 Eh
 * total energy  :   -33.7919714 Eh     change       -0.5486867E-04 Eh
 * total energy  :   -33.7920350 Eh     change       -0.6359882E-04 Eh
 * total energy  :   -33.7920758 Eh     change       -0.4081530E-04 Eh
 * total energy  :   -33.7921089 Eh     change       -0.3301843E-04 Eh
 * total energy  :   -33.7921312 Eh     change       -0.2233208E-04 Eh
 * total energy  :   -33.7922160 Eh     change       -0.4322622E-04 Eh
 * total energy  :   -33.7922618 Eh     change       -0.4584783E-04 Eh
 * total energy  :   -33.7922975 Eh     change       -0.3566174E-04 Eh
 * total energy  :   -33.7924038 Eh     change       -0.1063390E-03 Eh
 * total energy  :   -33.7924431 Eh     change       -0.3930652E-04 Eh
 * total energy  :   -33.7924543 Eh     change       -0.1113342E-04 Eh
 * total energy  :   -33.7924382 Eh     change        0.1606755E-04 Eh
 * total energy  :   -33.7924575 Eh     change       -0.1934911E-04 Eh
 * total energy  :   -33.7924592 Eh     change       -0.1639689E-05 Eh
   *** GEOMETRY OPTIMIZATION CONVERGED AFTER 20 ITERATIONS ***

 final structure:
================
26
 xtb: 6.7.1 (edcfbbe)
O            1.04553154458872        0.69815920413282        0.48116602025694
C            0.60784587630647        0.73834153438333       -0.85656324384016
C            1.25945151948786        1.91467946018289       -1.59509267845397
N            2.74782074642800        2.01172320685733       -1.48824218446816
C            3.34859853497098        0.68009899553218       -1.68551241363005
C            3.21825647666554        2.96236356476879       -2.53870264001553
C            4.69398135113221        3.35008744283463       -2.36687235558916
O            4.93603759578512        3.87625229526935       -1.09177040515468
C            4.61013714119910        2.94833991601427       -0.08872432943286
C            3.12729657350444        2.57652179300763       -0.15867459578202
H            0.44688718132703        0.15844144533873        1.00872583832771
H            0.82911268685232       -0.21163213768513       -1.36103393113254
H           -0.47465706559086        0.90212285283522       -0.91569814703133
H            0.99668688299748        1.82457440304637       -2.65122222269543
H            0.84028848207451        2.84556344940107       -1.20909552318687
H            3.09789379706355        0.03978268543691       -0.84265965124975
H            2.97161750049206        0.23911025012089       -2.60676540352210
H            4.43043520993152        0.75121434908908       -1.75365757618189
H            2.61615737475576        3.87022668489722       -2.45921314120649
H            3.06542737232554        2.51673352473547       -3.52254039750668
H            4.93484760000424        4.14233889361098       -3.07833405597873
H            5.35652209172698        2.49598529548117       -2.56811850353808
H            5.25416161648529        2.06061634034246       -0.15361065529650
H            4.80530547229768        3.44542579410613        0.86289555057497
H            2.86197661313661        1.85995339904402        0.61746444680468
H            2.54647982405190        3.48891535721481       -0.00853780107227

          :  Hamiltonian                  GFN2-xTB          :
         :: total energy             -33.792459188305 Eh    ::
         :: gradient norm              0.000558922079 Eh/a0 ::
         :: HOMO-LUMO gap              8.395080611402 eV    ::
         :: SCC energy               -34.152948731577 Eh    ::
         :: -> dispersion             -0.019090613082 Eh    ::
         :: repulsion energy           0.360489543272 Eh    ::

    * Orbital Energies and Occupations

         #    Occupation            Energy/Eh            Energy/eV
      -------------------------------------------------------------
         1        2.0000           -0.8710065             -23.7013
       ...           ...                  ...                  ...
        18        2.0000           -0.6804632             -18.5163
        19        2.0000           -0.6699358             -18.2299
        20        2.0000           -0.6537564             -17.7896
        21        2.0000           -0.6512086             -17.7203
        22        2.0000           -0.6489106             -17.6578
        23        2.0000           -0.6478547             -17.6290
        24        2.0000           -0.6442933             -17.5321
        25        2.0000           -0.6294604             -17.1285
        26        2.0000           -0.6199619             -16.8700
        27        2.0000           -0.6089724             -16.5710
        28        2.0000           -0.5924216             -16.1206
        29        2.0000           -0.5690806             -15.4855
        30        2.0000           -0.5540604             -15.0767 (HOMO)
        31                         -0.2455468              -6.6817 (LUMO)
        32                         -0.1771206              -4.8197
        33                         -0.1707079              -4.6452
        34                         -0.1510728              -4.1109
        35                         -0.1125426              -3.0624
        36                         -0.1032073              -2.8084
        37                         -0.0852690              -2.3203
        38                         -0.0611395              -1.6637
        39                         -0.0560011              -1.5239
        40                         -0.0501402              -1.3644
        41                         -0.0200440              -0.5454
       ...                                ...                  ...
        56                          0.1460271               3.9736
      -------------------------------------------------------------
                  HL-Gap            0.3085135 Eh            8.3951 eV

     #   Z          covCN         q      C6AA      α(0)
     1   8 O        1.656    -0.441    21.658     6.282
     2   6 C        3.672     0.070    19.637     6.351
     3   6 C        3.761    -0.042    21.378     6.591
     4   7 N        3.621     0.131    19.003     6.474
     5   6 C        3.710    -0.097    22.497     6.778
     6   6 C        3.765    -0.047    21.449     6.601
     7   6 C        3.720     0.065    19.599     6.323
     8   8 O        1.702    -0.282    18.681     5.836
     9   6 C        3.720     0.061    19.658     6.332
    10   6 C        3.760    -0.051    21.545     6.617
    11   1 H        0.805     0.317     0.671     1.286
    12   1 H        0.923     0.053     2.278     2.360
    13   1 H        0.924     0.067     2.120     2.277
    14   1 H        0.924     0.088     1.896     2.153
    15   1 H        0.924     0.097     1.809     2.103
    16   1 H        0.925     0.114     1.663     2.016
    17   1 H        0.925     0.094     1.841     2.122
    18   1 H        0.925     0.100     1.786     2.090
    19   1 H        0.924     0.096     1.818     2.109
    20   1 H        0.924     0.086     1.916     2.164
    21   1 H        0.924     0.099     1.797     2.097
    22   1 H        0.923     0.051     2.308     2.376
    23   1 H        0.923     0.052     2.295     2.369
    24   1 H        0.924     0.100     1.789     2.092
    25   1 H        0.925     0.121     1.607     1.983
    26   1 H        0.924     0.097     1.816     2.108

Wiberg/Mayer (AO) data.
largest (>0.10) Wiberg bond orders for each atom

     #   Z sym  total        # sym  WBO       # sym  WBO       # sym  WBO
 ---------------------------------------------------------------------------
     1   8 O    1.957 --     2 C    1.006    11 H    0.883
     2   6 C    3.957 --     1 O    1.006     3 C    1.002    12 H    0.965
                            13 H    0.963
     3   6 C    3.940 --     2 C    1.002    14 H    0.967    15 H    0.965
                             4 N    0.936
     4   7 N    3.811 --     5 C    0.958     3 C    0.936     6 C    0.936
                            10 C    0.930
     5   6 C    3.924 --    17 H    0.976    16 H    0.970    18 H    0.967
                             4 N    0.958
     6   6 C    3.937 --     7 C    0.993    20 H    0.968    19 H    0.966
                             4 N    0.936
     7   6 C    3.953 --     8 O    1.001     6 C    0.993    22 H    0.959
                            21 H    0.959
     8   8 O    2.105 --     7 C    1.001     9 C    0.994
     9   6 C    3.951 --    10 C    0.997     8 O    0.994    23 H    0.961
                            24 H    0.959
    10   6 C    3.924 --     9 C    0.997    26 H    0.965    25 H    0.955
                             4 N    0.930
    11   1 H    0.899 --     1 O    0.883
    12   1 H    0.997 --     2 C    0.965
    13   1 H    0.995 --     2 C    0.963
    14   1 H    0.992 --     3 C    0.967
    15   1 H    0.991 --     3 C    0.965
    16   1 H    0.987 --     5 C    0.970
    17   1 H    0.991 --     5 C    0.976
    18   1 H    0.990 --     5 C    0.967
    19   1 H    0.991 --     6 C    0.966
    20   1 H    0.993 --     6 C    0.968
    21   1 H    0.990 --     7 C    0.959
    22   1 H    0.997 --     7 C    0.959
    23   1 H    0.997 --     9 C    0.961
    24   1 H    0.990 --     9 C    0.959
    25   1 H    0.985 --    10 C    0.955
    26   1 H    0.991 --    10 C    0.965
 ---------------------------------------------------------------------------

molecular dipole:
                 x           y           z       tot (Debye)
 q only:        4.666       3.163      -2.772
   full:        4.342       2.894      -2.889      15.160

           -------------------------------------------------
          | TOTAL ENERGY              -33.792459188305 Eh   |
          | GRADIENT NORM               0.000558922079 Eh/α |
          | HOMO-LUMO GAP               8.395080611402 eV   |
           -------------------------------------------------

 * finished run on 2024/12/20 at 07:12:59.734
