   * xtb version 6.7.1 (edcfbbe) compiled by 'conda@3ef47c1a292c' on 2024-11-25

   ID    Z sym.   atoms
    1    8 O      1
    2    6 C      2-8, 10, 11
    3    7 N      9
    4    1 H      12-25

          program call               : xtb C1155.xyz --opt --namespace C1155 --charge +1
          :  Hamiltonian                  GFN2-xTB          :
 * total energy  :   -32.9887578 Eh     change       -0.2569678E-09 Eh
 * total energy  :   -32.9917730 Eh     change       -0.3015213E-02 Eh
 * total energy  :   -32.9925267 Eh     change       -0.7537471E-03 Eh
 * total energy  :   -32.9927518 Eh     change       -0.2250630E-03 Eh
 * total energy  :   -32.9929355 Eh     change       -0.1837160E-03 Eh
 * total energy  :   -32.9930703 Eh     change       -0.1347801E-03 Eh
 * total energy  :   -32.9931891 Eh     change       -0.1188268E-03 Eh
 * total energy  :   -32.9932764 Eh     change       -0.8733171E-04 Eh
 * total energy  :   -32.9933237 Eh     change       -0.4722649E-04 Eh
 * total energy  :   -32.9933535 Eh     change       -0.2984682E-04 Eh
 * total energy  :   -32.9933785 Eh     change       -0.2501496E-04 Eh
 * total energy  :   -32.9933912 Eh     change       -0.1264580E-04 Eh
 * total energy  :   -32.9933984 Eh     change       -0.7204818E-05 Eh
 * total energy  :   -32.9934030 Eh     change       -0.4649701E-05 Eh
   *** GEOMETRY OPTIMIZATION CONVERGED AFTER 14 ITERATIONS ***

 final structure:
================
25
 xtb: 6.7.1 (edcfbbe)
O            1.14746735566388       -0.08678765858935       -0.15620201043987
C            0.49080204586386        0.98967538617181       -0.79287262872791
C            1.12806576074280        2.31438993850976       -0.36346283895380
C            2.66641515311334        2.27257457993138       -0.42320070461024
C            3.15619776926865        1.97763559895168       -1.79943665196763
C            3.30198200194576        0.65982607380425       -2.24592496627083
C            3.72901774361315        0.42150711968821       -3.54111639423961
C            4.00829471676402        1.48918018196752       -4.37306863476113
N            3.86367977256418        2.74503034275006       -3.94234165712994
C            3.44783734153185        2.99432414843918       -2.69326205826456
C            4.17081880665951        3.86124404237234       -4.80995118282450
H            0.51166342095772       -0.76361195234215        0.09055905820652
H            0.57303168767923        0.86706661731084       -1.88507345435941
H           -0.57255726829866        1.01743381231275       -0.54044339319197
H            0.73910884631787        3.11429982883071       -0.99436249809027
H            0.84996325996951        2.52228894992342        0.66924200389800
H            3.05508866350628        3.22999085946839       -0.07692467415309
H            2.99682460460120        1.48365441759346        0.25178882966084
H            3.07018888881016       -0.15142240791142       -1.57124761409860
H            3.85091084431850       -0.58416665980307       -3.91044212505521
H            4.34962564685931        1.34295471111191       -5.38662287198851
H            3.35400420362952        4.03232359322125       -2.40728073277362
H            3.34168469250612        4.56878058670705       -4.82146775082254
H            5.06098162732563        4.38038231459326       -4.45052858766355
H            4.35397241408636        3.51686557498637       -5.82514646137897

          :  Hamiltonian                  GFN2-xTB          :
         :: total energy             -32.993403027569 Eh    ::
         :: gradient norm              0.000704099860 Eh/a0 ::
         :: HOMO-LUMO gap              2.070670157838 eV    ::
         :: SCC energy               -33.483189591510 Eh    ::
         :: -> dispersion             -0.018822266353 Eh    ::
         :: repulsion energy           0.489786563941 Eh    ::

    * Orbital Energies and Occupations

         #    Occupation            Energy/Eh            Energy/eV
      -------------------------------------------------------------
         1        2.0000           -0.8736814             -23.7741
       ...           ...                  ...                  ...
        18        2.0000           -0.6542311             -17.8025
        19        2.0000           -0.6472570             -17.6128
        20        2.0000           -0.6466282             -17.5956
        21        2.0000           -0.6279427             -17.0872
        22        2.0000           -0.6251744             -17.0119
        23        2.0000           -0.6179300             -16.8147
        24        2.0000           -0.6089786             -16.5711
        25        2.0000           -0.6071445             -16.5212
        26        2.0000           -0.5929744             -16.1357
        27        2.0000           -0.5795524             -15.7704
        28        2.0000           -0.5664230             -15.4132
        29        2.0000           -0.5598905             -15.2354
        30        2.0000           -0.5243279             -14.2677 (HOMO)
        31                         -0.4482322             -12.1970 (LUMO)
        32                         -0.4154145             -11.3040
        33                         -0.2977642              -8.1026
        34                         -0.1660115              -4.5174
        35                         -0.0795698              -2.1652
        36                         -0.0649795              -1.7682
        37                         -0.0444317              -1.2090
        38                         -0.0359454              -0.9781
        39                         -0.0269696              -0.7339
        40                         -0.0056058              -0.1525
        41                         -0.0022685              -0.0617
       ...                                ...                  ...
        58                          0.4498118              12.2400
      -------------------------------------------------------------
                  HL-Gap            0.0760957 Eh            2.0707 eV

     #   Z          covCN         q      C6AA      α(0)
     1   8 O        1.655    -0.443    21.692     6.287
     2   6 C        3.673     0.080    19.477     6.325
     3   6 C        3.801    -0.065    21.741     6.639
     4   6 C        3.809    -0.076    21.949     6.669
     5   6 C        2.965     0.049    26.890     8.506
     6   6 C        2.929     0.001    28.015     8.680
     7   6 C        2.913    -0.015    28.384     8.736
     8   6 C        2.890     0.024    27.471     8.593
     9   7 N        2.746     0.114    19.285     6.522
    10   6 C        2.900     0.013    27.712     8.631
    11   6 C        3.711    -0.094    22.432     6.768
    12   1 H        0.805     0.303     0.713     1.326
    13   1 H        0.923     0.018     2.770     2.603
    14   1 H        0.924     0.041     2.438     2.442
    15   1 H        0.924     0.046     2.370     2.407
    16   1 H        0.925     0.077     2.012     2.218
    17   1 H        0.925     0.069     2.091     2.262
    18   1 H        0.925     0.101     1.774     2.083
    19   1 H        0.926     0.124     1.579     1.965
    20   1 H        0.926     0.103     1.753     2.071
    21   1 H        0.926     0.104     1.751     2.069
    22   1 H        0.926     0.102     1.765     2.078
    23   1 H        0.925     0.108     1.714     2.047
    24   1 H        0.924     0.110     1.693     2.035
    25   1 H        0.925     0.104     1.747     2.067

Wiberg/Mayer (AO) data.
largest (>0.10) Wiberg bond orders for each atom

     #   Z sym  total        # sym  WBO       # sym  WBO       # sym  WBO
 ---------------------------------------------------------------------------
     1   8 O    1.957 --     2 C    1.000    12 H    0.896
     2   6 C    3.961 --     3 C    1.002     1 O    1.000    14 H    0.974
                            13 H    0.967
     3   6 C    3.991 --     2 C    1.002    15 H    0.977    16 H    0.971
                             4 C    0.970
     4   6 C    3.984 --     5 C    1.029     3 C    0.970    17 H    0.966
                            18 H    0.957
     5   6 C    3.978 --    10 C    1.428     6 C    1.361     4 C    1.029
     6   6 C    3.967 --     7 C    1.445     5 C    1.361    19 H    0.952
     7   6 C    3.982 --     6 C    1.445     8 C    1.443    20 H    0.959
     8   6 C    3.957 --     7 C    1.443     9 N    1.332    21 H    0.955
     9   7 N    3.766 --     8 C    1.332    10 C    1.315    11 C    0.985
    10   6 C    3.957 --     5 C    1.428     9 N    1.315    22 H    0.955
    11   6 C    3.933 --     9 N    0.985    25 H    0.974    23 H    0.963
                            24 H    0.957
    12   1 H    0.908 --     1 O    0.896
    13   1 H    1.000 --     2 C    0.967
    14   1 H    0.998 --     2 C    0.974
    15   1 H    0.998 --     3 C    0.977
    16   1 H    0.993 --     3 C    0.971
    17   1 H    0.995 --     4 C    0.966
    18   1 H    0.989 --     4 C    0.957
    19   1 H    0.985 --     6 C    0.952
    20   1 H    0.989 --     7 C    0.959
    21   1 H    0.989 --     8 C    0.955
    22   1 H    0.990 --    10 C    0.955
    23   1 H    0.988 --    11 C    0.963
    24   1 H    0.988 --    11 C    0.957
    25   1 H    0.989 --    11 C    0.974
 ---------------------------------------------------------------------------

molecular dipole:
                 x           y           z       tot (Debye)
 q only:        6.148       4.282      -5.936
   full:        5.946       4.262      -6.067      24.157

           -------------------------------------------------
          | TOTAL ENERGY              -32.993403027569 Eh   |
          | GRADIENT NORM               0.000704099860 Eh/α |
          | HOMO-LUMO GAP               2.070670157838 eV   |
           -------------------------------------------------

 * finished run on 2024/12/20 at 07:12:53.857
