   * xtb version 6.7.1 (edcfbbe) compiled by 'conda@3ef47c1a292c' on 2024-11-25

   ID    Z sym.   atoms
    1    7 N      1, 4
    2    6 C      2, 3, 5-7
    3    1 H      8-18

          program call               : xtb C1150.xyz --opt --namespace C1150 --charge +1
          :  Hamiltonian                  GFN2-xTB          :
 * total energy  :   -21.6528629 Eh     change       -0.5051959E-11 Eh
 * total energy  :   -21.6885433 Eh     change       -0.3568041E-01 Eh
 * total energy  :   -21.6918078 Eh     change       -0.3264496E-02 Eh
 * total energy  :   -21.6921894 Eh     change       -0.3815916E-03 Eh
 * total energy  :   -21.6922536 Eh     change       -0.6415989E-04 Eh
 * total energy  :   -21.6922837 Eh     change       -0.3012653E-04 Eh
 * total energy  :   -21.6922956 Eh     change       -0.1189644E-04 Eh
 * total energy  :   -21.6923021 Eh     change       -0.6557016E-05 Eh
 * total energy  :   -21.6923030 Eh     change       -0.8885713E-06 Eh
   *** GEOMETRY OPTIMIZATION CONVERGED AFTER 9 ITERATIONS ***

 final structure:
================
18
 xtb: 6.7.1 (edcfbbe)
N            1.26766678396468        0.01412108084066       -0.19993917249111
C            2.40616601118865        0.01935131168837       -0.15894201029463
C            3.85893863935370        0.02341548026742       -0.12707860215350
N            4.44364876478445       -0.14980314443855       -1.48436820807199
C            3.99996225341476        0.95424460118284       -2.35840345308806
C            5.91428690505865       -0.13658795942289       -1.38080639734948
C            3.99995979674380       -1.43797751473645       -2.05310685424580
H            4.19193962252787        0.97441819711859        0.30243648504015
H            4.19193689500991       -0.78923400310939        0.52751438847116
H            4.32885943751979        1.91224274982304       -1.95771479563349
H            4.41989058583577        0.83247070835516       -3.35532251377037
H            2.91312841873262        0.96290792888510       -2.43588284367724
H            6.25976052814037       -0.94753746185060       -0.74130450119620
H            6.35745401373505       -0.26249007904622       -2.36733625192873
H            6.25976217121104        0.80897982718255       -0.96547251501048
H            4.32885591242399       -2.26463748838819       -1.42465969007366
H            2.91312588018798       -1.46582029577312       -2.12592652500844
H            4.41988738016692       -1.57048393857833       -3.04865653951815

          :  Hamiltonian                  GFN2-xTB          :
         :: total energy             -21.692303032124 Eh    ::
         :: gradient norm              0.000234786336 Eh/a0 ::
         :: HOMO-LUMO gap              5.404984201230 eV    ::
         :: SCC energy               -22.042888053650 Eh    ::
         :: -> dispersion             -0.010805345987 Eh    ::
         :: repulsion energy           0.350585021526 Eh    ::

    * Orbital Energies and Occupations

         #    Occupation            Energy/Eh            Energy/eV
      -------------------------------------------------------------
         1        2.0000           -0.9004107             -24.5014
       ...           ...                  ...                  ...
         8        2.0000           -0.7539624             -20.5164
         9        2.0000           -0.7499023             -20.4059
        10        2.0000           -0.7185237             -19.5520
        11        2.0000           -0.7110351             -19.3482
        12        2.0000           -0.6839774             -18.6120
        13        2.0000           -0.6809257             -18.5289
        14        2.0000           -0.6774955             -18.4356
        15        2.0000           -0.6682682             -18.1845
        16        2.0000           -0.6677820             -18.1713
        17        2.0000           -0.6647808             -18.0896
        18        2.0000           -0.6509343             -17.7128
        19        2.0000           -0.6410446             -17.4437
        20        2.0000           -0.5928926             -16.1334 (HOMO)
        21                         -0.3942631             -10.7284 (LUMO)
        22                         -0.3750335             -10.2052
        23                         -0.2404475              -6.5429
        24                         -0.1733930              -4.7183
        25                         -0.1724128              -4.6916
        26                         -0.1716946              -4.6720
        27                         -0.0857903              -2.3345
        28                         -0.0494042              -1.3444
        29                         -0.0099981              -0.2721
        30                         -0.0018260              -0.0497
        31                         -0.0013028              -0.0355
       ...                                ...                  ...
        39                          0.9794413              26.6520
      -------------------------------------------------------------
                  HL-Gap            0.1986295 Eh            5.4050 eV

     #   Z          covCN         q      C6AA      α(0)
     1   7 N        0.911    -0.136    23.941     7.077
     2   6 C        1.893     0.108    28.437     8.613
     3   6 C        3.771    -0.032    21.178     6.558
     4   7 N        3.626     0.154    18.638     6.412
     5   6 C        3.721    -0.099    22.510     6.776
     6   6 C        3.723    -0.101    22.548     6.781
     7   6 C        3.721    -0.099    22.510     6.776
     8   1 H        0.924     0.123     1.592     1.973
     9   1 H        0.924     0.123     1.592     1.973
    10   1 H        0.925     0.104     1.753     2.071
    11   1 H        0.925     0.108     1.714     2.048
    12   1 H        0.925     0.109     1.704     2.041
    13   1 H        0.925     0.104     1.748     2.068
    14   1 H        0.925     0.110     1.700     2.039
    15   1 H        0.925     0.104     1.748     2.068
    16   1 H        0.925     0.104     1.753     2.071
    17   1 H        0.925     0.109     1.704     2.041
    18   1 H        0.925     0.108     1.714     2.048

Wiberg/Mayer (AO) data.
largest (>0.10) Wiberg bond orders for each atom

     #   Z sym  total        # sym  WBO       # sym  WBO       # sym  WBO
 ---------------------------------------------------------------------------
     1   7 N    3.040 --     2 C    2.895
     2   6 C    3.958 --     1 N    2.895     3 C    1.031
     3   6 C    3.944 --     2 C    1.031     9 H    0.939     8 H    0.939
                             4 N    0.933
     4   7 N    3.821 --     6 C    0.955     7 C    0.952     5 C    0.952
                             3 C    0.933
     5   6 C    3.917 --    10 H    0.974    11 H    0.973    12 H    0.971
                             4 N    0.952
     6   6 C    3.920 --    13 H    0.974    15 H    0.974    14 H    0.972
                             4 N    0.955
     7   6 C    3.917 --    16 H    0.974    18 H    0.973    17 H    0.971
                             4 N    0.952
     8   1 H    0.985 --     3 C    0.939
     9   1 H    0.985 --     3 C    0.939
    10   1 H    0.989 --     5 C    0.974
    11   1 H    0.988 --     5 C    0.973
    12   1 H    0.988 --     5 C    0.971
    13   1 H    0.989 --     6 C    0.974
    14   1 H    0.987 --     6 C    0.972
    15   1 H    0.989 --     6 C    0.974
    16   1 H    0.989 --     7 C    0.974
    17   1 H    0.988 --     7 C    0.971
    18   1 H    0.988 --     7 C    0.973
 ---------------------------------------------------------------------------

molecular dipole:
                 x           y           z       tot (Debye)
 q only:        9.023      -0.290      -2.859
   full:        9.523      -0.281      -2.788      25.231

           -------------------------------------------------
          | TOTAL ENERGY              -21.692303032124 Eh   |
          | GRADIENT NORM               0.000234786336 Eh/α |
          | HOMO-LUMO GAP               5.404984201230 eV   |
           -------------------------------------------------

 * finished run on 2024/12/20 at 07:12:46.491
