   * xtb version 6.7.1 (edcfbbe) compiled by 'conda@3ef47c1a292c' on 2024-11-25

   ID    Z sym.   atoms
    1    9 F      1, 5-11, 20
    2    6 C      2, 3, 12, 13, 15-18
    3   16 S      4
    4    7 N      14, 19
    5    1 H      21-28

          program call               : xtb C1153.xyz --opt --namespace C1153 --charge +1
          :  Hamiltonian                  GFN2-xTB          :
 * total energy  :   -33.7570807 Eh     change       -0.4672529E-09 Eh
 * total energy  :   -71.1273300 Eh     change       -0.3737025E+02 Eh
 * total energy  :   -71.5652124 Eh     change       -0.4378824E+00 Eh
 * total energy  :   -71.8842591 Eh     change       -0.3190467E+00 Eh
 * total energy  :   -72.0810841 Eh     change       -0.1968250E+00 Eh
 * total energy  :   -72.1990589 Eh     change       -0.1179748E+00 Eh
 * total energy  :   -72.2868349 Eh     change       -0.8777596E-01 Eh
 * total energy  :   -72.3571092 Eh     change       -0.7027430E-01 Eh
 * total energy  :   -72.4115027 Eh     change       -0.5439355E-01 Eh
 * total energy  :   -72.4489916 Eh     change       -0.3748885E-01 Eh
 * total energy  :   -72.5446879 Eh     change       -0.3164599E-04 Eh
 * total energy  :   -72.5447332 Eh     change       -0.4528991E-04 Eh
 * total energy  :   -72.5447614 Eh     change       -0.2823566E-04 Eh
 * total energy  :   -72.5447818 Eh     change       -0.2036406E-04 Eh
 * total energy  :   -72.5447927 Eh     change       -0.1089410E-04 Eh
 * total energy  :   -72.5447975 Eh     change       -0.4802834E-05 Eh
 * total energy  :   -72.5447992 Eh     change       -0.1654945E-05 Eh
 * total energy  :   -72.5448051 Eh     change       -0.5962281E-05 Eh
 * total energy  :   -72.5448075 Eh     change       -0.2395345E-05 Eh
   *** GEOMETRY OPTIMIZATION CONVERGED AFTER 63 ITERATIONS ***

 final structure:
================
28
 xtb: 6.7.1 (edcfbbe)
F            0.60603629909675       -0.46078768942224       -0.50746716017680
C            1.90352709882027       -0.11789551163029       -0.59191432705226
C            2.01159068113478        1.40303405646064       -0.90483279089364
S            2.14887254139831        2.98142422434079        2.55237405524305
F            3.38686606403992        2.16950824223043        1.83848433266921
F            1.38842879508887        1.43070020378064        2.64243684662754
F            2.62947882973430        2.76781752794088        4.07298644607249
F            3.03967632650231        4.37945146607549        2.44864605245899
F            1.49618223324658        2.14682449326628        0.09390121955184
F            3.28715440328565        1.74798000459369       -1.03872199138738
F            1.37051681403726        1.72053194558211       -2.01306440761892
C            2.68107038651320       -0.54173111674016        0.64867511895414
C            2.49714465230213       -2.03189595320882        0.95399647891759
N            2.89475425662259       -2.88104482728363       -0.15827066476639
C            4.16148971948926       -2.97890830053738       -0.55100717608830
C            4.47375624202114       -3.74404843742187       -1.66787055348694
C            3.43905684110595       -4.38263408092194       -2.33088519050242
C            2.15061191337552       -4.22676159129972       -1.80800620306518
N            1.91461488501904       -3.49044038003245       -0.75062127899774
F            2.38499564531617       -0.76994807556546       -1.69583436053538
H            3.72849572981876       -0.27012643445582        0.50702653225683
H            2.29362003302267        0.01354217105951        1.50440321915202
H            3.08442837901160       -2.28264292918991        1.83989762080203
H            1.44091154572880       -2.24165261877962        1.14381995470953
H            4.91547460297620       -2.45276330520849        0.01747669075701
H            5.49763422049678       -3.82494289265347       -1.99926250661189
H            3.61188322683625       -4.97889531031323       -3.21274437680978
H            1.28116763397027       -4.69666488067097       -2.24464158018263

          :  Hamiltonian                  GFN2-xTB          :
         :: total energy             -72.544807512568 Eh    ::
         :: gradient norm              0.000827666549 Eh/a0 ::
         :: HOMO-LUMO gap              1.971576357186 eV    ::
         :: SCC energy               -72.973200384423 Eh    ::
         :: -> dispersion             -0.025789481914 Eh    ::
         :: repulsion energy           0.428392871856 Eh    ::

    * Orbital Energies and Occupations

         #    Occupation            Energy/Eh            Energy/eV
      -------------------------------------------------------------
         1        2.0000           -1.0306816             -28.0463
       ...           ...                  ...                  ...
        47        2.0000           -0.6454255             -17.5629
        48        2.0000           -0.6384101             -17.3720
        49        2.0000           -0.6346892             -17.2708
        50        2.0000           -0.6329929             -17.2246
        51        2.0000           -0.6269467             -17.0601
        52        2.0000           -0.6232253             -16.9588
        53        2.0000           -0.6186477             -16.8343
        54        2.0000           -0.6027866             -16.4027
        55        2.0000           -0.6024403             -16.3932
        56        2.0000           -0.6021656             -16.3858
        57        2.0000           -0.6015689             -16.3695
        58        2.0000           -0.5914434             -16.0940
        59        2.0000           -0.5655847             -15.3903 (HOMO)
        60                         -0.4931306             -13.4188 (LUMO)
        61                         -0.4615404             -12.5592
        62                         -0.3380500              -9.1988
        63                         -0.3251719              -8.8484
        64                         -0.2026228              -5.5136
        65                         -0.1848403              -5.0298
        66                         -0.1762630              -4.7964
        67                         -0.1730479              -4.7089
        68                         -0.1343703              -3.6564
        69                         -0.1262244              -3.4347
        70                         -0.1032042              -2.8083
       ...                                ...                  ...
        93                          0.6551194              17.8267
      -------------------------------------------------------------
                  HL-Gap            0.0724541 Eh            1.9716 eV

     #   Z          covCN         q      C6AA      α(0)
     1   9 F        0.788    -0.182    11.053     3.927
     2   6 C        3.519     0.316    16.956     6.073
     3   6 C        3.328     0.490    17.338     6.611
     4  16 S        3.151     1.892    84.557    15.477
     5   9 F        0.787    -0.442    14.062     4.430
     6   9 F        0.781    -0.557    15.675     4.677
     7   9 F        0.788    -0.399    13.505     4.341
     8   9 F        0.786    -0.494    14.765     4.539
     9   9 F        0.800    -0.207    11.308     3.972
    10   9 F        0.791    -0.168    10.913     3.902
    11   9 F        0.791    -0.147    10.701     3.864
    12   6 C        3.803    -0.109    22.572     6.764
    13   6 C        3.762    -0.050    21.516     6.612
    14   7 N        2.854     0.209    17.804     6.267
    15   6 C        2.869     0.028    27.377     8.577
    16   6 C        2.922     0.011    27.782     8.644
    17   6 C        2.918     0.012    27.737     8.636
    18   6 C        2.881     0.074    26.351     8.415
    19   7 N        1.941    -0.091    23.754     7.227
    20   9 F        0.788    -0.222    11.462     3.999
    21   1 H        0.924     0.108     1.718     2.050
    22   1 H        0.924     0.163     1.306     1.787
    23   1 H        0.924     0.125     1.571     1.960
    24   1 H        0.924     0.143     1.438     1.875
    25   1 H        0.926     0.125     1.572     1.961
    26   1 H        0.926     0.122     1.601     1.978
    27   1 H        0.926     0.121     1.604     1.981
    28   1 H        0.926     0.130     1.535     1.938

Wiberg/Mayer (AO) data.
largest (>0.10) Wiberg bond orders for each atom

     #   Z sym  total        # sym  WBO       # sym  WBO       # sym  WBO
 ---------------------------------------------------------------------------
     1   9 F    1.086 --     2 C    0.972
     2   6 C    3.867 --    12 C    0.972     1 F    0.972    20 F    0.931
                             3 C    0.896
     3   6 C    3.858 --    11 F    0.996    10 F    0.976     9 F    0.934
                             2 C    0.896
     4  16 S    3.390 --     7 F    0.952     5 F    0.884     8 F    0.823
                             6 F    0.710
     5   9 F    0.928 --     4 S    0.884
     6   9 F    0.764 --     4 S    0.710
     7   9 F    0.995 --     4 S    0.952
     8   9 F    0.862 --     4 S    0.823
     9   9 F    1.081 --     3 C    0.934
    10   9 F    1.107 --     3 C    0.976
    11   9 F    1.132 --     3 C    0.996
    12   6 C    3.959 --    13 C    0.989     2 C    0.972    21 H    0.961
                            22 H    0.930
    13   6 C    3.928 --    12 C    0.989    14 N    0.961    24 H    0.955
                            23 H    0.946
    14   7 N    3.804 --    15 C    1.373    19 N    1.304    13 C    0.961
                            17 C    0.102
    15   6 C    3.957 --    16 C    1.413    14 N    1.373    25 H    0.950
    16   6 C    3.972 --    17 C    1.461    15 C    1.413    26 H    0.956
    17   6 C    3.963 --    16 C    1.461    18 C    1.363    27 H    0.958
                            14 N    0.102
    18   6 C    3.955 --    19 N    1.498    17 C    1.363    28 H    0.948
    19   7 N    3.062 --    18 C    1.498    14 N    1.304
    20   9 F    1.042 --     2 C    0.931
    21   1 H    0.988 --    12 C    0.961
    22   1 H    0.972 --    12 C    0.930
    23   1 H    0.984 --    13 C    0.946
    24   1 H    0.979 --    13 C    0.955
    25   1 H    0.984 --    15 C    0.950
    26   1 H    0.985 --    16 C    0.956
    27   1 H    0.985 --    17 C    0.958
    28   1 H    0.983 --    18 C    0.948
 ---------------------------------------------------------------------------

molecular dipole:
                 x           y           z       tot (Debye)
 q only:        5.218      -5.105      -0.957
   full:        5.694      -5.115      -1.024      19.629

           -------------------------------------------------
          | TOTAL ENERGY              -72.544807512568 Eh   |
          | GRADIENT NORM               0.000827666549 Eh/α |
          | HOMO-LUMO GAP               1.971576357186 eV   |
           -------------------------------------------------

 * finished run on 2024/12/20 at 07:12:51.532
