   * xtb version 6.7.1 (edcfbbe) compiled by 'conda@3ef47c1a292c' on 2024-11-25

   ID    Z sym.   atoms
    1    6 C      1-4, 7-11, 13, 15-23
    2    8 O      5, 6
    3    7 N      12, 14
    4    1 H      24-48

          program call               : xtb C1157.xyz --opt --namespace C1157 --charge +1
          :  Hamiltonian                  GFN2-xTB          :
 * total energy  :   -67.0729492 Eh     change       -0.5570087E-09 Eh
 * total energy  :   -67.0801562 Eh     change       -0.7207071E-02 Eh
 * total energy  :   -67.0813321 Eh     change       -0.1175835E-02 Eh
 * total energy  :   -67.0815815 Eh     change       -0.2494015E-03 Eh
 * total energy  :   -67.0817730 Eh     change       -0.1915240E-03 Eh
 * total energy  :   -67.0818704 Eh     change       -0.9744947E-04 Eh
 * total energy  :   -67.0819801 Eh     change       -0.1096544E-03 Eh
 * total energy  :   -67.0821033 Eh     change       -0.1232522E-03 Eh
 * total energy  :   -67.0822313 Eh     change       -0.1279823E-03 Eh
 * total energy  :   -67.0823575 Eh     change       -0.1261967E-03 Eh
 * total energy  :   -67.0854743 Eh     change       -0.1917247E-04 Eh
 * total energy  :   -67.0854670 Eh     change        0.7317186E-05 Eh
 * total energy  :   -67.0854945 Eh     change       -0.2751468E-04 Eh
 * total energy  :   -67.0855063 Eh     change       -0.1178546E-04 Eh
 * total energy  :   -67.0855190 Eh     change       -0.1274002E-04 Eh
 * total energy  :   -67.0855110 Eh     change        0.8060799E-05 Eh
 * total energy  :   -67.0855366 Eh     change       -0.2567867E-04 Eh
 * total energy  :   -67.0855425 Eh     change       -0.5831434E-05 Eh
 * total energy  :   -67.0855447 Eh     change       -0.2259114E-05 Eh
   *** GEOMETRY OPTIMIZATION CONVERGED AFTER 68 ITERATIONS ***

 final structure:
================
48
 xtb: 6.7.1 (edcfbbe)
C            1.98952491138259       -1.11154780574006        0.62863872795383
C            0.61255234369152       -0.92012696940091        1.25202460007973
C            0.66755944377579       -0.06133638800325        2.51158577348478
C           -0.66493143229073        0.00093314345373        3.25581095047758
O           -1.55250642333973       -0.79051569063417        3.24921553827533
O           -0.73262475282108        1.17640571057831        3.93403635447173
C            0.47037477893103        1.90681343862211        3.74484808768140
C            0.99933160190336        1.43450541875117        2.38617426274306
C            0.21671913811298        2.06872514321942        1.21378997257465
C            0.08209729999387        3.54299306046572        1.33012249107508
C            0.98893613039135        4.53376477088982        1.07335732394075
N            0.39640069780002        5.72764721403507        1.35129014947997
C           -0.84121734020147        5.48348505553504        1.76179566845251
N           -1.05984891945829        4.16842108574863        1.76650896958237
C           -2.29474576271573        3.52925035932128        2.14520547812934
C            1.01647667337573        7.02515777513856        1.15966972751331
C            1.43311463216211        7.18833641107990       -0.28287364167344
C            2.77180586495765        7.15230836306695       -0.64549926020562
C            3.13840756001127        7.28808775836198       -1.97219873200826
C            2.18008538300905        7.45319307191917       -2.96507301602323
C            0.83876995326265        7.47967741734061       -2.59304672120617
C            0.46726052789890        7.34905929390245       -1.26964260233484
C            2.57320636886211        7.62430492277475       -4.39551028319258
H            2.41792841799509       -0.16185027313043        0.31502659529689
H            1.91657045554690       -1.75543599294483       -0.24288567607587
H            2.66968791854612       -1.57733314031661        1.33710611397598
H           -0.07163823502281       -0.48989059754350        0.52011316970167
H            0.20311679752741       -1.88963899691038        1.53993965906682
H            1.38649164011916       -0.51819199958607        3.20353120371176
H            1.17705622484578        1.65458249480836        4.54372445982559
H            0.23970961910438        2.97054545539406        3.81178859164140
H            2.06466399457913        1.63513494311703        2.28213708343153
H            0.73618588083636        1.83282125222393        0.28445582800690
H           -0.77752519381595        1.62269673001341        1.17172757273792
H            1.99198063783493        4.47020524912066        0.70485813738962
H           -1.55674850008994        6.22811243049131        2.05192570629195
H           -2.11868593234417        2.76225245529639        2.90139810563917
H           -2.97599255316324        4.27336006997155        2.55103566522892
H           -2.76199831747935        3.06337680583311        1.27613743944732
H            1.88960887738275        7.09562635216310        1.81387235146965
H            0.29473290898909        7.79230681442600        1.44764778983853
H            3.53405790034227        7.03325070974921        0.11103125149927
H            4.18425809045738        7.26868492846120       -2.23826403250206
H            0.08018776435122        7.61054926259330       -3.34982957079485
H           -0.57915109124010        7.38139546629965       -0.99977041152573
H            2.53826403286540        8.68080780435000       -4.66153200107577
H            3.58356517938342        7.26520035320019       -4.57082871302034
H            1.88703480374217        7.09543886250577       -5.05299613847155

          :  Hamiltonian                  GFN2-xTB          :
         :: total energy             -67.085544723624 Eh    ::
         :: gradient norm              0.000280865514 Eh/a0 ::
         :: HOMO-LUMO gap              2.798391473644 eV    ::
         :: SCC energy               -68.071493017452 Eh    ::
         :: -> dispersion             -0.046788845517 Eh    ::
         :: repulsion energy           0.985948293828 Eh    ::

    * Orbital Energies and Occupations

         #    Occupation            Energy/Eh            Energy/eV
      -------------------------------------------------------------
         1        2.0000           -0.8881767             -24.1685
       ...           ...                  ...                  ...
        49        2.0000           -0.5761807             -15.6787
        50        2.0000           -0.5639519             -15.3459
        51        2.0000           -0.5615789             -15.2813
        52        2.0000           -0.5606024             -15.2548
        53        2.0000           -0.5529657             -15.0470
        54        2.0000           -0.5504010             -14.9772
        55        2.0000           -0.5377982             -14.6342
        56        2.0000           -0.5364457             -14.5974
        57        2.0000           -0.5294780             -14.4078
        58        2.0000           -0.5264171             -14.3245
        59        2.0000           -0.5140382             -13.9877
        60        2.0000           -0.5124716             -13.9451
        61        2.0000           -0.5007783             -13.6269 (HOMO)
        62                         -0.3979393             -10.8285 (LUMO)
        63                         -0.3629309              -9.8759
        64                         -0.3364742              -9.1559
        65                         -0.3322098              -9.0399
        66                         -0.3315420              -9.0217
        67                         -0.2115043              -5.7553
        68                         -0.1703121              -4.6344
        69                         -0.1303337              -3.5466
        70                         -0.1063301              -2.8934
        71                         -0.0824648              -2.2440
        72                         -0.0669446              -1.8217
       ...                                ...                  ...
       117                          0.5880237              16.0009
      -------------------------------------------------------------
                  HL-Gap            0.1028390 Eh            2.7984 eV

     #   Z          covCN         q      C6AA      α(0)
     1   6 C        3.752    -0.112    22.695     6.794
     2   6 C        3.801    -0.061    21.676     6.629
     3   6 C        3.893    -0.057    21.534     6.597
     4   6 C        2.786     0.351    21.043     7.514
     5   8 O        0.856    -0.344    20.599     6.085
     6   8 O        1.706    -0.271    18.501     5.807
     7   6 C        3.786     0.065    19.511     6.292
     8   6 C        3.877    -0.029    21.044     6.522
     9   6 C        3.805    -0.077    21.961     6.671
    10   6 C        3.096     0.043    26.928     8.505
    11   6 C        3.078    -0.023    28.503     8.753
    12   7 N        2.860     0.060    20.194     6.674
    13   6 C        3.084     0.044    26.927     8.507
    14   7 N        2.867     0.052    20.334     6.697
    15   6 C        3.691    -0.084    22.291     6.756
    16   6 C        3.747    -0.025    21.094     6.551
    17   6 C        2.973    -0.010    28.251     8.719
    18   6 C        2.921    -0.038    28.945     8.823
    19   6 C        2.925    -0.035    28.865     8.811
    20   6 C        2.966     0.032    27.286     8.568
    21   6 C        2.925    -0.035    28.876     8.812
    22   6 C        2.921    -0.039    28.978     8.828
    23   6 C        3.758    -0.119    22.833     6.812
    24   1 H        0.925     0.033     2.539     2.492
    25   1 H        0.925     0.056     2.252     2.347
    26   1 H        0.925     0.049     2.337     2.391
    27   1 H        0.924     0.043     2.415     2.430
    28   1 H        0.924     0.071     2.074     2.252
    29   1 H        0.924     0.078     2.001     2.212
    30   1 H        0.924     0.062     2.170     2.304
    31   1 H        0.924     0.048     2.339     2.392
    32   1 H        0.925     0.059     2.213     2.326
    33   1 H        0.924     0.088     1.903     2.157
    34   1 H        0.924     0.079     1.989     2.206
    35   1 H        0.926     0.100     1.784     2.089
    36   1 H        0.926     0.106     1.728     2.056
    37   1 H        0.924     0.119     1.621     1.991
    38   1 H        0.925     0.094     1.840     2.122
    39   1 H        0.924     0.099     1.794     2.095
    40   1 H        0.924     0.087     1.907     2.159
    41   1 H        0.924     0.081     1.968     2.194
    42   1 H        0.926     0.039     2.455     2.450
    43   1 H        0.926     0.054     2.271     2.356
    44   1 H        0.926     0.052     2.292     2.367
    45   1 H        0.926     0.030     2.584     2.514
    46   1 H        0.925     0.069     2.100     2.266
    47   1 H        0.925     0.057     2.230     2.335
    48   1 H        0.925     0.059     2.207     2.323

Wiberg/Mayer (AO) data.
largest (>0.10) Wiberg bond orders for each atom

     #   Z sym  total        # sym  WBO       # sym  WBO       # sym  WBO
 ---------------------------------------------------------------------------
     1   6 C    3.994 --     2 C    1.019    24 H    0.987    26 H    0.986
                            25 H    0.985
     2   6 C    3.989 --     1 C    1.019     3 C    0.994    27 H    0.974
                            28 H    0.969
     3   6 C    3.988 --     2 C    0.994     8 C    0.978     4 C    0.947
                            29 H    0.934
     4   6 C    3.914 --     5 O    1.824     6 O    1.078     3 C    0.947
     5   8 O    2.110 --     4 C    1.824     6 O    0.159
     6   8 O    2.280 --     4 C    1.078     7 C    0.962     5 O    0.159
     7   6 C    3.938 --     8 C    0.988    31 H    0.969    30 H    0.966
                             6 O    0.962
     8   6 C    3.991 --     7 C    0.988     3 C    0.978    32 H    0.969
                             9 C    0.968
     9   6 C    3.985 --    10 C    1.027     8 C    0.968    34 H    0.962
                            33 H    0.956
    10   6 C    3.952 --    11 C    1.549    14 N    1.194     9 C    1.027
    11   6 C    3.944 --    10 C    1.549    12 N    1.221    35 H    0.962
    12   7 N    3.714 --    13 C    1.369    11 C    1.221    16 C    0.956
    13   6 C    3.944 --    12 N    1.369    14 N    1.346    36 H    0.954
    14   7 N    3.701 --    13 C    1.346    10 C    1.194    15 C    0.989
    15   6 C    3.931 --    14 N    0.989    38 H    0.975    39 H    0.961
                            37 H    0.955
    16   6 C    3.933 --    17 C    0.982    41 H    0.964    12 N    0.956
                            40 H    0.955
    17   6 C    3.974 --    18 C    1.414    22 C    1.402    16 C    0.982
                            20 C    0.104
    18   6 C    3.990 --    19 C    1.446    17 C    1.414    42 H    0.968
                            21 C    0.106
    19   6 C    3.990 --    18 C    1.446    20 C    1.408    43 H    0.967
                            22 C    0.106
    20   6 C    3.986 --    19 C    1.408    21 C    1.396    23 C    1.035
                            17 C    0.104
    21   6 C    3.991 --    22 C    1.460    20 C    1.396    44 H    0.968
                            18 C    0.106
    22   6 C    3.992 --    21 C    1.460    17 C    1.402    45 H    0.969
                            19 C    0.106
    23   6 C    3.993 --    20 C    1.035    47 H    0.982    48 H    0.975
                            46 H    0.958
    24   1 H    0.999 --     1 C    0.987
    25   1 H    0.996 --     1 C    0.985
    26   1 H    0.998 --     1 C    0.986
    27   1 H    0.998 --     2 C    0.974
    28   1 H    0.995 --     2 C    0.969
    29   1 H    0.992 --     3 C    0.934
    30   1 H    0.996 --     7 C    0.966
    31   1 H    0.997 --     7 C    0.969
    32   1 H    0.997 --     8 C    0.969
    33   1 H    0.992 --     9 C    0.956
    34   1 H    0.993 --     9 C    0.962
    35   1 H    0.990 --    11 C    0.962
    36   1 H    0.989 --    13 C    0.954
    37   1 H    0.985 --    15 C    0.955
    38   1 H    0.991 --    15 C    0.975
    39   1 H    0.989 --    15 C    0.961
    40   1 H    0.992 --    16 C    0.955
    41   1 H    0.993 --    16 C    0.964
    42   1 H    0.998 --    18 C    0.968
    43   1 H    0.997 --    19 C    0.967
    44   1 H    0.997 --    21 C    0.968
    45   1 H    0.999 --    22 C    0.969
    46   1 H    0.995 --    23 C    0.958
    47   1 H    0.996 --    23 C    0.982
    48   1 H    0.996 --    23 C    0.975
 ---------------------------------------------------------------------------

molecular dipole:
                 x           y           z       tot (Debye)
 q only:        1.247       9.428       1.364
   full:        1.342       9.742       1.568      25.313

           -------------------------------------------------
          | TOTAL ENERGY              -67.085544723624 Eh   |
          | GRADIENT NORM               0.000280865514 Eh/α |
          | HOMO-LUMO GAP               2.798391473644 eV   |
           -------------------------------------------------

 * finished run on 2024/12/20 at 07:12:59.118
