   * xtb version 6.7.1 (edcfbbe) compiled by 'conda@3ef47c1a292c' on 2024-11-25

   ID    Z sym.   atoms
    1    6 C      1-4, 6-11
    2    7 N      5
    3    1 H      12-27

          program call               : xtb C1163.xyz --opt --namespace C1163 --charge +1
          :  Hamiltonian                  GFN2-xTB          :
 * total energy  :   -32.0926499 Eh     change       -0.5487735E-09 Eh
 * total energy  :   -32.0962692 Eh     change       -0.3619255E-02 Eh
 * total energy  :   -32.0969086 Eh     change       -0.6394521E-03 Eh
 * total energy  :   -32.0970390 Eh     change       -0.1303966E-03 Eh
 * total energy  :   -32.0971341 Eh     change       -0.9509536E-04 Eh
 * total energy  :   -32.0971702 Eh     change       -0.3609243E-04 Eh
 * total energy  :   -32.0972071 Eh     change       -0.3689592E-04 Eh
 * total energy  :   -32.0972290 Eh     change       -0.2192860E-04 Eh
 * total energy  :   -32.0972414 Eh     change       -0.1237693E-04 Eh
 * total energy  :   -32.0972480 Eh     change       -0.6612780E-05 Eh
 * total energy  :   -32.1035322 Eh     change       -0.5040467E-04 Eh
 * total energy  :   -32.1035868 Eh     change       -0.5459459E-04 Eh
 * total energy  :   -32.1036290 Eh     change       -0.4214817E-04 Eh
 * total energy  :   -32.1036559 Eh     change       -0.2695843E-04 Eh
 * total energy  :   -32.1036767 Eh     change       -0.2079990E-04 Eh
 * total energy  :   -32.1037074 Eh     change       -0.3064320E-04 Eh
 * total energy  :   -32.1037183 Eh     change       -0.1090123E-04 Eh
 * total energy  :   -32.1037289 Eh     change       -0.1062020E-04 Eh
 * total energy  :   -32.1037319 Eh     change       -0.2966747E-05 Eh
   *** GEOMETRY OPTIMIZATION CONVERGED AFTER 64 ITERATIONS ***

 final structure:
================
27
 xtb: 6.7.1 (edcfbbe)
C            1.13157689615403        1.23790457557598       -0.59632217058044
C            0.08643499857467        1.31025445866639        0.52572157032853
C            0.73576640011157        1.27160864539697        1.91056238136745
C            1.62269133352584        2.47753809464605        2.19414034206878
N            0.48157770179742        1.19169518338786       -1.89714353355853
C            0.18435366902966        0.02337865528298       -2.50009819970335
C           -0.48432842204754        0.04941730792268       -3.72110059319814
C           -0.85167320809687        1.24662210214848       -4.30572892535162
C           -0.53788429751870        2.43279275156680       -3.64962903134153
C            0.12842441785937        2.36367717939312       -2.45064992400769
C            0.57869140438619       -1.26920901045480       -1.88186463176899
H            1.76450068775494        0.36210477343025       -0.46219782352771
H            1.76326648692082        2.12642065995690       -0.55969003431093
H           -0.49005496639772        2.23228106006424        0.42214712043539
H           -0.60930107490600        0.47310870404585        0.43360095046750
H           -0.06569616744950        1.24163841785712        2.64979098015178
H            1.31703423333591        0.35428217578151        2.01908958297360
H            1.08213018280818        3.40329025137400        2.01515415534700
H            1.93394324147650        2.46709555947263        3.23478342855794
H            2.52178114589635        2.46883381110559        1.58302758266352
H           -0.71445940825861       -0.88567123233635       -4.20667754380677
H           -1.37020057424818        1.25975125574429       -5.25125618279573
H           -0.80296118950349        3.39144550886210       -4.06429027678392
H            0.39844264024890        3.25651805976887       -1.90658635161937
H            1.66435685169888       -1.37628320467982       -1.86824954909269
H            0.21979712876112       -1.35479324983577       -0.85794205107204
H            0.17249988808503       -2.09658249414666       -2.45651127183919

          :  Hamiltonian                  GFN2-xTB          :
         :: total energy             -32.103731864529 Eh    ::
         :: gradient norm              0.000941890661 Eh/a0 ::
         :: HOMO-LUMO gap              2.641744660120 eV    ::
         :: SCC energy               -32.637992707200 Eh    ::
         :: -> dispersion             -0.019986645768 Eh    ::
         :: repulsion energy           0.534260842671 Eh    ::

    * Orbital Energies and Occupations

         #    Occupation            Energy/Eh            Energy/eV
      -------------------------------------------------------------
         1        2.0000           -0.8717017             -23.7202
       ...           ...                  ...                  ...
        18        2.0000           -0.6526716             -17.7601
        19        2.0000           -0.6417126             -17.4619
        20        2.0000           -0.6322582             -17.2046
        21        2.0000           -0.6218240             -16.9207
        22        2.0000           -0.6190399             -16.8449
        23        2.0000           -0.6139912             -16.7076
        24        2.0000           -0.6100132             -16.5993
        25        2.0000           -0.6027591             -16.4019
        26        2.0000           -0.5933589             -16.1461
        27        2.0000           -0.5904171             -16.0661
        28        2.0000           -0.5645135             -15.3612
        29        2.0000           -0.5541133             -15.0782
        30        2.0000           -0.5466486             -14.8751 (HOMO)
        31                         -0.4495663             -12.2333 (LUMO)
        32                         -0.4181275             -11.3778
        33                         -0.3001513              -8.1675
        34                         -0.1741553              -4.7390
        35                         -0.0875210              -2.3816
        36                         -0.0504705              -1.3734
        37                         -0.0473282              -1.2879
        38                         -0.0427661              -1.1637
        39                         -0.0313186              -0.8522
        40                         -0.0149200              -0.4060
        41                         -0.0090990              -0.2476
       ...                                ...                  ...
        60                          0.4526242              12.3165
      -------------------------------------------------------------
                  HL-Gap            0.0970823 Eh            2.6417 eV

     #   Z          covCN         q      C6AA      α(0)
     1   6 C        3.760    -0.037    21.284     6.577
     2   6 C        3.801    -0.063    21.716     6.635
     3   6 C        3.801    -0.061    21.678     6.629
     4   6 C        3.752    -0.115    22.772     6.805
     5   7 N        2.752     0.086    19.759     6.602
     6   6 C        2.925     0.092    25.958     8.355
     7   6 C        2.922    -0.026    28.646     8.777
     8   6 C        2.922     0.009    27.808     8.648
     9   6 C        2.915    -0.017    28.433     8.744
    10   6 C        2.892     0.030    27.336     8.572
    11   6 C        3.758    -0.139    23.220     6.870
    12   1 H        0.925     0.093     1.851     2.128
    13   1 H        0.924     0.092     1.861     2.133
    14   1 H        0.924     0.055     2.258     2.350
    15   1 H        0.924     0.047     2.356     2.401
    16   1 H        0.924     0.062     2.180     2.309
    17   1 H        0.924     0.046     2.366     2.405
    18   1 H        0.925     0.046     2.374     2.410
    19   1 H        0.925     0.060     2.197     2.318
    20   1 H        0.925     0.038     2.480     2.463
    21   1 H        0.926     0.100     1.782     2.088
    22   1 H        0.926     0.102     1.763     2.077
    23   1 H        0.926     0.103     1.753     2.071
    24   1 H        0.926     0.104     1.745     2.065
    25   1 H        0.924     0.100     1.789     2.092
    26   1 H        0.925     0.098     1.799     2.097
    27   1 H        0.925     0.095     1.833     2.117

Wiberg/Mayer (AO) data.
largest (>0.10) Wiberg bond orders for each atom

     #   Z sym  total        # sym  WBO       # sym  WBO       # sym  WBO
 ---------------------------------------------------------------------------
     1   6 C    3.933 --     2 C    0.976     5 N    0.963    13 H    0.960
                            12 H    0.959
     2   6 C    3.985 --     3 C    1.001     1 C    0.976    15 H    0.974
                            14 H    0.974
     3   6 C    3.989 --     4 C    1.021     2 C    1.001    17 H    0.977
                            16 H    0.971
     4   6 C    3.992 --     3 C    1.021    18 H    0.986    20 H    0.985
                            19 H    0.983
     5   7 N    3.747 --    10 C    1.306     6 C    1.297     1 C    0.963
     6   6 C    3.957 --     7 C    1.396     5 N    1.297    11 C    1.050
     7   6 C    3.984 --     8 C    1.458     6 C    1.396    21 H    0.959
                            10 C    0.102
     8   6 C    3.971 --     7 C    1.458     9 C    1.392    22 H    0.962
     9   6 C    3.983 --    10 C    1.489     8 C    1.392    23 H    0.960
    10   6 C    3.960 --     9 C    1.489     5 N    1.306    24 H    0.954
                             7 C    0.102
    11   6 C    3.980 --     6 C    1.050    27 H    0.974    26 H    0.952
                            25 H    0.941
    12   1 H    0.991 --     1 C    0.959
    13   1 H    0.991 --     1 C    0.960
    14   1 H    0.997 --     2 C    0.974
    15   1 H    0.998 --     2 C    0.974
    16   1 H    0.994 --     3 C    0.971
    17   1 H    0.998 --     3 C    0.977
    18   1 H    0.998 --     4 C    0.986
    19   1 H    0.996 --     4 C    0.983
    20   1 H    0.998 --     4 C    0.985
    21   1 H    0.990 --     7 C    0.959
    22   1 H    0.989 --     8 C    0.962
    23   1 H    0.988 --     9 C    0.960
    24   1 H    0.989 --    10 C    0.954
    25   1 H    0.990 --    11 C    0.941
    26   1 H    0.990 --    11 C    0.952
    27   1 H    0.991 --    11 C    0.974
 ---------------------------------------------------------------------------

molecular dipole:
                 x           y           z       tot (Debye)
 q only:        0.479       1.801      -3.777
   full:        0.479       1.844      -3.875      10.976

           -------------------------------------------------
          | TOTAL ENERGY              -32.103731864529 Eh   |
          | GRADIENT NORM               0.000941890661 Eh/α |
          | HOMO-LUMO GAP               2.641744660120 eV   |
           -------------------------------------------------

 * finished run on 2024/12/20 at 07:13:06.802
