   * xtb version 6.7.1 (edcfbbe) compiled by 'conda@3ef47c1a292c' on 2024-11-25

   ID    Z sym.   atoms
    1    6 C      1-4, 8-17
    2    7 N      5-7
    3    1 H      18-39

          program call               : xtb C1162.xyz --opt --namespace C1162 --charge +1
          :  Hamiltonian                  GFN2-xTB          :
 * total energy  :   -49.5794497 Eh     change       -0.1695383E-08 Eh
 * total energy  :   -49.5897251 Eh     change       -0.1027547E-01 Eh
 * total energy  :   -49.5912110 Eh     change       -0.1485893E-02 Eh
 * total energy  :   -49.5914737 Eh     change       -0.2626352E-03 Eh
 * total energy  :   -49.5918193 Eh     change       -0.3456450E-03 Eh
 * total energy  :   -49.5919855 Eh     change       -0.1662083E-03 Eh
 * total energy  :   -49.5921729 Eh     change       -0.1873931E-03 Eh
 * total energy  :   -49.5923546 Eh     change       -0.1816773E-03 Eh
 * total energy  :   -49.5924787 Eh     change       -0.1241076E-03 Eh
 * total energy  :   -49.5925635 Eh     change       -0.8482636E-04 Eh
 * total energy  :   -49.5936792 Eh     change       -0.3334633E-04 Eh
 * total energy  :   -49.5937133 Eh     change       -0.3402071E-04 Eh
 * total energy  :   -49.5937305 Eh     change       -0.1720664E-04 Eh
 * total energy  :   -49.5937390 Eh     change       -0.8555670E-05 Eh
 * total energy  :   -49.5937486 Eh     change       -0.9528783E-05 Eh
 * total energy  :   -49.5937548 Eh     change       -0.6275870E-05 Eh
 * total energy  :   -49.5937602 Eh     change       -0.5395242E-05 Eh
 * total energy  :   -49.5937663 Eh     change       -0.6121557E-05 Eh
 * total energy  :   -49.5937710 Eh     change       -0.4616759E-05 Eh
   *** GEOMETRY OPTIMIZATION CONVERGED AFTER 47 ITERATIONS ***

 final structure:
================
39
 xtb: 6.7.1 (edcfbbe)
C            1.58751124242784       -0.41897977078314        1.20338973938075
C            0.83417992204318        0.52092195486781        2.13750625651935
C            0.99747337696343        1.99321142548820        1.75750846079041
C            0.21987689136630        2.39928293212403        0.49830466270739
N           -1.19745487733554        2.39616858510923        0.75069383081495
N           -1.75621510967682        3.40183180773499        1.35189723920912
N           -3.01507846052822        3.14502143160286        1.52320882571097
C           -3.32890829558686        1.91377071789290        1.02611363617991
C           -2.11213015052482        1.41195854588843        0.50768496873441
C           -2.04611947267025        0.15774130721593       -0.09911033469614
C           -3.21883704678501       -0.55729941594152       -0.15811333030159
C           -4.42739592216564       -0.05747997928412        0.35717396285553
C           -4.51141709363708        1.17832629448376        0.95386711218439
C           -3.86473584615308        4.05968932181117        2.23585604556785
C           -4.07772865779071        3.59535150591920        3.68279008073012
C           -2.77926372441903        3.45796929463235        4.47922555414578
C           -2.00990277484086        4.76710945414539        4.61274778853737
H            1.24423038858885       -0.33604312314210        0.17470622788838
H            1.45143945454078       -1.44900838580961        1.52073869384787
H            2.65104922596364       -0.19676206826338        1.22270541134392
H           -0.22503395640900        0.25015697315474        2.16387411608018
H            1.22412510902954        0.38773526291834        3.14740204141999
H            0.66990524059401        2.63104655094238        2.58101466197092
H            2.05237615330124        2.19953723080575        1.57692584508233
H            0.49816479670301        3.41520477734310        0.21192538349547
H            0.42665977002311        1.71837980501106       -0.32696946323861
H           -1.12540745961935       -0.23345871502136       -0.49768843090848
H           -3.21755827115368       -1.53371878671787       -0.61581204775785
H           -5.31374773181735       -0.66643472705962        0.27741281467853
H           -5.44061506850777        1.56031740956530        1.34250859607921
H           -3.37515842102079        5.03365087234558        2.21912518692652
H           -4.82285024434709        4.12401996663138        1.71585732169915
H           -4.72132059928717        4.32999047968789        4.16685679382507
H           -4.60244020123360        2.63775951978798        3.68254048158895
H           -3.04141740990600        3.09851087782403        5.47522203292221
H           -2.13703069503545        2.69816183810150        4.02501777467398
H           -2.65556731134660        5.54863838875727        5.00465804485555
H           -1.18106073066723        4.63857079732089        5.30320931756281
H           -1.60235603907053        5.09359964289194        3.65899469690640

          :  Hamiltonian                  GFN2-xTB          :
         :: total energy             -49.593770967111 Eh    ::
         :: gradient norm              0.000313380441 Eh/a0 ::
         :: HOMO-LUMO gap              2.692615621055 eV    ::
         :: SCC energy               -50.353122730042 Eh    ::
         :: -> dispersion             -0.035825920238 Eh    ::
         :: repulsion energy           0.759351762931 Eh    ::

    * Orbital Energies and Occupations

         #    Occupation            Energy/Eh            Energy/eV
      -------------------------------------------------------------
         1        2.0000           -0.9072898             -24.6886
       ...           ...                  ...                  ...
        34        2.0000           -0.5938134             -16.1585
        35        2.0000           -0.5921799             -16.1140
        36        2.0000           -0.5867428             -15.9661
        37        2.0000           -0.5855798             -15.9344
        38        2.0000           -0.5823046             -15.8453
        39        2.0000           -0.5735916             -15.6082
        40        2.0000           -0.5598863             -15.2353
        41        2.0000           -0.5582268             -15.1901
        42        2.0000           -0.5560301             -15.1304
        43        2.0000           -0.5512117             -14.9992
        44        2.0000           -0.5491034             -14.9419
        45        2.0000           -0.5443390             -14.8122
        46        2.0000           -0.5416082             -14.7379 (HOMO)
        47                         -0.4426564             -12.0453 (LUMO)
        48                         -0.3769765             -10.2581
        49                         -0.3695118             -10.0549
        50                         -0.2517360              -6.8501
        51                         -0.1790896              -4.8733
        52                         -0.1421005              -3.8668
        53                         -0.0682541              -1.8573
        54                         -0.0644056              -1.7526
        55                         -0.0507541              -1.3811
        56                         -0.0408879              -1.1126
        57                         -0.0305822              -0.8322
       ...                                ...                  ...
        90                          0.5359524              14.5840
      -------------------------------------------------------------
                  HL-Gap            0.0989518 Eh            2.6926 eV

     #   Z          covCN         q      C6AA      α(0)
     1   6 C        3.752    -0.112    22.700     6.794
     2   6 C        3.800    -0.059    21.630     6.622
     3   6 C        3.802    -0.070    21.835     6.653
     4   6 C        3.744    -0.026    21.115     6.555
     5   7 N        2.984     0.122    19.152     6.500
     6   7 N        2.147    -0.096    23.634     7.214
     7   7 N        2.984     0.127    19.066     6.485
     8   6 C        3.070     0.036    27.121     8.539
     9   6 C        3.068     0.038    27.072     8.532
    10   6 C        2.906    -0.030    28.750     8.792
    11   6 C        2.926    -0.013    28.327     8.728
    12   6 C        2.927    -0.012    28.319     8.727
    13   6 C        2.906    -0.031    28.766     8.794
    14   6 C        3.744    -0.028    21.153     6.561
    15   6 C        3.802    -0.068    21.810     6.649
    16   6 C        3.800    -0.057    21.595     6.617
    17   6 C        3.751    -0.116    22.782     6.807
    18   1 H        0.925     0.031     2.574     2.509
    19   1 H        0.925     0.052     2.297     2.370
    20   1 H        0.925     0.052     2.292     2.367
    21   1 H        0.924     0.025     2.661     2.551
    22   1 H        0.924     0.057     2.238     2.339
    23   1 H        0.924     0.058     2.226     2.333
    24   1 H        0.925     0.076     2.016     2.221
    25   1 H        0.924     0.095     1.835     2.119
    26   1 H        0.925     0.089     1.893     2.151
    27   1 H        0.926     0.078     1.998     2.210
    28   1 H        0.926     0.085     1.930     2.173
    29   1 H        0.926     0.085     1.932     2.174
    30   1 H        0.926     0.076     2.023     2.224
    31   1 H        0.924     0.104     1.751     2.070
    32   1 H        0.924     0.084     1.942     2.179
    33   1 H        0.925     0.075     2.027     2.227
    34   1 H        0.924     0.050     2.316     2.380
    35   1 H        0.924     0.057     2.240     2.340
    36   1 H        0.924     0.023     2.682     2.561
    37   1 H        0.925     0.051     2.310     2.377
    38   1 H        0.925     0.052     2.291     2.367
    39   1 H        0.925     0.040     2.448     2.447

Wiberg/Mayer (AO) data.
largest (>0.10) Wiberg bond orders for each atom

     #   Z sym  total        # sym  WBO       # sym  WBO       # sym  WBO
 ---------------------------------------------------------------------------
     1   6 C    3.994 --     2 C    1.021    20 H    0.986    19 H    0.985
                            18 H    0.983
     2   6 C    3.995 --     1 C    1.021     3 C    1.009    21 H    0.976
                            22 H    0.973
     3   6 C    3.981 --     2 C    1.009     4 C    0.976    23 H    0.974
                            24 H    0.966
     4   6 C    3.935 --     3 C    0.976     5 N    0.969    26 H    0.960
                            25 H    0.960
     5   7 N    3.725 --     6 N    1.329     9 C    1.184     4 C    0.969
                             7 N    0.121
     6   7 N    3.016 --     7 N    1.333     5 N    1.329
     7   7 N    3.729 --     6 N    1.333     8 C    1.185    14 C    0.971
                             5 N    0.121
     8   6 C    3.963 --    13 C    1.303     9 C    1.246     7 N    1.185
     9   6 C    3.963 --    10 C    1.301     8 C    1.246     5 N    1.184
    10   6 C    3.985 --    11 C    1.531     9 C    1.301    27 H    0.960
                            13 C    0.121
    11   6 C    3.984 --    10 C    1.531    12 C    1.339    28 H    0.965
    12   6 C    3.984 --    13 C    1.531    11 C    1.339    29 H    0.965
    13   6 C    3.985 --    12 C    1.531     8 C    1.303    30 H    0.963
                            10 C    0.121
    14   6 C    3.934 --    15 C    0.976     7 N    0.971    31 H    0.960
                            32 H    0.959
    15   6 C    3.982 --    16 C    1.008    14 C    0.976    34 H    0.975
                            33 H    0.966
    16   6 C    3.994 --    17 C    1.020    15 C    1.008    36 H    0.978
                            35 H    0.973
    17   6 C    3.993 --    16 C    1.020    37 H    0.986    39 H    0.985
                            38 H    0.985
    18   1 H    0.999 --     1 C    0.983
    19   1 H    0.997 --     1 C    0.985
    20   1 H    0.997 --     1 C    0.986
    21   1 H    0.999 --     2 C    0.976
    22   1 H    0.996 --     2 C    0.973
    23   1 H    0.997 --     3 C    0.974
    24   1 H    0.993 --     3 C    0.966
    25   1 H    0.990 --     4 C    0.960
    26   1 H    0.992 --     4 C    0.960
    27   1 H    0.993 --    10 C    0.960
    28   1 H    0.992 --    11 C    0.965
    29   1 H    0.992 --    12 C    0.965
    30   1 H    0.994 --    13 C    0.963
    31   1 H    0.988 --    14 C    0.960
    32   1 H    0.992 --    14 C    0.959
    33   1 H    0.994 --    15 C    0.966
    34   1 H    0.997 --    15 C    0.975
    35   1 H    0.997 --    16 C    0.973
    36   1 H    0.999 --    16 C    0.978
    37   1 H    0.997 --    17 C    0.986
    38   1 H    0.997 --    17 C    0.985
    39   1 H    0.998 --    17 C    0.985
 ---------------------------------------------------------------------------

molecular dipole:
                 x           y           z       tot (Debye)
 q only:       -4.235       3.959       2.483
   full:       -4.429       3.791       2.286      15.916

           -------------------------------------------------
          | TOTAL ENERGY              -49.593770967111 Eh   |
          | GRADIENT NORM               0.000313380441 Eh/α |
          | HOMO-LUMO GAP               2.692615621055 eV   |
           -------------------------------------------------

 * finished run on 2024/12/20 at 07:13:05.844
