   * xtb version 6.7.1 (edcfbbe) compiled by 'conda@3ef47c1a292c' on 2024-11-25

   ID    Z sym.   atoms
    1    6 C      1, 3, 5-11
    2    7 N      2, 4
    3    1 H      12-22

          program call               : xtb C1167.xyz --opt --namespace C1167 --charge +1
          :  Hamiltonian                  GFN2-xTB          :
 * total energy  :   -30.2411883 Eh     change       -0.2298059E-08 Eh
 * total energy  :   -30.2737678 Eh     change       -0.3257951E-01 Eh
 * total energy  :   -30.2772094 Eh     change       -0.3441660E-02 Eh
 * total energy  :   -30.2775848 Eh     change       -0.3753899E-03 Eh
 * total energy  :   -30.2776762 Eh     change       -0.9137967E-04 Eh
 * total energy  :   -30.2777134 Eh     change       -0.3723321E-04 Eh
 * total energy  :   -30.2777276 Eh     change       -0.1416492E-04 Eh
 * total energy  :   -30.2777595 Eh     change       -0.3190272E-04 Eh
 * total energy  :   -30.2777694 Eh     change       -0.9886267E-05 Eh
 * total energy  :   -30.2777811 Eh     change       -0.1172011E-04 Eh
 * total energy  :   -30.2777860 Eh     change       -0.4884136E-05 Eh
 * total energy  :   -30.2777894 Eh     change       -0.3460496E-05 Eh
   *** GEOMETRY OPTIMIZATION CONVERGED AFTER 12 ITERATIONS ***

 final structure:
================
22
 xtb: 6.7.1 (edcfbbe)
C            1.05502097539786       -0.10755524967196       -0.07860465572794
N           -0.08431632626358       -0.13020347151748       -0.08399036173161
C            2.50563757806903       -0.05141977315147       -0.06631362562377
N            3.14474076932059       -1.36037343596796        0.04486089767383
C            4.47798172330300       -1.42049813153476        0.24212194946203
C            5.07292873172206       -2.67381767334573        0.34653839147224
C            4.32312994824102       -3.82747384901273        0.24669250812619
C            2.94275954543212       -3.74187509553388        0.03159754867498
C            2.40041871236244       -2.47479146917315       -0.06282306952028
C            2.09646358320006       -4.95579436992656       -0.10345662875096
C            5.27670503203053       -0.17319589282113        0.34214156931582
H            2.83246168508663        0.44208212336768       -0.99169986948709
H            2.80400345726179        0.57964197339203        0.78008222364547
H            6.13745274065223       -2.73033696362026        0.50913128652078
H            4.79614365148453       -4.79362969861271        0.33205812094544
H            1.34094855872818       -2.34082286824647       -0.22721636384745
H            2.27052125798547       -5.41925189430870       -1.07484285995496
H            2.35833118224562       -5.68937843280416        0.65569750025708
H            1.03990257493967       -4.71816572775548       -0.02292014981845
H            5.15826099747312        0.45087795978062       -0.54341961353850
H            4.98225260906389        0.42021537891138        1.20858477512793
H            6.33046101226370       -0.41256343844713        0.44810042677923

          :  Hamiltonian                  GFN2-xTB          :
         :: total energy             -30.277789445558 Eh    ::
         :: gradient norm              0.000659586888 Eh/a0 ::
         :: HOMO-LUMO gap              3.319768882697 eV    ::
         :: SCC energy               -30.826775107985 Eh    ::
         :: -> dispersion             -0.017061005543 Eh    ::
         :: repulsion energy           0.548985662427 Eh    ::

    * Orbital Energies and Occupations

         #    Occupation            Energy/Eh            Energy/eV
      -------------------------------------------------------------
         1        2.0000           -0.8848123             -24.0770
       ...           ...                  ...                  ...
        16        2.0000           -0.6783155             -18.4579
        17        2.0000           -0.6632517             -18.0480
        18        2.0000           -0.6610052             -17.9869
        19        2.0000           -0.6470556             -17.6073
        20        2.0000           -0.6428001             -17.4915
        21        2.0000           -0.6378648             -17.3572
        22        2.0000           -0.6266744             -17.0527
        23        2.0000           -0.6250904             -17.0096
        24        2.0000           -0.6179714             -16.8159
        25        2.0000           -0.6129883             -16.6803
        26        2.0000           -0.6058171             -16.4851
        27        2.0000           -0.5838196             -15.8865
        28        2.0000           -0.5797634             -15.7762 (HOMO)
        29                         -0.4577642             -12.4564 (LUMO)
        30                         -0.4211837             -11.4610
        31                         -0.3777439             -10.2789
        32                         -0.3605163              -9.8101
        33                         -0.3066997              -8.3457
        34                         -0.1783086              -4.8520
        35                         -0.0923040              -2.5117
        36                         -0.0764842              -2.0812
        37                         -0.0515331              -1.4023
        38                         -0.0438681              -1.1937
        39                         -0.0309358              -0.8418
       ...                                ...                  ...
        55                          0.9942593              27.0552
      -------------------------------------------------------------
                  HL-Gap            0.1219993 Eh            3.3198 eV

     #   Z          covCN         q      C6AA      α(0)
     1   6 C        1.893     0.111    28.373     8.603
     2   7 N        0.911    -0.142    24.081     7.097
     3   6 C        3.757    -0.019    20.958     6.527
     4   7 N        2.752     0.082    19.826     6.613
     5   6 C        2.926     0.082    26.161     8.388
     6   6 C        2.918    -0.027    28.674     8.781
     7   6 C        2.927    -0.003    28.095     8.692
     8   6 C        2.961     0.046    26.958     8.516
     9   6 C        2.887     0.016    27.651     8.621
    10   6 C        3.759    -0.134    23.119     6.855
    11   6 C        3.758    -0.138    23.218     6.870
    12   1 H        0.923     0.124     1.584     1.968
    13   1 H        0.924     0.125     1.573     1.961
    14   1 H        0.926     0.102     1.768     2.080
    15   1 H        0.926     0.103     1.759     2.074
    16   1 H        0.926     0.106     1.729     2.056
    17   1 H        0.924     0.100     1.787     2.090
    18   1 H        0.925     0.095     1.835     2.119
    19   1 H        0.925     0.082     1.962     2.190
    20   1 H        0.925     0.094     1.836     2.119
    21   1 H        0.924     0.096     1.820     2.110
    22   1 H        0.925     0.099     1.796     2.096

Wiberg/Mayer (AO) data.
largest (>0.10) Wiberg bond orders for each atom

     #   Z sym  total        # sym  WBO       # sym  WBO       # sym  WBO
 ---------------------------------------------------------------------------
     1   6 C    3.957 --     2 N    2.888     3 C    1.032
     2   7 N    3.035 --     1 C    2.888
     3   6 C    3.955 --     1 C    1.032     4 N    0.965    13 H    0.924
                            12 H    0.922
     4   7 N    3.737 --     9 C    1.298     5 C    1.287     3 C    0.965
     5   6 C    3.959 --     6 C    1.390     4 N    1.287    11 C    1.052
     6   6 C    3.983 --     7 C    1.472     5 C    1.390    14 H    0.958
     7   6 C    3.974 --     6 C    1.472     8 C    1.348    15 H    0.961
     8   6 C    3.981 --     9 C    1.437     7 C    1.348    10 C    1.046
     9   6 C    3.956 --     8 C    1.437     4 N    1.298    16 H    0.946
    10   6 C    3.981 --     8 C    1.046    19 H    0.978    18 H    0.961
                            17 H    0.944
    11   6 C    3.979 --     5 C    1.052    22 H    0.974    20 H    0.949
                            21 H    0.943
    12   1 H    0.985 --     3 C    0.922
    13   1 H    0.984 --     3 C    0.924
    14   1 H    0.989 --     6 C    0.958
    15   1 H    0.989 --     7 C    0.961
    16   1 H    0.988 --     9 C    0.946
    17   1 H    0.989 --    10 C    0.944
    18   1 H    0.990 --    10 C    0.961
    19   1 H    0.993 --    10 C    0.978
    20   1 H    0.990 --    11 C    0.949
    21   1 H    0.990 --    11 C    0.943
    22   1 H    0.990 --    11 C    0.974
 ---------------------------------------------------------------------------

molecular dipole:
                 x           y           z       tot (Debye)
 q only:        7.204      -3.741       0.158
   full:        7.690      -3.650       0.151      21.640

           -------------------------------------------------
          | TOTAL ENERGY              -30.277789445558 Eh   |
          | GRADIENT NORM               0.000659586888 Eh/α |
          | HOMO-LUMO GAP               3.319768882697 eV   |
           -------------------------------------------------

 * finished run on 2024/12/20 at 07:13:14.115
