   * xtb version 6.7.1 (edcfbbe) compiled by 'conda@3ef47c1a292c' on 2024-11-25

   ID    Z sym.   atoms
    1    6 C      1-16, 18, 19, 21, 23-25
    2    7 N      17
    3    8 O      20, 22
    4    1 H      26-71

          program call               : xtb C1166.xyz --opt --namespace C1166 --charge +1
          :  Hamiltonian                  GFN2-xTB          :
 * total energy  :   -81.2537869 Eh     change       -0.6452723E-09 Eh
 * total energy  :   -81.2632003 Eh     change       -0.9413470E-02 Eh
 * total energy  :   -81.2653984 Eh     change       -0.2198063E-02 Eh
 * total energy  :   -81.2657117 Eh     change       -0.3133172E-03 Eh
 * total energy  :   -81.2660702 Eh     change       -0.3585225E-03 Eh
 * total energy  :   -81.2662523 Eh     change       -0.1820305E-03 Eh
 * total energy  :   -81.2665413 Eh     change       -0.2890615E-03 Eh
 * total energy  :   -81.2667280 Eh     change       -0.1867144E-03 Eh
 * total energy  :   -81.2668575 Eh     change       -0.1294497E-03 Eh
 * total energy  :   -81.2669458 Eh     change       -0.8827969E-04 Eh
 * total energy  :   -81.2677586 Eh     change       -0.1172961E-04 Eh
 * total energy  :   -81.2677703 Eh     change       -0.1175145E-04 Eh
 * total energy  :   -81.2677798 Eh     change       -0.9499607E-05 Eh
 * total energy  :   -81.2677871 Eh     change       -0.7220489E-05 Eh
 * total energy  :   -81.2677930 Eh     change       -0.5916043E-05 Eh
 * total energy  :   -81.2677984 Eh     change       -0.5450232E-05 Eh
 * total energy  :   -81.2678036 Eh     change       -0.5201012E-05 Eh
 * total energy  :   -81.2678086 Eh     change       -0.5003653E-05 Eh
 * total energy  :   -81.2678134 Eh     change       -0.4734182E-05 Eh
   *** GEOMETRY OPTIMIZATION CONVERGED AFTER 43 ITERATIONS ***

 final structure:
================
71
 xtb: 6.7.1 (edcfbbe)
C            0.89559473405911        0.50217279688343       -0.61905915806555
C            1.03195669946869       -1.01407172802491       -0.69431073158725
C            1.43180957445222       -1.65170659750808        0.63732872418712
C            0.43552161187959       -1.44081168223722        1.77922998034355
C           -0.97045520635972       -1.98400028753699        1.51890790015598
C           -1.04641717456732       -3.49401289524038        1.28451090401657
C           -0.54721317106608       -4.35625734838212        2.44649927687283
C           -1.23274036469323       -4.09355330971145        3.78929359252060
C           -2.75480940416117       -4.24397027969292        3.77738138160705
C           -3.25954355079471       -5.65282308700185        3.46076296055929
C           -2.89056728866379       -6.71944594495347        4.49454845984894
C           -3.34783721623863       -6.42401564234585        5.92600198346459
C           -4.83726837904983       -6.10762365571214        6.07959215268522
C           -5.77181195301318       -7.26308298088492        5.71015425849805
C           -5.82845553392365       -8.36129946131224        6.77952079693616
C           -6.59736417867166       -7.94624115280520        8.04011844808496
N           -7.98550402569609       -8.49545306996930        8.17769375974835
C           -8.03936235762675       -9.99061672334586        8.18971341172093
C           -7.03825158830456      -10.75205951812077        9.06377114351611
O           -7.37294334282031      -10.77280148586897       10.44349060316068
C           -6.63614023349859      -10.01395449191626       11.28472274391545
O           -5.85061495098964       -9.19718170730041       10.87542879379991
C           -6.94772425852299      -10.31207643012374       12.71026592246839
C           -8.55753302458319       -7.95274900195730        9.42655916417705
C           -8.82885472271073       -8.03634440574583        7.05662995203538
H            0.06497914353595        0.79095921144901        0.02003144103376
H            0.71712782212947        0.91392237913687       -1.60983628948577
H            1.80617736104123        0.94674347263052       -0.22304623879229
H            0.09420344394492       -1.44683942212979       -1.04747394918374
H            1.79988214783541       -1.26189515290367       -1.43124012368566
H            1.58198625062783       -2.72203335707200        0.48102999629188
H            2.39274743847170       -1.23291269600401        0.94737765588911
H            0.84261142683118       -1.90885153248376        2.67811112669144
H            0.35424523212087       -0.37206930037464        1.98685225498650
H           -1.60203878074116       -1.71845842896782        2.36971335087412
H           -1.39100299267319       -1.48308752093588        0.64482876389331
H           -2.08432499645708       -3.75403317216892        1.06269189037449
H           -0.46152532875298       -3.74849728579754        0.39868951347999
H           -0.67574623115674       -5.40607826797083        2.17218550620658
H            0.52408805057885       -4.19313808678949        2.57814480028597
H           -0.80607286189813       -4.77226198637549        4.53136259786696
H           -0.99664211418761       -3.07880054520746        4.11486215435496
H           -3.13802037147798       -3.92975770216034        4.75084027817290
H           -3.17289356156613       -3.56033047975157        3.03685415478505
H           -4.34650246818691       -5.61494088061454        3.35199892078045
H           -2.85805445756951       -5.96602698766014        2.49596955359411
H           -3.30727397680514       -7.67451665628747        4.16402114295183
H           -1.80662439140837       -6.84083969358890        4.51104498904614
H           -3.08475279341989       -7.27899918951768        6.55379493037600
H           -2.78583485998388       -5.56995596434387        6.30542490822365
H           -5.01607799345451       -5.80206563469979        7.11376705416810
H           -5.07934434501895       -5.25371236745478        5.44771439324729
H           -6.77106219434590       -6.86405179387949        5.52562125338144
H           -5.42622774750124       -7.70604434848278        4.77691706351643
H           -6.24600861945612       -9.26953607424416        6.34535207250555
H           -4.80442277576325       -8.60010659062149        7.06688405947219
H           -6.04674939256070       -8.22811317361267        8.93995990051482
H           -6.69175417936365       -6.85867477775860        8.05056865464836
H           -9.04637472604769      -10.28080031803369        8.49909413598802
H           -7.88838430122349      -10.33887820384387        7.16710376190478
H           -7.07231295431869      -11.79772815762201        8.74338359666688
H           -6.01776508474642      -10.37776244841890        8.94166672416208
H           -7.93276344015306      -10.75814836445923       12.80256131738319
H           -6.20920306545816      -11.02430963887820       13.07682749590112
H           -6.86397484397434       -9.40974233262710       13.30969760603711
H           -7.92166867508848       -8.19092359185748       10.27421046872705
H           -8.63468205290471       -6.86893172659657        9.35865590030313
H           -9.55130776516019       -8.36237023744095        9.59871732024478
H           -8.85574750922587       -6.94846605729165        7.03610671994217
H           -8.43400439168105       -8.39344453138780        6.10861267185738
H           -9.84606276733175       -8.40662029424707        7.17472807566472

          :  Hamiltonian                  GFN2-xTB          :
         :: total energy             -81.267813362993 Eh    ::
         :: gradient norm              0.000416016978 Eh/a0 ::
         :: HOMO-LUMO gap              2.432631532381 eV    ::
         :: SCC energy               -82.361700987120 Eh    ::
         :: -> dispersion             -0.060072403985 Eh    ::
         :: repulsion energy           1.093887624127 Eh    ::

    * Orbital Energies and Occupations

         #    Occupation            Energy/Eh            Energy/eV
      -------------------------------------------------------------
         1        2.0000           -0.8793641             -23.9287
       ...           ...                  ...                  ...
        63        2.0000           -0.5095087             -13.8644
        64        2.0000           -0.5031514             -13.6914
        65        2.0000           -0.5003873             -13.6162
        66        2.0000           -0.4934456             -13.4273
        67        2.0000           -0.4882861             -13.2869
        68        2.0000           -0.4847762             -13.1914
        69        2.0000           -0.4808954             -13.0858
        70        2.0000           -0.4702499             -12.7962
        71        2.0000           -0.4695342             -12.7767
        72        2.0000           -0.4669005             -12.7050
        73        2.0000           -0.4574288             -12.4473
        74        2.0000           -0.4516577             -12.2902
        75        2.0000           -0.4505221             -12.2593 (HOMO)
        76                         -0.3611246              -9.8267 (LUMO)
        77                         -0.2323772              -6.3233
        78                         -0.1740783              -4.7369
        79                         -0.1516741              -4.1273
        80                         -0.1454604              -3.9582
        81                         -0.1330405              -3.6202
        82                         -0.0626400              -1.7045
        83                         -0.0604603              -1.6452
        84                         -0.0516996              -1.4068
        85                         -0.0303659              -0.8263
        86                         -0.0223017              -0.6069
       ...                                ...                  ...
       146                          0.5183130              14.1040
      -------------------------------------------------------------
                  HL-Gap            0.0893976 Eh            2.4326 eV

     #   Z          covCN         q      C6AA      α(0)
     1   6 C        3.751    -0.102    22.501     6.765
     2   6 C        3.799    -0.052    21.509     6.603
     3   6 C        3.800    -0.057    21.602     6.617
     4   6 C        3.800    -0.057    21.598     6.617
     5   6 C        3.800    -0.056    21.589     6.616
     6   6 C        3.800    -0.057    21.593     6.616
     7   6 C        3.800    -0.057    21.596     6.617
     8   6 C        3.800    -0.057    21.605     6.618
     9   6 C        3.800    -0.058    21.621     6.620
    10   6 C        3.800    -0.059    21.631     6.622
    11   6 C        3.800    -0.059    21.641     6.623
    12   6 C        3.800    -0.061    21.677     6.629
    13   6 C        3.800    -0.065    21.743     6.639
    14   6 C        3.800    -0.069    21.831     6.652
    15   6 C        3.799    -0.074    21.913     6.665
    16   6 C        3.758    -0.052    21.565     6.621
    17   7 N        3.620     0.133    18.976     6.470
    18   6 C        3.759    -0.044    21.418     6.598
    19   6 C        3.695     0.061    19.717     6.352
    20   8 O        1.704    -0.266    18.417     5.794
    21   6 C        2.710     0.362    20.855     7.475
    22   8 O        0.856    -0.418    22.036     6.294
    23   6 C        3.754    -0.157    23.595     6.926
    24   6 C        3.726    -0.091    22.345     6.749
    25   6 C        3.728    -0.095    22.425     6.761
    26   1 H        0.925     0.033     2.538     2.491
    27   1 H        0.925     0.032     2.563     2.503
    28   1 H        0.925     0.034     2.530     2.487
    29   1 H        0.924     0.030     2.591     2.517
    30   1 H        0.924     0.027     2.623     2.533
    31   1 H        0.924     0.028     2.614     2.528
    32   1 H        0.924     0.029     2.600     2.522
    33   1 H        0.924     0.028     2.619     2.531
    34   1 H        0.924     0.032     2.565     2.504
    35   1 H        0.924     0.026     2.649     2.545
    36   1 H        0.924     0.032     2.560     2.502
    37   1 H        0.924     0.025     2.665     2.553
    38   1 H        0.924     0.033     2.544     2.494
    39   1 H        0.924     0.025     2.655     2.548
    40   1 H        0.924     0.033     2.540     2.492
    41   1 H        0.924     0.026     2.640     2.541
    42   1 H        0.924     0.034     2.532     2.488
    43   1 H        0.924     0.024     2.666     2.554
    44   1 H        0.924     0.036     2.505     2.475
    45   1 H        0.924     0.022     2.700     2.570
    46   1 H        0.924     0.039     2.463     2.454
    47   1 H        0.924     0.022     2.696     2.568
    48   1 H        0.924     0.041     2.433     2.439
    49   1 H        0.924     0.026     2.651     2.546
    50   1 H        0.924     0.045     2.385     2.415
    51   1 H        0.924     0.025     2.659     2.550
    52   1 H        0.925     0.051     2.308     2.376
    53   1 H        0.924     0.029     2.602     2.522
    54   1 H        0.925     0.060     2.203     2.321
    55   1 H        0.925     0.042     2.423     2.434
    56   1 H        0.925     0.075     2.032     2.229
    57   1 H        0.924     0.111     1.686     2.030
    58   1 H        0.924     0.091     1.872     2.140
    59   1 H        0.924     0.100     1.784     2.089
    60   1 H        0.924     0.094     1.842     2.122
    61   1 H        0.924     0.094     1.839     2.121
    62   1 H        0.924     0.088     1.903     2.158
    63   1 H        0.925     0.090     1.882     2.145
    64   1 H        0.925     0.111     1.692     2.034
    65   1 H        0.925     0.097     1.811     2.104
    66   1 H        0.925     0.104     1.750     2.069
    67   1 H        0.925     0.096     1.824     2.112
    68   1 H        0.925     0.092     1.861     2.133
    69   1 H        0.925     0.101     1.777     2.085
    70   1 H        0.925     0.103     1.759     2.074
    71   1 H        0.925     0.093     1.847     2.125

Wiberg/Mayer (AO) data.
largest (>0.10) Wiberg bond orders for each atom

     #   Z sym  total        # sym  WBO       # sym  WBO       # sym  WBO
 ---------------------------------------------------------------------------
     1   6 C    3.997 --     2 C    1.020    28 H    0.988    27 H    0.987
                            26 H    0.986
     2   6 C    3.998 --     1 C    1.020     3 C    1.008    30 H    0.978
                            29 H    0.976
     3   6 C    3.998 --     2 C    1.008     4 C    1.008    32 H    0.977
                            31 H    0.976
     4   6 C    3.998 --     5 C    1.008     3 C    1.008    34 H    0.975
                            33 H    0.975
     5   6 C    3.998 --     4 C    1.008     6 C    1.008    35 H    0.975
                            36 H    0.974
     6   6 C    3.997 --     5 C    1.008     7 C    1.007    37 H    0.975
                            38 H    0.975
     7   6 C    3.997 --     8 C    1.008     6 C    1.007    39 H    0.976
                            40 H    0.975
     8   6 C    3.997 --     9 C    1.008     7 C    1.008    41 H    0.975
                            42 H    0.975
     9   6 C    3.997 --     8 C    1.008    10 C    1.008    43 H    0.974
                            44 H    0.973
    10   6 C    3.997 --     9 C    1.008    11 C    1.007    45 H    0.976
                            46 H    0.974
    11   6 C    3.997 --    10 C    1.007    12 C    1.007    47 H    0.975
                            48 H    0.974
    12   6 C    3.996 --    13 C    1.008    11 C    1.007    49 H    0.974
                            50 H    0.974
    13   6 C    3.995 --    12 C    1.008    14 C    1.007    51 H    0.973
                            52 H    0.972
    14   6 C    3.992 --    13 C    1.007    15 C    1.005    53 H    0.975
                            54 H    0.970
    15   6 C    3.985 --    14 C    1.005    16 C    1.004    55 H    0.968
                            56 H    0.966
    16   6 C    3.912 --    15 C    1.004    58 H    0.961    57 H    0.952
                            17 N    0.916
    17   7 N    3.809 --    24 C    0.959    25 C    0.958    18 C    0.938
                            16 C    0.916
    18   6 C    3.943 --    19 C    1.002    59 H    0.963    60 H    0.961
                            17 N    0.938
    19   6 C    3.934 --    18 C    1.002    20 O    0.962    61 H    0.957
                            62 H    0.956
    20   8 O    2.291 --    21 C    1.097    19 C    0.962    22 O    0.161
    21   6 C    3.908 --    22 O    1.736    20 O    1.097    23 C    1.014
    22   8 O    2.040 --    21 C    1.736    20 O    0.161
    23   6 C    3.984 --    21 C    1.014    63 H    0.974    65 H    0.966
                            64 H    0.936
    24   6 C    3.927 --    68 H    0.975    67 H    0.975    66 H    0.969
                            17 N    0.959
    25   6 C    3.928 --    71 H    0.976    69 H    0.973    70 H    0.971
                            17 N    0.958
    26   1 H    0.999 --     1 C    0.986
    27   1 H    0.999 --     1 C    0.987
    28   1 H    0.999 --     1 C    0.988
    29   1 H    0.999 --     2 C    0.976
    30   1 H    0.999 --     2 C    0.978
    31   1 H    0.999 --     3 C    0.976
    32   1 H    0.999 --     3 C    0.977
    33   1 H    0.999 --     4 C    0.975
    34   1 H    0.999 --     4 C    0.975
    35   1 H    0.999 --     5 C    0.975
    36   1 H    0.999 --     5 C    0.974
    37   1 H    0.999 --     6 C    0.975
    38   1 H    0.999 --     6 C    0.975
    39   1 H    0.999 --     7 C    0.976
    40   1 H    0.999 --     7 C    0.975
    41   1 H    0.999 --     8 C    0.975
    42   1 H    0.999 --     8 C    0.975
    43   1 H    0.999 --     9 C    0.974
    44   1 H    0.999 --     9 C    0.973
    45   1 H    0.999 --    10 C    0.976
    46   1 H    0.998 --    10 C    0.974
    47   1 H    0.999 --    11 C    0.975
    48   1 H    0.998 --    11 C    0.974
    49   1 H    0.999 --    12 C    0.974
    50   1 H    0.998 --    12 C    0.974
    51   1 H    0.999 --    13 C    0.973
    52   1 H    0.997 --    13 C    0.972
    53   1 H    0.999 --    14 C    0.975
    54   1 H    0.996 --    14 C    0.970
    55   1 H    0.998 --    15 C    0.968
    56   1 H    0.994 --    15 C    0.966
    57   1 H    0.988 --    16 C    0.952
    58   1 H    0.992 --    16 C    0.961
    59   1 H    0.990 --    18 C    0.963
    60   1 H    0.991 --    18 C    0.961
    61   1 H    0.991 --    19 C    0.957
    62   1 H    0.992 --    19 C    0.956
    63   1 H    0.992 --    23 C    0.974
    64   1 H    0.987 --    23 C    0.936
    65   1 H    0.990 --    23 C    0.966
    66   1 H    0.989 --    24 C    0.969
    67   1 H    0.991 --    24 C    0.975
    68   1 H    0.991 --    24 C    0.975
    69   1 H    0.989 --    25 C    0.973
    70   1 H    0.989 --    25 C    0.971
    71   1 H    0.991 --    25 C    0.976
 ---------------------------------------------------------------------------

molecular dipole:
                 x           y           z       tot (Debye)
 q only:      -14.793     -16.478      15.479
   full:      -14.925     -16.639      15.549      69.207

           -------------------------------------------------
          | TOTAL ENERGY              -81.267813362993 Eh   |
          | GRADIENT NORM               0.000416016978 Eh/α |
          | HOMO-LUMO GAP               2.432631532381 eV   |
           -------------------------------------------------

 * finished run on 2024/12/20 at 07:13:13.676
