   * xtb version 6.7.1 (edcfbbe) compiled by 'conda@3ef47c1a292c' on 2024-11-25

   ID    Z sym.   atoms
    1    6 C      1-8, 10, 12-25
    2    7 N      9, 11
    3    1 H      26-64

          program call               : xtb C1169.xyz --opt --namespace C1169 --charge +1
          :  Hamiltonian                  GFN2-xTB          :
 * total energy  :   -74.6640053 Eh     change       -0.2802580E-08 Eh
 * total energy  :   -74.6687704 Eh     change       -0.4765107E-02 Eh
 * total energy  :   -74.6696027 Eh     change       -0.8322546E-03 Eh
 * total energy  :   -74.6697879 Eh     change       -0.1851824E-03 Eh
 * total energy  :   -74.6700078 Eh     change       -0.2199446E-03 Eh
 * total energy  :   -74.6701083 Eh     change       -0.1005338E-03 Eh
 * total energy  :   -74.6702154 Eh     change       -0.1071023E-03 Eh
 * total energy  :   -74.6703330 Eh     change       -0.1175362E-03 Eh
 * total energy  :   -74.6704701 Eh     change       -0.1370997E-03 Eh
 * total energy  :   -74.6706213 Eh     change       -0.1511756E-03 Eh
 * total energy  :   -74.6738505 Eh     change       -0.5939535E-05 Eh
 * total energy  :   -74.6738623 Eh     change       -0.1184043E-04 Eh
 * total energy  :   -74.6738750 Eh     change       -0.1266687E-04 Eh
 * total energy  :   -74.6738841 Eh     change       -0.9101074E-05 Eh
 * total energy  :   -74.6738932 Eh     change       -0.9148940E-05 Eh
 * total energy  :   -74.6739041 Eh     change       -0.1088358E-04 Eh
 * total energy  :   -74.6739133 Eh     change       -0.9213047E-05 Eh
 * total energy  :   -74.6739189 Eh     change       -0.5602126E-05 Eh
 * total energy  :   -74.6739236 Eh     change       -0.4661865E-05 Eh
   *** GEOMETRY OPTIMIZATION CONVERGED AFTER 77 ITERATIONS ***

 final structure:
================
64
 xtb: 6.7.1 (edcfbbe)
C            1.91582820040366       -1.50624715255602        0.68306625345031
C            1.36955781329794       -1.67620255168688        2.09587671418577
C            1.50318762778795       -0.41581736919653        2.95318173036072
C            0.66957999865869        0.77515529328745        2.47543128917520
C           -0.84107930366352        0.59774563524259        2.65122559691418
C           -1.31391899663827        0.73610995537324        4.10154987101728
C           -1.35618226938053        2.18230122519577        4.59921896127792
C           -2.49654976546274        3.01477256171209        3.99958032340336
N           -3.78743606514040        2.61186621707606        4.51135673505601
C           -4.33342390253669        3.04541143196587        5.64353923066144
N           -5.51269036238958        2.47774964714730        5.86653552190182
C           -5.75548077911056        1.60117190539429        4.83043738553824
C           -4.65276809726122        1.69092562170995        3.95762352366470
C           -4.60048681408228        0.93935173279791        2.78831545340018
C           -5.66525145050696        0.10145844786039        2.53412300767078
C           -6.75537990904079        0.00732196991177        3.40531285546227
C           -6.82368510451949        0.75202337984574        4.56329884914001
C           -6.36206262923897        2.68164697709530        7.01595399469137
C           -6.10856701892750        1.61911243491479        8.09108705558538
C           -4.72698042531920        1.71743124783158        8.73866943093469
C           -4.45909918888652        3.02048498345370        9.49762339718472
C           -5.47485617368023        3.35125537267013       10.59390931604551
C           -5.61904363208022        2.28752272603967       11.68411021804233
C           -4.34313216552542        2.00432444610429       12.47887927267966
C           -3.84200528745730        3.21245110085941       13.26120751569583
H            1.32305132766931       -0.79811271673045        0.10938545397921
H            1.89924883910075       -2.45816893201876        0.15841421146751
H            2.94326702311828       -1.15133491847014        0.71301165935456
H            0.32489258910414       -1.99042836546789        2.04652523457203
H            1.92310955872091       -2.47741811095533        2.58980436404378
H            1.23311377365803       -0.66177974927298        3.98268743055863
H            2.55283399327769       -0.11515015510339        2.95806478451372
H            0.99564821080261        1.66667268601789        3.01552191065782
H            0.87887774195519        0.94878322452725        1.41984577253378
H           -1.34865547933551        1.33397274949129        2.02309919416208
H           -1.12580953236445       -0.38881573849955        2.28471064516702
H           -2.30214737581505        0.28245665751733        4.21197482858521
H           -0.63392576578581        0.17607509119682        4.74358307385501
H           -1.45115764126516        2.19213317027958        5.68753854835928
H           -0.41859936596419        2.67724183380467        4.34735860675003
H           -2.34934849326645        4.06863633153621        4.24628824354384
H           -2.51374643612387        2.91188045384824        2.91436233645615
H           -3.88433041672688        3.78056833726333        6.28496492761743
H           -3.76594539049924        1.00043897934727        2.11033097260481
H           -5.66010492498626       -0.49911621558474        1.63872419618204
H           -7.56242214628645       -0.66462591686663        3.16125947992054
H           -7.66745418771391        0.67693508810397        5.22916900010974
H           -6.17200609251047        3.67784102456126        7.41711602912496
H           -7.39977148462646        2.63272216476285        6.67998883813602
H           -6.87727570613077        1.72816521469751        8.85447343114763
H           -6.22298523769467        0.62871113544544        7.64512713822457
H           -4.62515146653376        0.88228280660034        9.43152348957085
H           -3.95423046580763        1.58898996584807        7.97364041550188
H           -3.46697306823529        2.94677936158330        9.94457075962151
H           -4.42670911656379        3.86288046861948        8.80025486111330
H           -5.17308742585793        4.29170875941440       11.05662715676128
H           -6.45652889011004        3.52238676872102       10.14547570111939
H           -6.38959410936293        2.62666414759419       12.37984217227117
H           -5.97339445520472        1.35352671482117       11.24239453703974
H           -4.55938936376463        1.19737616755127       13.18207013399195
H           -3.55538104039427        1.64795907298117       11.81210120739346
H           -4.63159373163987        3.60747641836071       13.89609243619824
H           -3.00604848459190        2.92787046678383       13.89509331651011
H           -3.50482006118760        4.00441831749291       12.59698999833661

          :  Hamiltonian                  GFN2-xTB          :
         :: total energy             -74.673923600425 Eh    ::
         :: gradient norm              0.000201625639 Eh/a0 ::
         :: HOMO-LUMO gap              2.173516429589 eV    ::
         :: SCC energy               -75.842267343465 Eh    ::
         :: -> dispersion             -0.058515655549 Eh    ::
         :: repulsion energy           1.168343743040 Eh    ::

    * Orbital Energies and Occupations

         #    Occupation            Energy/Eh            Energy/eV
      -------------------------------------------------------------
         1        2.0000           -0.8745556             -23.7979
       ...           ...                  ...                  ...
        58        2.0000           -0.5368727             -14.6090
        59        2.0000           -0.5326482             -14.4941
        60        2.0000           -0.5285600             -14.3828
        61        2.0000           -0.5268297             -14.3358
        62        2.0000           -0.5234933             -14.2450
        63        2.0000           -0.5223066             -14.2127
        64        2.0000           -0.5170828             -14.0705
        65        2.0000           -0.5016702             -13.6511
        66        2.0000           -0.4978706             -13.5477
        67        2.0000           -0.4977946             -13.5457
        68        2.0000           -0.4935310             -13.4297
        69        2.0000           -0.4933445             -13.4246
        70        2.0000           -0.4892482             -13.3131 (HOMO)
        71                         -0.4093729             -11.1396 (LUMO)
        72                         -0.3597863              -9.7903
        73                         -0.3513338              -9.5603
        74                         -0.2342273              -6.3736
        75                         -0.1709169              -4.6509
        76                         -0.1256963              -3.4204
        77                         -0.0684078              -1.8615
        78                         -0.0457486              -1.2449
        79                         -0.0449069              -1.2220
        80                         -0.0348569              -0.9485
        81                         -0.0289051              -0.7865
       ...                                ...                  ...
       139                          0.5437463              14.7961
      -------------------------------------------------------------
                  HL-Gap            0.0798753 Eh            2.1735 eV

     #   Z          covCN         q      C6AA      α(0)
     1   6 C        3.751    -0.105    22.564     6.774
     2   6 C        3.799    -0.054    21.544     6.609
     3   6 C        3.801    -0.061    21.670     6.628
     4   6 C        3.800    -0.062    21.699     6.632
     5   6 C        3.800    -0.061    21.676     6.629
     6   6 C        3.800    -0.065    21.739     6.638
     7   6 C        3.801    -0.067    21.790     6.646
     8   6 C        3.741    -0.020    21.001     6.538
     9   7 N        2.826     0.032    20.689     6.756
    10   6 C        3.079     0.066    26.439     8.430
    11   7 N        2.826     0.036    20.614     6.743
    12   6 C        3.125     0.039    26.950     8.501
    13   6 C        3.119     0.042    26.897     8.494
    14   6 C        2.909    -0.033    28.816     8.802
    15   6 C        2.925    -0.019    28.485     8.753
    16   6 C        2.925    -0.019    28.473     8.751
    17   6 C        2.908    -0.033    28.821     8.803
    18   6 C        3.741    -0.020    21.001     6.538
    19   6 C        3.801    -0.069    21.815     6.650
    20   6 C        3.800    -0.063    21.704     6.633
    21   6 C        3.800    -0.060    21.654     6.626
    22   6 C        3.800    -0.062    21.683     6.630
    23   6 C        3.801    -0.061    21.673     6.628
    24   6 C        3.799    -0.054    21.547     6.609
    25   6 C        3.751    -0.105    22.565     6.774
    26   1 H        0.925     0.033     2.549     2.497
    27   1 H        0.925     0.038     2.470     2.458
    28   1 H        0.925     0.039     2.460     2.453
    29   1 H        0.924     0.027     2.633     2.537
    30   1 H        0.924     0.035     2.517     2.481
    31   1 H        0.924     0.027     2.626     2.534
    32   1 H        0.924     0.039     2.456     2.451
    33   1 H        0.924     0.029     2.603     2.523
    34   1 H        0.925     0.045     2.387     2.416
    35   1 H        0.924     0.021     2.712     2.576
    36   1 H        0.924     0.045     2.380     2.413
    37   1 H        0.924     0.026     2.648     2.545
    38   1 H        0.925     0.057     2.238     2.339
    39   1 H        0.924     0.043     2.407     2.426
    40   1 H        0.925     0.072     2.068     2.249
    41   1 H        0.924     0.073     2.057     2.243
    42   1 H        0.924     0.087     1.906     2.159
    43   1 H        0.926     0.103     1.761     2.075
    44   1 H        0.926     0.075     2.034     2.230
    45   1 H        0.926     0.078     1.998     2.210
    46   1 H        0.926     0.078     1.999     2.211
    47   1 H        0.926     0.070     2.087     2.259
    48   1 H        0.924     0.082     1.958     2.188
    49   1 H        0.924     0.080     1.979     2.200
    50   1 H        0.925     0.075     2.034     2.230
    51   1 H        0.924     0.049     2.333     2.389
    52   1 H        0.925     0.060     2.202     2.320
    53   1 H        0.924     0.019     2.753     2.595
    54   1 H        0.924     0.048     2.349     2.397
    55   1 H        0.924     0.014     2.824     2.628
    56   1 H        0.924     0.045     2.380     2.413
    57   1 H        0.924     0.025     2.654     2.547
    58   1 H        0.924     0.040     2.455     2.451
    59   1 H        0.924     0.027     2.627     2.535
    60   1 H        0.924     0.035     2.512     2.479
    61   1 H        0.924     0.028     2.620     2.531
    62   1 H        0.925     0.039     2.456     2.451
    63   1 H        0.925     0.039     2.465     2.455
    64   1 H        0.925     0.032     2.551     2.498

Wiberg/Mayer (AO) data.
largest (>0.10) Wiberg bond orders for each atom

     #   Z sym  total        # sym  WBO       # sym  WBO       # sym  WBO
 ---------------------------------------------------------------------------
     1   6 C    3.996 --     2 C    1.020    28 H    0.987    27 H    0.987
                            26 H    0.985
     2   6 C    3.997 --     1 C    1.020     3 C    1.008    30 H    0.978
                            29 H    0.974
     3   6 C    3.996 --     4 C    1.008     2 C    1.008    32 H    0.976
                            31 H    0.974
     4   6 C    3.996 --     3 C    1.008     5 C    1.007    33 H    0.973
                            34 H    0.973
     5   6 C    3.996 --     4 C    1.007     6 C    1.007    36 H    0.972
                            35 H    0.972
     6   6 C    3.993 --     7 C    1.008     5 C    1.007    37 H    0.975
                            38 H    0.969
     7   6 C    3.984 --     6 C    1.008     8 C    0.984    39 H    0.975
                            40 H    0.964
     8   6 C    3.940 --     7 C    0.984     9 N    0.968    41 H    0.966
                            42 H    0.959
     9   7 N    3.682 --    10 C    1.365    13 C    1.131     8 C    0.968
                            11 N    0.103
    10   6 C    3.955 --    11 N    1.370     9 N    1.365    43 H    0.953
    11   7 N    3.687 --    10 C    1.370    12 C    1.131    18 C    0.970
                             9 N    0.103
    12   6 C    3.954 --    17 C    1.336    13 C    1.272    11 N    1.131
    13   6 C    3.954 --    14 C    1.334    12 C    1.272     9 N    1.131
    14   6 C    3.985 --    15 C    1.499    13 C    1.334    44 H    0.960
                            17 C    0.119
    15   6 C    3.986 --    14 C    1.499    16 C    1.373    45 H    0.966
    16   6 C    3.986 --    17 C    1.499    15 C    1.373    46 H    0.966
    17   6 C    3.986 --    16 C    1.499    12 C    1.336    47 H    0.963
                            14 C    0.119
    18   6 C    3.940 --    19 C    0.983    11 N    0.970    49 H    0.963
                            48 H    0.963
    19   6 C    3.985 --    20 C    1.009    18 C    0.983    51 H    0.975
                            50 H    0.964
    20   6 C    3.994 --    19 C    1.009    21 C    1.007    53 H    0.975
                            52 H    0.970
    21   6 C    3.996 --    22 C    1.007    20 C    1.007    55 H    0.974
                            54 H    0.973
    22   6 C    3.996 --    23 C    1.008    21 C    1.007    57 H    0.975
                            56 H    0.973
    23   6 C    3.997 --    24 C    1.008    22 C    1.008    58 H    0.976
                            59 H    0.975
    24   6 C    3.998 --    25 C    1.020    23 C    1.008    60 H    0.978
                            61 H    0.976
    25   6 C    3.996 --    24 C    1.020    62 H    0.987    63 H    0.987
                            64 H    0.986
    26   1 H    0.999 --     1 C    0.985
    27   1 H    0.998 --     1 C    0.987
    28   1 H    0.998 --     1 C    0.987
    29   1 H    0.999 --     2 C    0.974
    30   1 H    0.999 --     2 C    0.978
    31   1 H    0.999 --     3 C    0.974
    32   1 H    0.998 --     3 C    0.976
    33   1 H    0.999 --     4 C    0.973
    34   1 H    0.998 --     4 C    0.973
    35   1 H    1.000 --     5 C    0.972
    36   1 H    0.998 --     5 C    0.972
    37   1 H    0.999 --     6 C    0.975
    38   1 H    0.996 --     6 C    0.969
    39   1 H    0.998 --     7 C    0.975
    40   1 H    0.994 --     7 C    0.964
    41   1 H    0.994 --     8 C    0.966
    42   1 H    0.992 --     8 C    0.959
    43   1 H    0.989 --    10 C    0.953
    44   1 H    0.994 --    14 C    0.960
    45   1 H    0.993 --    15 C    0.966
    46   1 H    0.993 --    16 C    0.966
    47   1 H    0.995 --    17 C    0.963
    48   1 H    0.993 --    18 C    0.963
    49   1 H    0.993 --    18 C    0.963
    50   1 H    0.993 --    19 C    0.964
    51   1 H    0.998 --    19 C    0.975
    52   1 H    0.996 --    20 C    0.970
    53   1 H    1.000 --    20 C    0.975
    54   1 H    0.998 --    21 C    0.973
    55   1 H    1.000 --    21 C    0.974
    56   1 H    0.998 --    22 C    0.973
    57   1 H    0.999 --    22 C    0.975
    58   1 H    0.998 --    23 C    0.976
    59   1 H    0.999 --    23 C    0.975
    60   1 H    0.999 --    24 C    0.978
    61   1 H    0.999 --    24 C    0.976
    62   1 H    0.998 --    25 C    0.987
    63   1 H    0.998 --    25 C    0.987
    64   1 H    0.999 --    25 C    0.986
 ---------------------------------------------------------------------------

molecular dipole:
                 x           y           z       tot (Debye)
 q only:       -8.493       3.841       9.878
   full:       -8.516       4.069       9.929      34.818

           -------------------------------------------------
          | TOTAL ENERGY              -74.673923600425 Eh   |
          | GRADIENT NORM               0.000201625639 Eh/α |
          | HOMO-LUMO GAP               2.173516429589 eV   |
           -------------------------------------------------

 * finished run on 2024/12/20 at 07:13:20.030
