   * xtb version 6.7.1 (edcfbbe) compiled by 'conda@3ef47c1a292c' on 2024-11-25

   ID    Z sym.   atoms
    1    6 C      1, 2, 4-15
    2    7 N      3
    3    1 H      16-45

          program call               : xtb C1160.xyz --opt --namespace C1160 --charge +1
          :  Hamiltonian                  GFN2-xTB          :
 * total energy  :   -47.8098757 Eh     change       -0.1004281E-09 Eh
 * total energy  :   -47.8175523 Eh     change       -0.7676563E-02 Eh
 * total energy  :   -47.8195545 Eh     change       -0.2002224E-02 Eh
 * total energy  :   -47.8198229 Eh     change       -0.2683340E-03 Eh
 * total energy  :   -47.8200197 Eh     change       -0.1968388E-03 Eh
 * total energy  :   -47.8200637 Eh     change       -0.4400688E-04 Eh
 * total energy  :   -47.8201455 Eh     change       -0.8179818E-04 Eh
 * total energy  :   -47.8201853 Eh     change       -0.3981091E-04 Eh
 * total energy  :   -47.8202444 Eh     change       -0.5904879E-04 Eh
 * total energy  :   -47.8202755 Eh     change       -0.3112672E-04 Eh
 * total energy  :   -47.8202929 Eh     change       -0.1741111E-04 Eh
 * total energy  :   -47.8203189 Eh     change       -0.2602755E-04 Eh
 * total energy  :   -47.8203305 Eh     change       -0.1156220E-04 Eh
 * total energy  :   -47.8203294 Eh     change        0.1046580E-05 Eh
 * total energy  :   -47.8203375 Eh     change       -0.8102945E-05 Eh
 * total energy  :   -47.8203433 Eh     change       -0.5742622E-05 Eh
 * total energy  :   -47.8203481 Eh     change       -0.4833670E-05 Eh
   *** GEOMETRY OPTIMIZATION CONVERGED AFTER 17 ITERATIONS ***

 final structure:
================
45
 xtb: 6.7.1 (edcfbbe)
C            0.71771449350033        0.60691950187762        0.15662847994655
C            0.78647274812140       -0.51179509094042        1.18921587103461
N            1.20494904951943        0.01478732892373        2.56363483673925
C            0.42345748749631        1.19984588257168        2.96130909826629
C            1.04169667069596       -1.02376351617235        3.60084638933249
C            2.63682638814765        0.37550176238511        2.53100220638083
C           -0.54132485322745       -1.27715317334071        1.23961155644734
C           -1.03490506741222       -1.83892981674565       -0.11492652323763
C           -0.00863180058462       -2.79980255006319       -0.72006190226864
C           -0.31366289286038       -3.30659434019038       -2.13177022849853
C           -1.49550767340329       -4.26682779323754       -2.31082202501102
C           -1.64642970905756       -5.33607269828078       -1.22209407216617
C           -2.70393181981346       -5.02378278781429       -0.16090099549628
C           -2.40744295193170       -3.86216971171651        0.79017419238741
C           -2.41375292447019       -2.47954677001552        0.12182432567438
H           -0.19207723811399        1.19232681300037        0.26199381959861
H            0.70719817773327        0.15765455267448       -0.83234122525857
H            1.57516275629900        1.27291907421094        0.18569351044914
H            1.58313866140261       -1.20789694447206        0.91203923999589
H           -0.64127389222999        0.98474716381582        2.90999274069219
H            0.67128471596944        1.47693055885564        3.98462840448355
H            0.64702701831619        2.04218574796939        2.31198122439425
H            1.50137934236590       -1.95595935230603        3.27760724114697
H            1.52716714760206       -0.70042856577575        4.52048289758013
H           -0.01003274794624       -1.19516300956255        3.81471985551037
H            3.24215412916874       -0.50794641510705        2.33572789188947
H            2.83812476826872        1.11325618725836        1.75901957672905
H            2.93476129035252        0.79663010542158        3.48979925173352
H           -0.45928302462396       -2.13203911696246        1.90878911389232
H           -1.32474848998824       -0.61774054860810        1.61773576157813
H           -1.18698177424269       -1.00767419720650       -0.80918253973335
H            0.95356730188817       -2.28512158314050       -0.79142003377768
H            0.13254223662298       -3.65033384130518       -0.05445771188887
H            0.58764518397290       -3.82333640584883       -2.47101850296712
H           -0.46061587747652       -2.44969038309660       -2.79357087021848
H           -1.34337503418297       -4.76338537930480       -3.27136458445612
H           -2.42882548364920       -3.71248503408959       -2.40262643252539
H           -0.68303977620768       -5.53060175010773       -0.74811145288904
H           -1.95203804672686       -6.26914348979032       -1.69921113468688
H           -2.83751404470352       -5.92113746085564        0.44830733245184
H           -3.65534932387786       -4.83120780778479       -0.66141585587733
H           -1.45936798243295       -4.04801981279309        1.29751358774852
H           -3.18170859355828       -3.87714378816456        1.56028186791951
H           -2.99742434163581       -1.78778297000345        0.73480475022650
H           -2.93490420308582       -2.55078857415928       -0.82909893327219

          :  Hamiltonian                  GFN2-xTB          :
         :: total energy             -47.820348123784 Eh    ::
         :: gradient norm              0.000672235543 Eh/a0 ::
         :: HOMO-LUMO gap              6.679956085301 eV    ::
         :: SCC energy               -48.505655783337 Eh    ::
         :: -> dispersion             -0.038380011440 Eh    ::
         :: repulsion energy           0.685307659553 Eh    ::

    * Orbital Energies and Occupations

         #    Occupation            Energy/Eh            Energy/eV
      -------------------------------------------------------------
         1        2.0000           -0.8617654             -23.4498
       ...           ...                  ...                  ...
        33        2.0000           -0.5778008             -15.7228
        34        2.0000           -0.5760957             -15.6764
        35        2.0000           -0.5718535             -15.5609
        36        2.0000           -0.5672500             -15.4357
        37        2.0000           -0.5443278             -14.8119
        38        2.0000           -0.5406288             -14.7113
        39        2.0000           -0.5298759             -14.4187
        40        2.0000           -0.5256844             -14.3046
        41        2.0000           -0.5236377             -14.2489
        42        2.0000           -0.5165135             -14.0550
        43        2.0000           -0.5005737             -13.6213
        44        2.0000           -0.4964601             -13.5094
        45        2.0000           -0.4876664             -13.2701 (HOMO)
        46                         -0.2421825              -6.5901 (LUMO)
        47                         -0.1665832              -4.5330
        48                         -0.1493673              -4.0645
        49                         -0.1411800              -3.8417
        50                         -0.0714497              -1.9442
        51                         -0.0673652              -1.8331
        52                         -0.0538464              -1.4652
        53                         -0.0427269              -1.1627
        54                         -0.0282756              -0.7694
        55                         -0.0249228              -0.6782
        56                         -0.0162029              -0.4409
       ...                                ...                  ...
        90                          0.2645327               7.1983
      -------------------------------------------------------------
                  HL-Gap            0.2454839 Eh            6.6800 eV

     #   Z          covCN         q      C6AA      α(0)
     1   6 C        3.754    -0.130    23.061     6.848
     2   6 C        3.792     0.012    20.381     6.429
     3   7 N        3.619     0.127    19.066     6.485
     4   6 C        3.719    -0.094    22.417     6.763
     5   6 C        3.726    -0.094    22.403     6.758
     6   6 C        3.727    -0.094    22.396     6.757
     7   6 C        3.807    -0.082    22.055     6.685
     8   6 C        3.847    -0.019    20.876     6.499
     9   6 C        3.802    -0.063    21.714     6.634
    10   6 C        3.799    -0.058    21.612     6.619
    11   6 C        3.799    -0.061    21.678     6.629
    12   6 C        3.799    -0.060    21.651     6.625
    13   6 C        3.800    -0.061    21.670     6.628
    14   6 C        3.799    -0.057    21.609     6.619
    15   6 C        3.804    -0.068    21.801     6.647
    16   1 H        0.925     0.068     2.106     2.269
    17   1 H        0.925     0.087     1.906     2.159
    18   1 H        0.925     0.055     2.262     2.352
    19   1 H        0.924     0.073     2.048     2.238
    20   1 H        0.925     0.098     1.802     2.099
    21   1 H        0.925     0.095     1.834     2.118
    22   1 H        0.925     0.103     1.759     2.074
    23   1 H        0.925     0.096     1.824     2.112
    24   1 H        0.925     0.096     1.821     2.110
    25   1 H        0.925     0.102     1.763     2.076
    26   1 H        0.925     0.096     1.823     2.112
    27   1 H        0.925     0.099     1.798     2.097
    28   1 H        0.925     0.096     1.821     2.110
    29   1 H        0.925     0.055     2.257     2.350
    30   1 H        0.924     0.046     2.365     2.405
    31   1 H        0.924     0.040     2.452     2.449
    32   1 H        0.924     0.017     2.775     2.605
    33   1 H        0.925     0.045     2.386     2.416
    34   1 H        0.924     0.036     2.499     2.472
    35   1 H        0.924     0.031     2.574     2.509
    36   1 H        0.924     0.038     2.482     2.464
    37   1 H        0.925     0.038     2.476     2.461
    38   1 H        0.924     0.034     2.525     2.485
    39   1 H        0.924     0.038     2.473     2.459
    40   1 H        0.924     0.035     2.515     2.480
    41   1 H        0.924     0.037     2.485     2.465
    42   1 H        0.924     0.027     2.624     2.533
    43   1 H        0.924     0.033     2.551     2.498
    44   1 H        0.924     0.027     2.626     2.534
    45   1 H        0.925     0.059     2.210     2.325

Wiberg/Mayer (AO) data.
largest (>0.10) Wiberg bond orders for each atom

     #   Z sym  total        # sym  WBO       # sym  WBO       # sym  WBO
 ---------------------------------------------------------------------------
     1   6 C    3.984 --     2 C    1.015    16 H    0.981    18 H    0.974
                            17 H    0.968
     2   6 C    3.923 --     1 C    1.015     7 C    0.997    19 H    0.957
                             3 N    0.881
     3   7 N    3.805 --     6 C    0.962     4 C    0.961     5 C    0.960
                             2 C    0.881
     4   6 C    3.929 --    21 H    0.975    22 H    0.973    20 H    0.971
                             3 N    0.961
     5   6 C    3.930 --    23 H    0.975    24 H    0.973    25 H    0.973
                             3 N    0.960
     6   6 C    3.930 --    26 H    0.975    28 H    0.974    27 H    0.969
                             3 N    0.962
     7   6 C    3.984 --     2 C    0.997     8 C    0.980    30 H    0.968
                            29 H    0.967
     8   6 C    3.988 --     9 C    0.999    15 C    0.993     7 C    0.980
                            31 H    0.966
     9   6 C    3.996 --    10 C    1.005     8 C    0.999    32 H    0.970
                            33 H    0.967
    10   6 C    3.995 --    11 C    1.006     9 C    1.005    34 H    0.978
                            35 H    0.978
    11   6 C    3.995 --    10 C    1.006    12 C    1.005    36 H    0.978
                            37 H    0.971
    12   6 C    3.996 --    13 C    1.009    11 C    1.005    39 H    0.978
                            38 H    0.973
    13   6 C    3.996 --    12 C    1.009    14 C    1.008    40 H    0.976
                            41 H    0.976
    14   6 C    3.997 --    13 C    1.008    15 C    1.004    43 H    0.979
                            42 H    0.970
    15   6 C    3.993 --    14 C    1.004     8 C    0.993    44 H    0.977
                            45 H    0.967
    16   1 H    0.995 --     1 C    0.981
    17   1 H    0.992 --     1 C    0.968
    18   1 H    0.997 --     1 C    0.974
    19   1 H    0.995 --     2 C    0.957
    20   1 H    0.990 --     4 C    0.971
    21   1 H    0.991 --     4 C    0.975
    22   1 H    0.989 --     4 C    0.973
    23   1 H    0.991 --     5 C    0.975
    24   1 H    0.990 --     5 C    0.973
    25   1 H    0.990 --     5 C    0.973
    26   1 H    0.991 --     6 C    0.975
    27   1 H    0.990 --     6 C    0.969
    28   1 H    0.990 --     6 C    0.974
    29   1 H    0.997 --     7 C    0.967
    30   1 H    0.998 --     7 C    0.968
    31   1 H    0.998 --     8 C    0.966
    32   1 H    1.000 --     9 C    0.970
    33   1 H    0.998 --     9 C    0.967
    34   1 H    0.998 --    10 C    0.978
    35   1 H    0.999 --    10 C    0.978
    36   1 H    0.998 --    11 C    0.978
    37   1 H    0.999 --    11 C    0.971
    38   1 H    0.999 --    12 C    0.973
    39   1 H    0.999 --    12 C    0.978
    40   1 H    0.998 --    13 C    0.976
    41   1 H    0.999 --    13 C    0.976
    42   1 H    0.999 --    14 C    0.970
    43   1 H    0.999 --    14 C    0.979
    44   1 H    0.999 --    15 C    0.977
    45   1 H    0.996 --    15 C    0.967
 ---------------------------------------------------------------------------

molecular dipole:
                 x           y           z       tot (Debye)
 q only:        1.746      -0.467       4.158
   full:        1.855      -0.405       4.261      11.858

           -------------------------------------------------
          | TOTAL ENERGY              -47.820348123784 Eh   |
          | GRADIENT NORM               0.000672235543 Eh/α |
          | HOMO-LUMO GAP               6.679956085301 eV   |
           -------------------------------------------------

 * finished run on 2024/12/20 at 07:13:02.315
