   * xtb version 6.7.1 (edcfbbe) compiled by 'conda@3ef47c1a292c' on 2024-11-25

   ID    Z sym.   atoms
    1    8 O      1, 3
    2    6 C      2, 4, 6, 9-21
    3    7 N      5, 7, 8
    4    1 H      22-37

          program call               : xtb C1161.xyz --opt --namespace C1161 --charge +1
          :  Hamiltonian                  GFN2-xTB          :
 * total energy  :   -58.9678714 Eh     change       -0.3749605E-09 Eh
 * total energy  :   -58.9752229 Eh     change       -0.7351505E-02 Eh
 * total energy  :   -58.9770950 Eh     change       -0.1872130E-02 Eh
 * total energy  :   -58.9777190 Eh     change       -0.6239819E-03 Eh
 * total energy  :   -58.9780789 Eh     change       -0.3598845E-03 Eh
 * total energy  :   -58.9783091 Eh     change       -0.2302187E-03 Eh
 * total energy  :   -58.9785565 Eh     change       -0.2474521E-03 Eh
 * total energy  :   -58.9788016 Eh     change       -0.2450422E-03 Eh
 * total energy  :   -58.9789600 Eh     change       -0.1584505E-03 Eh
 * total energy  :   -58.9790312 Eh     change       -0.7119117E-04 Eh
 * total energy  :   -58.9826992 Eh     change       -0.1539421E-04 Eh
 * total energy  :   -58.9827165 Eh     change       -0.1732431E-04 Eh
 * total energy  :   -58.9827281 Eh     change       -0.1165876E-04 Eh
 * total energy  :   -58.9827432 Eh     change       -0.1503363E-04 Eh
 * total energy  :   -58.9827622 Eh     change       -0.1907505E-04 Eh
 * total energy  :   -58.9827776 Eh     change       -0.1539325E-04 Eh
 * total energy  :   -58.9827849 Eh     change       -0.7297481E-05 Eh
 * total energy  :   -58.9827897 Eh     change       -0.4801966E-05 Eh
 * total energy  :   -58.9827926 Eh     change       -0.2835557E-05 Eh
   *** GEOMETRY OPTIMIZATION CONVERGED AFTER 68 ITERATIONS ***

 final structure:
================
37
 xtb: 6.7.1 (edcfbbe)
O            0.93017568227936       -0.75241264064272        0.78522258852256
C           -0.19921979220421       -1.20048500415136        1.34484558295945
O           -0.24740926369926       -1.87975303773590        2.32097110594756
C           -1.42613455480496       -0.67475055890213        0.58262433107006
N           -1.78989914305161        0.63391824468947        1.06832774852472
C           -1.16628514695365        1.78868244448816        0.76074185506913
N           -0.12691377997015        1.89395408404204       -0.07353606723914
N           -1.77853019941714        2.82049099690428        1.36236998647033
C           -2.82841540753342        2.31786356051475        2.12322611862040
C           -2.83071744340677        0.92581465485901        1.94588915449591
C           -3.74968389911342        0.11559935854631        2.58902040265146
C           -4.67173449131670        0.74186746331275        3.40887633916761
C           -4.67655190848797        2.12384387013860        3.57985047773793
C           -3.75682691921950        2.93757072538163        2.94263013119336
C           -1.36721412948011        4.20813997001623        1.24755490514668
C            0.08698685443953        4.37197561088131        1.62188251991735
C            0.99561941473052        4.92580877327776        0.72700238039658
C            2.32817376598188        5.06120472733767        1.08217342435866
C            2.76156853669249        4.63270410051376        2.32527006149800
C            1.86035426274716        4.07523568311132        3.21860152336707
C            0.52794866635695        3.94582547027170        2.87007940272713
H            1.71506542884044       -1.10230876979776        1.24085233439797
H           -1.20697160251551       -0.63103573404337       -0.48752088729711
H           -2.26162728478076       -1.35326201524976        0.75921934938146
H            0.40375164209684        1.06341522846720       -0.29219616931131
H            0.36877340447316        2.77497880453495       -0.10462147856289
H           -3.74654003698792       -0.95550386951839        2.47369319632132
H           -5.40226307717125        0.14474350188611        3.93012645485535
H           -5.41297353120340        2.57122495038861        4.22770217479283
H           -3.77028393629029        4.00546219906031        3.08660413729814
H           -1.54572731127673        4.55688544958591        0.22508460042415
H           -1.99786382731767        4.78969162157256        1.92231149630750
H            0.65776774775037        5.27590919921168       -0.23866260899350
H            3.02454518505496        5.50264666461189        0.38678440789213
H            3.79852435468197        4.73992668903787        2.60155885040875
H            2.19336936929240        3.74970505732622        4.19166672986930
H           -0.17651762921357        3.52151252606486        3.57155343959978

          :  Hamiltonian                  GFN2-xTB          :
         :: total energy             -58.982792576710 Eh    ::
         :: gradient norm              0.000294626635 Eh/a0 ::
         :: HOMO-LUMO gap              3.700629417621 eV    ::
         :: SCC energy               -59.892681799564 Eh    ::
         :: -> dispersion             -0.040298597949 Eh    ::
         :: repulsion energy           0.909889222854 Eh    ::

    * Orbital Energies and Occupations

         #    Occupation            Energy/Eh            Energy/eV
      -------------------------------------------------------------
         1        2.0000           -0.8915056             -24.2591
       ...           ...                  ...                  ...
        41        2.0000           -0.5960862             -16.2203
        42        2.0000           -0.5957006             -16.2098
        43        2.0000           -0.5919458             -16.1077
        44        2.0000           -0.5807936             -15.8042
        45        2.0000           -0.5684981             -15.4696
        46        2.0000           -0.5649566             -15.3733
        47        2.0000           -0.5617774             -15.2867
        48        2.0000           -0.5445045             -14.8167
        49        2.0000           -0.5394725             -14.6798
        50        2.0000           -0.5310380             -14.4503
        51        2.0000           -0.5268266             -14.3357
        52        2.0000           -0.5248915             -14.2830
        53        2.0000           -0.5221990             -14.2098 (HOMO)
        54                         -0.3862034             -10.5091 (LUMO)
        55                         -0.3807139             -10.3598
        56                         -0.3513629              -9.5611
        57                         -0.3480869              -9.4719
        58                         -0.3438244              -9.3559
        59                         -0.3387261              -9.2172
        60                         -0.2248365              -6.1181
        61                         -0.2194204              -5.9707
        62                         -0.1785165              -4.8577
        63                         -0.1321317              -3.5955
        64                         -0.1258337              -3.4241
       ...                                ...                  ...
       100                          0.5581143              15.1871
      -------------------------------------------------------------
                  HL-Gap            0.1359956 Eh            3.7006 eV

     #   Z          covCN         q      C6AA      α(0)
     1   8 O        1.659    -0.375    20.378     6.094
     2   6 C        2.687     0.358    20.922     7.486
     3   8 O        0.856    -0.341    20.536     6.076
     4   6 C        3.739    -0.046    21.474     6.612
     5   7 N        2.822    -0.025    21.730     6.923
     6   6 C        2.989     0.195    23.854     8.012
     7   7 N        2.637    -0.251    26.541     7.651
     8   7 N        2.821    -0.024    21.711     6.920
     9   6 C        3.085     0.039    27.031     8.523
    10   6 C        3.081     0.038    27.069     8.529
    11   6 C        2.910    -0.035    28.861     8.809
    12   6 C        2.926    -0.021    28.527     8.759
    13   6 C        2.926    -0.022    28.548     8.762
    14   6 C        2.910    -0.035    28.883     8.813
    15   6 C        3.745    -0.020    20.997     6.536
    16   6 C        2.971    -0.008    28.214     8.713
    17   6 C        2.922    -0.045    29.126     8.850
    18   6 C        2.919    -0.025    28.616     8.772
    19   6 C        2.920    -0.022    28.567     8.765
    20   6 C        2.919    -0.023    28.590     8.768
    21   6 C        2.922    -0.038    28.950     8.823
    22   1 H        0.804     0.353     0.581     1.197
    23   1 H        0.924     0.099     1.798     2.097
    24   1 H        0.924     0.116     1.642     2.004
    25   1 H        0.860     0.231     0.959     1.534
    26   1 H        0.860     0.225     0.989     1.558
    27   1 H        0.926     0.070     2.081     2.256
    28   1 H        0.926     0.078     2.003     2.213
    29   1 H        0.926     0.076     2.015     2.220
    30   1 H        0.926     0.066     2.134     2.284
    31   1 H        0.924     0.074     2.047     2.238
    32   1 H        0.924     0.091     1.866     2.136
    33   1 H        0.925     0.041     2.434     2.440
    34   1 H        0.926     0.057     2.237     2.339
    35   1 H        0.926     0.059     2.215     2.328
    36   1 H        0.926     0.055     2.259     2.350
    37   1 H        0.926     0.037     2.491     2.468

Wiberg/Mayer (AO) data.
largest (>0.10) Wiberg bond orders for each atom

     #   Z sym  total        # sym  WBO       # sym  WBO       # sym  WBO
 ---------------------------------------------------------------------------
     1   8 O    2.210 --     2 C    1.135    22 H    0.849     3 O    0.186
     2   6 C    3.926 --     3 O    1.828     1 O    1.135     4 C    0.929
     3   8 O    2.110 --     2 C    1.828     1 O    0.186
     4   6 C    3.953 --     5 N    0.982    23 H    0.957    24 H    0.957
                             2 C    0.929
     5   7 N    3.591 --     6 C    1.249    10 C    1.078     4 C    0.982
     6   6 C    3.972 --     7 N    1.278     8 N    1.274     5 N    1.249
     7   7 N    3.353 --     6 C    1.278    25 H    0.913    26 H    0.909
     8   7 N    3.603 --     6 C    1.274     9 C    1.086    15 C    0.961
     9   6 C    3.949 --    14 C    1.367    10 C    1.286     8 N    1.086
    10   6 C    3.945 --    11 C    1.370     9 C    1.286     5 N    1.078
    11   6 C    3.985 --    12 C    1.462    10 C    1.370    27 H    0.962
                            14 C    0.114
    12   6 C    3.980 --    11 C    1.462    13 C    1.408    28 H    0.966
    13   6 C    3.981 --    14 C    1.464    12 C    1.408    29 H    0.967
    14   6 C    3.985 --    13 C    1.464     9 C    1.367    30 H    0.962
                            11 C    0.114
    15   6 C    3.944 --    16 C    0.991     8 N    0.961    31 H    0.960
                            32 H    0.955
    16   6 C    3.982 --    17 C    1.409    21 C    1.408    15 C    0.991
                            19 C    0.109
    17   6 C    3.990 --    18 C    1.436    16 C    1.409    33 H    0.966
                            20 C    0.109
    18   6 C    3.990 --    19 C    1.444    17 C    1.436    34 H    0.969
                            21 C    0.112
    19   6 C    3.989 --    18 C    1.444    20 C    1.434    35 H    0.969
                            16 C    0.109
    20   6 C    3.990 --    21 C    1.449    19 C    1.434    36 H    0.969
                            17 C    0.109
    21   6 C    3.992 --    20 C    1.449    16 C    1.408    37 H    0.969
                            18 C    0.112
    22   1 H    0.875 --     1 O    0.849
    23   1 H    0.989 --     4 C    0.957
    24   1 H    0.986 --     4 C    0.957
    25   1 H    0.946 --     7 N    0.913
    26   1 H    0.949 --     7 N    0.909
    27   1 H    0.994 --    11 C    0.962
    28   1 H    0.994 --    12 C    0.966
    29   1 H    0.994 --    13 C    0.967
    30   1 H    0.995 --    14 C    0.962
    31   1 H    0.994 --    15 C    0.960
    32   1 H    0.991 --    15 C    0.955
    33   1 H    0.998 --    17 C    0.966
    34   1 H    0.996 --    18 C    0.969
    35   1 H    0.996 --    19 C    0.969
    36   1 H    0.997 --    20 C    0.969
    37   1 H    0.999 --    21 C    0.969
 ---------------------------------------------------------------------------

molecular dipole:
                 x           y           z       tot (Debye)
 q only:       -1.967       3.837       2.015
   full:       -1.656       3.834       1.932      11.697

           -------------------------------------------------
          | TOTAL ENERGY              -58.982792576710 Eh   |
          | GRADIENT NORM               0.000294626635 Eh/α |
          | HOMO-LUMO GAP               3.700629417621 eV   |
           -------------------------------------------------

 * finished run on 2024/12/20 at 07:13:04.325
