   * xtb version 6.7.1 (edcfbbe) compiled by 'conda@3ef47c1a292c' on 2024-11-25

   ID    Z sym.   atoms
    1    6 C      1-8, 10-19
    2    7 N      9
    3    1 H      20-43

          program call               : xtb C1168.xyz --opt --namespace C1168 --charge +1
          :  Hamiltonian                  GFN2-xTB          :
 * total energy  :   -53.2968759 Eh     change       -0.1711911E-09 Eh
 * total energy  :   -53.3042303 Eh     change       -0.7354416E-02 Eh
 * total energy  :   -53.3062714 Eh     change       -0.2041102E-02 Eh
 * total energy  :   -53.3067084 Eh     change       -0.4370201E-03 Eh
 * total energy  :   -53.3070210 Eh     change       -0.3125875E-03 Eh
 * total energy  :   -53.3072006 Eh     change       -0.1796178E-03 Eh
 * total energy  :   -53.3074126 Eh     change       -0.2120297E-03 Eh
 * total energy  :   -53.3076146 Eh     change       -0.2019713E-03 Eh
 * total energy  :   -53.3077944 Eh     change       -0.1798160E-03 Eh
 * total energy  :   -53.3079703 Eh     change       -0.1758710E-03 Eh
 * total energy  :   -53.3111246 Eh     change       -0.4538063E-04 Eh
 * total energy  :   -53.3111640 Eh     change       -0.3942424E-04 Eh
 * total energy  :   -53.3112016 Eh     change       -0.3756150E-04 Eh
 * total energy  :   -53.3112437 Eh     change       -0.4210056E-04 Eh
 * total energy  :   -53.3112962 Eh     change       -0.5246747E-04 Eh
 * total energy  :   -53.3113236 Eh     change       -0.2743295E-04 Eh
 * total energy  :   -53.3113421 Eh     change       -0.1852702E-04 Eh
 * total energy  :   -53.3113505 Eh     change       -0.8343909E-05 Eh
 * total energy  :   -53.3113553 Eh     change       -0.4799417E-05 Eh
   *** GEOMETRY OPTIMIZATION CONVERGED AFTER 41 ITERATIONS ***

 final structure:
================
43
 xtb: 6.7.1 (edcfbbe)
C            1.51657695475355       -1.12359379763947       -1.41550781815963
C            0.52730464123106       -0.50243626385379       -0.48409078991815
C           -0.00352620175710       -1.23894705199569        0.57139669977297
C           -0.89667032207336       -0.66397521373507        1.45519420027612
C           -1.28983315482937        0.65379372571884        1.29189138812793
C           -0.79011730733962        1.40086368153166        0.23132142146085
C            0.12419681645584        0.81657223896365       -0.64023639435545
C           -1.20226202646332        2.83764318392467        0.04539450482674
N           -2.41210817737619        3.02811703641475       -0.82673999410259
C           -3.58664206527029        2.32381718886217       -0.21162015378887
C           -4.87313569669558        2.48523954792966       -0.97718268830785
C           -5.21471640941562        1.58700719892849       -1.98199352438279
C           -6.40609517309257        1.74147751707043       -2.67050013801115
C           -7.26348748316973        2.77912431650269       -2.35637748614509
C           -6.95320444900675        3.67456222634708       -1.33726043600965
C           -5.75255555276303        3.51490544224161       -0.65818209751617
C           -7.90614058224338        4.76407166690140       -0.96741858947199
C           -2.68913340833510        4.47033226130618       -0.93109730152859
C           -2.15014969130672        2.49417199370714       -2.17246618769069
H            2.41266780636595       -1.41276160097112       -0.86901470452972
H            1.10274715572577       -2.02479978028305       -1.86353367903776
H            1.80195879136498       -0.43724692007047       -2.20758017517162
H            0.30221953422838       -2.26477539469168        0.70698843319211
H           -1.28545402225051       -1.23871051016238        2.28118062564776
H           -1.96927763260405        1.09998860454662        2.00307668724417
H            0.54955683425939        1.40158143724852       -1.44385404583549
H           -1.42571202116289        3.28406016930079        1.01667051206828
H           -0.38325093505141        3.39671386483249       -0.41243143470436
H           -3.70993474413764        2.72243004375748        0.79755865982411
H           -3.32689619228960        1.26562361621720       -0.14152133642422
H           -4.56559828247243        0.75576273553277       -2.21446071105026
H           -6.66704499298214        1.04309166697416       -3.44992732682061
H           -8.19175037405263        2.89088559149616       -2.89492959923259
H           -5.51393229988586        4.19509855112515        0.14768800109354
H           -8.33588815563360        5.21950353272637       -1.85690805438269
H           -8.72636087425372        4.34963874594832       -0.38086230876728
H           -7.41953770571414        5.53365790412388       -0.37323316052146
H           -1.83586116127280        4.98539743879442       -1.36848302052551
H           -3.56224264792454        4.63420821391437       -1.56049703088621
H           -2.88224878586036        4.88920785001084        0.05464831173159
H           -1.30183523320602        3.01033877668134       -2.61786466611833
H           -1.92512275088303        1.43102823021355       -2.11141434613089
H           -3.02478202163569        2.64018033357478       -2.80341024574099

          :  Hamiltonian                  GFN2-xTB          :
         :: total energy             -53.311355282859 Eh    ::
         :: gradient norm              0.000825587545 Eh/a0 ::
         :: HOMO-LUMO gap              4.213225572146 eV    ::
         :: SCC energy               -54.237145762575 Eh    ::
         :: -> dispersion             -0.041857300856 Eh    ::
         :: repulsion energy           0.925790479716 Eh    ::

    * Orbital Energies and Occupations

         #    Occupation            Energy/Eh            Energy/eV
      -------------------------------------------------------------
         1        2.0000           -0.8495883             -23.1185
       ...           ...                  ...                  ...
        38        2.0000           -0.5843348             -15.9006
        39        2.0000           -0.5707003             -15.5295
        40        2.0000           -0.5688117             -15.4782
        41        2.0000           -0.5590733             -15.2132
        42        2.0000           -0.5582643             -15.1911
        43        2.0000           -0.5400667             -14.6960
        44        2.0000           -0.5388891             -14.6639
        45        2.0000           -0.5343980             -14.5417
        46        2.0000           -0.5337754             -14.5248
        47        2.0000           -0.5211490             -14.1812
        48        2.0000           -0.5193814             -14.1331
        49        2.0000           -0.5074677             -13.8089
        50        2.0000           -0.5062747             -13.7764 (HOMO)
        51                         -0.3514415              -9.5632 (LUMO)
        52                         -0.3449872              -9.3876
        53                         -0.3356139              -9.1325
        54                         -0.3351854              -9.1209
        55                         -0.2305614              -6.2739
        56                         -0.2161006              -5.8804
        57                         -0.1838125              -5.0018
        58                         -0.1337478              -3.6395
        59                         -0.1314500              -3.5769
        60                         -0.1254434              -3.4135
        61                         -0.0485987              -1.3224
       ...                                ...                  ...
       100                          0.5380301              14.6405
      -------------------------------------------------------------
                  HL-Gap            0.1548332 Eh            4.2132 eV

     #   Z          covCN         q      C6AA      α(0)
     1   6 C        3.759    -0.120    22.843     6.814
     2   6 C        2.964     0.029    27.342     8.577
     3   6 C        2.926    -0.032    28.786     8.799
     4   6 C        2.917    -0.025    28.627     8.774
     5   6 C        2.923    -0.045    29.110     8.848
     6   6 C        2.966    -0.010    28.263     8.720
     7   6 C        2.928    -0.051    29.275     8.873
     8   6 C        3.767    -0.039    21.309     6.579
     9   7 N        3.621     0.127    19.079     6.487
    10   6 C        3.763    -0.038    21.303     6.579
    11   6 C        2.966    -0.010    28.267     8.721
    12   6 C        2.923    -0.046    29.142     8.853
    13   6 C        2.917    -0.026    28.640     8.776
    14   6 C        2.926    -0.032    28.794     8.800
    15   6 C        2.964     0.029    27.346     8.577
    16   6 C        2.929    -0.052    29.281     8.874
    17   6 C        3.758    -0.119    22.838     6.813
    18   6 C        3.722    -0.090    22.325     6.748
    19   6 C        3.718    -0.089    22.321     6.749
    20   1 H        0.925     0.068     2.107     2.270
    21   1 H        0.925     0.063     2.159     2.298
    22   1 H        0.925     0.051     2.303     2.373
    23   1 H        0.926     0.058     2.218     2.329
    24   1 H        0.926     0.056     2.252     2.347
    25   1 H        0.926     0.037     2.489     2.467
    26   1 H        0.926     0.037     2.484     2.464
    27   1 H        0.924     0.080     1.983     2.202
    28   1 H        0.924     0.081     1.968     2.194
    29   1 H        0.924     0.079     1.986     2.204
    30   1 H        0.924     0.087     1.908     2.160
    31   1 H        0.926     0.037     2.490     2.468
    32   1 H        0.926     0.054     2.265     2.353
    33   1 H        0.926     0.058     2.225     2.333
    34   1 H        0.925     0.037     2.488     2.466
    35   1 H        0.925     0.062     2.174     2.306
    36   1 H        0.924     0.069     2.100     2.266
    37   1 H        0.925     0.052     2.300     2.372
    38   1 H        0.925     0.091     1.869     2.138
    39   1 H        0.925     0.100     1.781     2.087
    40   1 H        0.925     0.092     1.858     2.131
    41   1 H        0.925     0.090     1.878     2.143
    42   1 H        0.925     0.098     1.799     2.097
    43   1 H        0.925     0.098     1.805     2.101

Wiberg/Mayer (AO) data.
largest (>0.10) Wiberg bond orders for each atom

     #   Z sym  total        # sym  WBO       # sym  WBO       # sym  WBO
 ---------------------------------------------------------------------------
     1   6 C    3.993 --     2 C    1.034    22 H    0.984    21 H    0.968
                            20 H    0.964
     2   6 C    3.988 --     7 C    1.416     3 C    1.395     1 C    1.034
                             5 C    0.105
     3   6 C    3.989 --     4 C    1.455     2 C    1.395    23 H    0.968
                             6 C    0.107
     4   6 C    3.990 --     3 C    1.455     5 C    1.432    24 H    0.969
                             7 C    0.103
     5   6 C    3.991 --     4 C    1.432     6 C    1.410    25 H    0.968
                             2 C    0.105
     6   6 C    3.977 --     5 C    1.410     7 C    1.405     8 C    1.005
                             3 C    0.107
     7   6 C    3.990 --     2 C    1.416     6 C    1.405    26 H    0.966
                             4 C    0.103
     8   6 C    3.930 --     6 C    1.005    27 H    0.966    28 H    0.965
                             9 N    0.912
     9   7 N    3.807 --    18 C    0.963    19 C    0.962    10 C    0.912
                             8 C    0.912
    10   6 C    3.928 --    11 C    1.004    29 H    0.966    30 H    0.960
                             9 N    0.912
    11   6 C    3.978 --    12 C    1.409    16 C    1.408    10 C    1.004
                            14 C    0.107
    12   6 C    3.991 --    13 C    1.434    11 C    1.409    31 H    0.968
                            15 C    0.105
    13   6 C    3.991 --    14 C    1.452    12 C    1.434    32 H    0.969
                            16 C    0.104
    14   6 C    3.989 --    13 C    1.452    15 C    1.398    33 H    0.968
                            11 C    0.107
    15   6 C    3.988 --    16 C    1.414    14 C    1.398    17 C    1.034
                            12 C    0.105
    16   6 C    3.990 --    15 C    1.414    11 C    1.408    34 H    0.966
                            13 C    0.104
    17   6 C    3.993 --    15 C    1.034    37 H    0.983    35 H    0.974
                            36 H    0.960
    18   6 C    3.932 --    40 H    0.976    38 H    0.976    39 H    0.970
                             9 N    0.963
    19   6 C    3.930 --    41 H    0.976    42 H    0.971    43 H    0.970
                             9 N    0.962
    20   1 H    0.995 --     1 C    0.964
    21   1 H    0.996 --     1 C    0.968
    22   1 H    0.997 --     1 C    0.984
    23   1 H    0.996 --     3 C    0.968
    24   1 H    0.996 --     4 C    0.969
    25   1 H    0.998 --     5 C    0.968
    26   1 H    0.999 --     7 C    0.966
    27   1 H    0.993 --     8 C    0.966
    28   1 H    0.992 --     8 C    0.965
    29   1 H    0.993 --    10 C    0.966
    30   1 H    0.992 --    10 C    0.960
    31   1 H    0.998 --    12 C    0.968
    32   1 H    0.996 --    13 C    0.969
    33   1 H    0.996 --    14 C    0.968
    34   1 H    0.999 --    16 C    0.966
    35   1 H    0.996 --    17 C    0.974
    36   1 H    0.995 --    17 C    0.960
    37   1 H    0.997 --    17 C    0.983
    38   1 H    0.992 --    18 C    0.976
    39   1 H    0.989 --    18 C    0.970
    40   1 H    0.991 --    18 C    0.976
    41   1 H    0.992 --    19 C    0.976
    42   1 H    0.990 --    19 C    0.971
    43   1 H    0.990 --    19 C    0.970
 ---------------------------------------------------------------------------

molecular dipole:
                 x           y           z       tot (Debye)
 q only:       -5.032       4.994      -1.860
   full:       -4.975       5.050      -1.766      18.569

           -------------------------------------------------
          | TOTAL ENERGY              -53.311355282859 Eh   |
          | GRADIENT NORM               0.000825587545 Eh/α |
          | HOMO-LUMO GAP               4.213225572146 eV   |
           -------------------------------------------------

 * finished run on 2024/12/20 at 07:13:15.792
