   * xtb version 6.7.1 (edcfbbe) compiled by 'conda@3ef47c1a292c' on 2024-11-25

   ID    Z sym.   atoms
    1    6 C      1-4, 6, 7, 9-14
    2    8 O      5
    3    7 N      8
    4    1 H      15-42

          program call               : xtb C1164.xyz --opt --namespace C1164 --charge +1
          :  Hamiltonian                  GFN2-xTB          :
 * total energy  :   -46.5473768 Eh     change       -0.5461231E-10 Eh
 * total energy  :   -46.5552406 Eh     change       -0.7863796E-02 Eh
 * total energy  :   -46.5574134 Eh     change       -0.2172830E-02 Eh
 * total energy  :   -46.5578816 Eh     change       -0.4681612E-03 Eh
 * total energy  :   -46.5587384 Eh     change       -0.8568249E-03 Eh
 * total energy  :   -46.5594036 Eh     change       -0.6651809E-03 Eh
 * total energy  :   -46.5603483 Eh     change       -0.9447653E-03 Eh
 * total energy  :   -46.5614246 Eh     change       -0.1076249E-02 Eh
 * total energy  :   -46.5624921 Eh     change       -0.1067529E-02 Eh
 * total energy  :   -46.5634899 Eh     change       -0.9977778E-03 Eh
 * total energy  :   -46.5727481 Eh     change       -0.4732952E-04 Eh
 * total energy  :   -46.5727900 Eh     change       -0.4195311E-04 Eh
 * total energy  :   -46.5728222 Eh     change       -0.3220278E-04 Eh
 * total energy  :   -46.5728469 Eh     change       -0.2472217E-04 Eh
 * total energy  :   -46.5728533 Eh     change       -0.6363647E-05 Eh
 * total energy  :   -46.5728669 Eh     change       -0.1361437E-04 Eh
 * total energy  :   -46.5728809 Eh     change       -0.1395512E-04 Eh
 * total energy  :   -46.5728895 Eh     change       -0.8652468E-05 Eh
 * total energy  :   -46.5728934 Eh     change       -0.3861441E-05 Eh
   *** GEOMETRY OPTIMIZATION CONVERGED AFTER 59 ITERATIONS ***

 final structure:
================
42
 xtb: 6.7.1 (edcfbbe)
C            2.68761924274808        3.65875855778334        0.38320334929847
C            1.17380005835012        3.67152639220479        0.20060388670965
C            0.68872160445898        2.81517510430876       -0.97037485761614
C            0.91259100089346        1.32195746070456       -0.73576172538850
O            0.54788798503798        0.53313186164093       -1.87249304472606
C           -0.61191708916889       -0.26129740265362       -1.82181175830969
C           -0.42961374245197       -1.50943123311067       -0.91766699545809
N            0.57621110233486       -2.52082988775623       -1.36708915141459
C            1.93995391962672       -1.95939612473674       -1.33953077636823
C            0.51334214094908       -3.66943695236258       -0.44110194779325
C            0.28053358655451       -2.99873923343368       -2.73068078246521
C           -1.89355970328592        0.48618060876070       -1.41813441567823
C           -2.35760459721308        1.43114709816557       -2.52865590819504
C           -3.53150397941899        2.28800647284042       -2.07434681112699
H            3.04611655212271        2.68141434037581        0.69825263389301
H            2.97474832031275        4.37928699608842        1.14427710416942
H            3.18524895106335        3.92879327694752       -0.54545591731919
H            0.69063484803606        3.33662464372423        1.12227553232456
H            0.85371819577073        4.69843288731398        0.01764097394118
H           -0.37407278420481        3.00256140319290       -1.12543769174380
H            1.21588249886910        3.10228414526411       -1.88132198016813
H            1.98104475819480        1.13919317543323       -0.58318470445309
H            0.37544814040537        0.99798268957880        0.16171087916405
H           -0.74372239164433       -0.58394478064224       -2.86086550238118
H           -0.13859558287797       -1.17816969575184        0.08163013811523
H           -1.39231027854382       -2.01727259925439       -0.84415542050371
H            2.21086510070199       -1.68629570906718       -0.32131693143073
H            2.65211126880073       -2.69553921314042       -1.70713646144128
H            1.98211025612679       -1.06835261372898       -1.96470348371162
H           -0.46215187785885       -4.14956204145416       -0.49651347414729
H            1.27680456816279       -4.40091659424077       -0.70082308913308
H            0.68343318733963       -3.34141688085944        0.58294818740769
H           -0.76289503785840       -3.29931312308965       -2.80838987196728
H            0.48322794962431       -2.21715822677440       -3.45912294280982
H            0.90997638950998       -3.85571775492940       -2.96453532706675
H           -2.68564724488780       -0.23664491571503       -1.21590555764371
H           -1.72478887341920        1.05303702901034       -0.50228685608186
H           -1.52751698025558        2.06997197608879       -2.83172896977535
H           -2.65404106259893        0.84219012084763       -3.39880432294839
H           -3.25517506474283        2.90355633425797       -1.22175427334949
H           -3.85182693674182        2.94402777539760       -2.87828294592231
H           -4.37345839881019        1.66308463277575       -1.78719878648825

          :  Hamiltonian                  GFN2-xTB          :
         :: total energy             -46.572893394022 Eh    ::
         :: gradient norm              0.000752944656 Eh/a0 ::
         :: HOMO-LUMO gap              7.544607528106 eV    ::
         :: SCC energy               -47.188504875527 Eh    ::
         :: -> dispersion             -0.031318465582 Eh    ::
         :: repulsion energy           0.615611481505 Eh    ::

    * Orbital Energies and Occupations

         #    Occupation            Energy/Eh            Energy/eV
      -------------------------------------------------------------
         1        2.0000           -0.8668857             -23.5892
       ...           ...                  ...                  ...
        31        2.0000           -0.5920465             -16.1104
        32        2.0000           -0.5822612             -15.8441
        33        2.0000           -0.5720408             -15.5660
        34        2.0000           -0.5691677             -15.4878
        35        2.0000           -0.5646556             -15.3651
        36        2.0000           -0.5548713             -15.0988
        37        2.0000           -0.5461451             -14.8614
        38        2.0000           -0.5380208             -14.6403
        39        2.0000           -0.5318859             -14.4734
        40        2.0000           -0.5278067             -14.3624
        41        2.0000           -0.5226980             -14.2233
        42        2.0000           -0.5189467             -14.1213
        43        2.0000           -0.5075237             -13.8104 (HOMO)
        44                         -0.2302645              -6.2658 (LUMO)
        45                         -0.1639188              -4.4605
        46                         -0.1496313              -4.0717
        47                         -0.1439763              -3.9178
        48                         -0.1247488              -3.3946
        49                         -0.0737489              -2.0068
        50                         -0.0631050              -1.7172
        51                         -0.0546379              -1.4868
        52                         -0.0271443              -0.7386
        53                         -0.0159717              -0.4346
        54                         -0.0023321              -0.0635
       ...                                ...                  ...
        84                          0.2230918               6.0706
      -------------------------------------------------------------
                  HL-Gap            0.2772592 Eh            7.5446 eV

     #   Z          covCN         q      C6AA      α(0)
     1   6 C        3.751    -0.109    22.653     6.788
     2   6 C        3.800    -0.060    21.650     6.625
     3   6 C        3.800    -0.072    21.878     6.660
     4   6 C        3.681     0.074    19.555     6.333
     5   8 O        1.698    -0.330    19.524     5.966
     6   6 C        3.731     0.104    18.964     6.216
     7   6 C        3.760    -0.053    21.581     6.623
     8   7 N        3.622     0.146    18.764     6.434
     9   6 C        3.721    -0.101    22.552     6.782
    10   6 C        3.729    -0.098    22.470     6.767
    11   6 C        3.722    -0.099    22.513     6.776
    12   6 C        3.803    -0.076    21.955     6.671
    13   6 C        3.801    -0.057    21.593     6.616
    14   6 C        3.753    -0.110    22.667     6.789
    15   1 H        0.925     0.028     2.612     2.527
    16   1 H        0.925     0.049     2.337     2.391
    17   1 H        0.925     0.044     2.391     2.418
    18   1 H        0.924     0.032     2.559     2.502
    19   1 H        0.924     0.049     2.328     2.386
    20   1 H        0.924     0.048     2.342     2.393
    21   1 H        0.924     0.055     2.258     2.350
    22   1 H        0.924     0.046     2.368     2.407
    23   1 H        0.924     0.022     2.707     2.573
    24   1 H        0.924     0.062     2.180     2.309
    25   1 H        0.924     0.085     1.932     2.174
    26   1 H        0.924     0.082     1.956     2.187
    27   1 H        0.925     0.094     1.841     2.122
    28   1 H        0.925     0.095     1.836     2.119
    29   1 H        0.925     0.126     1.565     1.957
    30   1 H        0.925     0.098     1.803     2.100
    31   1 H        0.925     0.101     1.773     2.082
    32   1 H        0.925     0.098     1.802     2.099
    33   1 H        0.925     0.098     1.807     2.102
    34   1 H        0.925     0.107     1.719     2.050
    35   1 H        0.925     0.101     1.775     2.083
    36   1 H        0.924     0.041     2.440     2.443
    37   1 H        0.924     0.056     2.246     2.343
    38   1 H        0.924     0.051     2.309     2.376
    39   1 H        0.924     0.037     2.484     2.465
    40   1 H        0.925     0.042     2.426     2.436
    41   1 H        0.925     0.053     2.288     2.365
    42   1 H        0.925     0.043     2.412     2.429

Wiberg/Mayer (AO) data.
largest (>0.10) Wiberg bond orders for each atom

     #   Z sym  total        # sym  WBO       # sym  WBO       # sym  WBO
 ---------------------------------------------------------------------------
     1   6 C    3.995 --     2 C    1.020    17 H    0.987    15 H    0.986
                            16 H    0.986
     2   6 C    3.995 --     1 C    1.020     3 C    1.004    18 H    0.978
                            19 H    0.977
     3   6 C    3.992 --     2 C    1.004     4 C    1.000    21 H    0.975
                            20 H    0.972
     4   6 C    3.940 --     3 C    1.000    22 H    0.967    23 H    0.967
                             5 O    0.955
     5   8 O    2.090 --     6 C    0.997     4 C    0.955
     6   6 C    3.952 --     5 O    0.997    12 C    0.977     7 C    0.971
                            24 H    0.950
     7   6 C    3.928 --     6 C    0.971    26 H    0.967    25 H    0.964
                             8 N    0.928
     8   7 N    3.817 --    11 C    0.958    10 C    0.957     9 C    0.953
                             7 C    0.928
     9   6 C    3.917 --    27 H    0.976    28 H    0.976    29 H    0.961
                             8 N    0.953
    10   6 C    3.928 --    30 H    0.975    32 H    0.975    31 H    0.974
                             8 N    0.957
    11   6 C    3.926 --    33 H    0.976    35 H    0.974    34 H    0.970
                             8 N    0.958
    12   6 C    3.989 --    13 C    1.004     6 C    0.977    36 H    0.973
                            37 H    0.969
    13   6 C    3.993 --    14 C    1.019    12 C    1.004    39 H    0.978
                            38 H    0.973
    14   6 C    3.993 --    13 C    1.019    42 H    0.987    40 H    0.987
                            41 H    0.985
    15   1 H    0.999 --     1 C    0.986
    16   1 H    0.998 --     1 C    0.986
    17   1 H    0.998 --     1 C    0.987
    18   1 H    0.999 --     2 C    0.978
    19   1 H    0.997 --     2 C    0.977
    20   1 H    0.998 --     3 C    0.972
    21   1 H    0.997 --     3 C    0.975
    22   1 H    0.998 --     4 C    0.967
    23   1 H    1.000 --     4 C    0.967
    24   1 H    0.996 --     6 C    0.950
    25   1 H    0.993 --     7 C    0.964
    26   1 H    0.993 --     7 C    0.967
    27   1 H    0.991 --     9 C    0.976
    28   1 H    0.991 --     9 C    0.976
    29   1 H    0.984 --     9 C    0.961
    30   1 H    0.990 --    10 C    0.975
    31   1 H    0.989 --    10 C    0.974
    32   1 H    0.990 --    10 C    0.975
    33   1 H    0.990 --    11 C    0.976
    34   1 H    0.988 --    11 C    0.970
    35   1 H    0.990 --    11 C    0.974
    36   1 H    0.998 --    12 C    0.973
    37   1 H    0.997 --    12 C    0.969
    38   1 H    0.997 --    13 C    0.973
    39   1 H    0.999 --    13 C    0.978
    40   1 H    0.998 --    14 C    0.987
    41   1 H    0.997 --    14 C    0.985
    42   1 H    0.998 --    14 C    0.987
 ---------------------------------------------------------------------------

molecular dipole:
                 x           y           z       tot (Debye)
 q only:        0.647      -3.755      -2.337
   full:        0.578      -3.945      -2.134      11.495

           -------------------------------------------------
          | TOTAL ENERGY              -46.572893394022 Eh   |
          | GRADIENT NORM               0.000752944656 Eh/α |
          | HOMO-LUMO GAP               7.544607528106 eV   |
           -------------------------------------------------

 * finished run on 2024/12/20 at 07:13:08.531
