   * xtb version 6.7.1 (edcfbbe) compiled by 'conda@3ef47c1a292c' on 2024-11-25

   ID    Z sym.   atoms
    1    6 C      1-8, 10-19
    2    7 N      9
    3    1 H      20-43

          program call               : xtb C1165.xyz --opt --namespace C1165 --charge +1
          :  Hamiltonian                  GFN2-xTB          :
 * total energy  :   -53.3000577 Eh     change       -0.1653504E-09 Eh
 * total energy  :   -53.3074713 Eh     change       -0.7413639E-02 Eh
 * total energy  :   -53.3093935 Eh     change       -0.1922181E-02 Eh
 * total energy  :   -53.3097896 Eh     change       -0.3961368E-03 Eh
 * total energy  :   -53.3101061 Eh     change       -0.3164948E-03 Eh
 * total energy  :   -53.3102547 Eh     change       -0.1485801E-03 Eh
 * total energy  :   -53.3104031 Eh     change       -0.1483810E-03 Eh
 * total energy  :   -53.3105399 Eh     change       -0.1367624E-03 Eh
 * total energy  :   -53.3106842 Eh     change       -0.1443607E-03 Eh
 * total energy  :   -53.3108371 Eh     change       -0.1528600E-03 Eh
 * total energy  :   -53.3121041 Eh     change       -0.2708705E-04 Eh
 * total energy  :   -53.3121158 Eh     change       -0.1179689E-04 Eh
 * total energy  :   -53.3121225 Eh     change       -0.6642197E-05 Eh
 * total energy  :   -53.3121319 Eh     change       -0.9448583E-05 Eh
 * total energy  :   -53.3121400 Eh     change       -0.8103729E-05 Eh
 * total energy  :   -53.3121478 Eh     change       -0.7719267E-05 Eh
 * total energy  :   -53.3121548 Eh     change       -0.7079836E-05 Eh
 * total energy  :   -53.3121606 Eh     change       -0.5738562E-05 Eh
 * total energy  :   -53.3121654 Eh     change       -0.4771390E-05 Eh
   *** GEOMETRY OPTIMIZATION CONVERGED AFTER 30 ITERATIONS ***

 final structure:
================
43
 xtb: 6.7.1 (edcfbbe)
C            2.50969055106411       -0.59907379699299        0.05932150359521
C            1.04681277873202       -0.31811956204426       -0.03290969764540
C            0.16881441064037       -0.71187523635817        0.96999809240690
C           -1.18149534543665       -0.42627000975823        0.88643315207947
C           -1.69407271415354        0.25720154937145       -0.21140401782728
C           -0.81565867191044        0.66324539086602       -1.21309817896823
C            0.53182358790816        0.37595382521295       -1.12453701691040
C           -3.15648698614002        0.60270774323396       -0.29073731089507
N           -4.00873926132708       -0.42558887466850       -0.98291413810255
C           -3.94160790045356       -1.72195267212824       -0.22666036098045
C           -4.79751599528140       -2.81668622291240       -0.80332781190412
C           -4.28474084332714       -3.69679160259499       -1.75087815539952
C           -5.07174824998719       -4.70804784077425       -2.26993567753534
C           -6.38787241390418       -4.87599026976956       -1.85453481126727
C           -6.89062631841333       -4.00609629871861       -0.89120756774498
C           -6.10902377775686       -2.99386765881863       -0.37019075983929
C           -7.23630062764491       -5.97809644830193       -2.39574228939979
C           -5.39520814042149        0.06809638466220       -1.01599412966357
C           -3.53890826028049       -0.62324421594861       -2.36281045208897
H            2.73499661828612       -1.24499250594015        0.90305825326662
H            2.86776885281929       -1.07107457353156       -0.85376575305488
H            3.05883539629641        0.33382965781247        0.18264252999596
H            0.54619296356711       -1.23751534415538        1.83385763282973
H           -1.83459338265399       -0.72182381162113        1.69518408697648
H           -1.18158304000678        1.22749552110378       -2.05884269357424
H            1.19895800135066        0.70478550517290       -1.90676149428787
H           -3.55805626659365        0.73307023353715        0.71658359868513
H           -3.27924854979227        1.54108279973175       -0.83636795864945
H           -4.25582508433095       -1.51413091068955        0.79837927443718
H           -2.89499456996075       -2.03301520605445       -0.21714548375426
H           -3.25775060822384       -3.60568617506328       -2.07445532992230
H           -4.65379080604874       -5.38185608251686       -3.00215374271357
H           -7.90388509927645       -4.13018784178632       -0.54071519964687
H           -6.51982287906318       -2.34860331715223        0.39310392197031
H           -6.81527930266278       -6.38635696286224       -3.31023356503344
H           -7.30497789519446       -6.78267543702318       -1.66369911133667
H           -8.24656858824408       -5.62685089434125       -2.59366428224233
H           -5.44627657560671        1.00546061975068       -1.56697865958295
H           -6.03689843755407       -0.66396793441640       -1.50324404876343
H           -5.75895916330044        0.23740037521721       -0.00413159550144
H           -3.59189905624466        0.31513194420427       -2.91129842321049
H           -2.50768582760213       -0.97121578413551       -2.35649774412120
H           -4.16342252185668       -1.36165805881519       -2.86199458467291

          :  Hamiltonian                  GFN2-xTB          :
         :: total energy             -53.312165352321 Eh    ::
         :: gradient norm              0.000312495645 Eh/a0 ::
         :: HOMO-LUMO gap              4.242946043320 eV    ::
         :: SCC energy               -54.237965561483 Eh    ::
         :: -> dispersion             -0.041635360655 Eh    ::
         :: repulsion energy           0.925800209161 Eh    ::

    * Orbital Energies and Occupations

         #    Occupation            Energy/Eh            Energy/eV
      -------------------------------------------------------------
         1        2.0000           -0.8482355             -23.0817
       ...           ...                  ...                  ...
        38        2.0000           -0.5862713             -15.9533
        39        2.0000           -0.5688542             -15.4793
        40        2.0000           -0.5670099             -15.4291
        41        2.0000           -0.5537978             -15.0696
        42        2.0000           -0.5533932             -15.0586
        43        2.0000           -0.5417226             -14.7410
        44        2.0000           -0.5404459             -14.7063
        45        2.0000           -0.5305774             -14.4377
        46        2.0000           -0.5303151             -14.4306
        47        2.0000           -0.5191342             -14.1264
        48        2.0000           -0.5188985             -14.1199
        49        2.0000           -0.5071921             -13.8014
        50        2.0000           -0.5046013             -13.7309 (HOMO)
        51                         -0.3486759              -9.4880 (LUMO)
        52                         -0.3423962              -9.3171
        53                         -0.3367541              -9.1635
        54                         -0.3366092              -9.1596
        55                         -0.2299590              -6.2575
        56                         -0.2154636              -5.8631
        57                         -0.1829216              -4.9775
        58                         -0.1331528              -3.6233
        59                         -0.1300261              -3.5382
        60                         -0.1239304              -3.3723
        61                         -0.0467169              -1.2712
       ...                                ...                  ...
       100                          0.5375011              14.6261
      -------------------------------------------------------------
                  HL-Gap            0.1559254 Eh            4.2429 eV

     #   Z          covCN         q      C6AA      α(0)
     1   6 C        3.759    -0.120    22.845     6.814
     2   6 C        2.966     0.034    27.244     8.562
     3   6 C        2.924    -0.035    28.868     8.811
     4   6 C        2.921    -0.040    29.000     8.831
     5   6 C        2.967    -0.015    28.386     8.739
     6   6 C        2.921    -0.041    29.022     8.834
     7   6 C        2.924    -0.036    28.889     8.814
     8   6 C        3.766    -0.039    21.303     6.578
     9   7 N        3.620     0.125    19.097     6.490
    10   6 C        3.763    -0.038    21.293     6.578
    11   6 C        2.967    -0.015    28.388     8.739
    12   6 C        2.921    -0.041    29.026     8.835
    13   6 C        2.924    -0.036    28.884     8.814
    14   6 C        2.966     0.033    27.256     8.563
    15   6 C        2.924    -0.036    28.895     8.815
    16   6 C        2.921    -0.042    29.033     8.836
    17   6 C        3.759    -0.120    22.845     6.814
    18   6 C        3.722    -0.089    22.324     6.748
    19   6 C        3.718    -0.088    22.309     6.747
    20   1 H        0.925     0.058     2.227     2.334
    21   1 H        0.925     0.063     2.161     2.299
    22   1 H        0.925     0.069     2.099     2.266
    23   1 H        0.926     0.054     2.268     2.355
    24   1 H        0.926     0.037     2.486     2.466
    25   1 H        0.926     0.038     2.480     2.463
    26   1 H        0.926     0.055     2.262     2.352
    27   1 H        0.924     0.079     1.988     2.205
    28   1 H        0.924     0.081     1.974     2.197
    29   1 H        0.924     0.079     1.992     2.207
    30   1 H        0.924     0.086     1.916     2.165
    31   1 H        0.926     0.037     2.485     2.465
    32   1 H        0.926     0.053     2.278     2.360
    33   1 H        0.926     0.054     2.266     2.354
    34   1 H        0.926     0.037     2.483     2.464
    35   1 H        0.925     0.058     2.224     2.332
    36   1 H        0.925     0.070     2.090     2.261
    37   1 H        0.925     0.062     2.180     2.309
    38   1 H        0.925     0.091     1.870     2.139
    39   1 H        0.925     0.100     1.784     2.089
    40   1 H        0.925     0.092     1.859     2.132
    41   1 H        0.925     0.090     1.877     2.143
    42   1 H        0.925     0.098     1.805     2.101
    43   1 H        0.925     0.097     1.809     2.103

Wiberg/Mayer (AO) data.
largest (>0.10) Wiberg bond orders for each atom

     #   Z sym  total        # sym  WBO       # sym  WBO       # sym  WBO
 ---------------------------------------------------------------------------
     1   6 C    3.992 --     2 C    1.036    20 H    0.984    21 H    0.968
                            22 H    0.961
     2   6 C    3.986 --     3 C    1.405     7 C    1.394     1 C    1.036
                             5 C    0.104
     3   6 C    3.990 --     4 C    1.450     2 C    1.405    23 H    0.967
                             6 C    0.103
     4   6 C    3.991 --     3 C    1.450     5 C    1.405    24 H    0.968
                             7 C    0.105
     5   6 C    3.976 --     4 C    1.405     6 C    1.395     8 C    1.006
                             2 C    0.104
     6   6 C    3.991 --     7 C    1.462     5 C    1.395    25 H    0.968
                             3 C    0.103
     7   6 C    3.990 --     6 C    1.462     2 C    1.394    26 H    0.968
                             4 C    0.105
     8   6 C    3.930 --     5 C    1.006    27 H    0.966    28 H    0.965
                             9 N    0.910
     9   7 N    3.806 --    18 C    0.963    19 C    0.962    10 C    0.910
                             8 C    0.910
    10   6 C    3.928 --    11 C    1.006    29 H    0.966    30 H    0.961
                             9 N    0.910
    11   6 C    3.976 --    12 C    1.404    16 C    1.397    10 C    1.006
                            14 C    0.104
    12   6 C    3.991 --    13 C    1.451    11 C    1.404    31 H    0.968
                            15 C    0.105
    13   6 C    3.990 --    12 C    1.451    14 C    1.403    32 H    0.967
                            16 C    0.103
    14   6 C    3.986 --    13 C    1.403    15 C    1.396    17 C    1.036
                            11 C    0.104
    15   6 C    3.990 --    16 C    1.460    14 C    1.396    33 H    0.968
                            12 C    0.105
    16   6 C    3.991 --    15 C    1.460    11 C    1.397    34 H    0.968
                            13 C    0.103
    17   6 C    3.992 --    14 C    1.036    35 H    0.982    37 H    0.973
                            36 H    0.958
    18   6 C    3.932 --    40 H    0.976    38 H    0.975    39 H    0.970
                             9 N    0.963
    19   6 C    3.931 --    41 H    0.976    42 H    0.971    43 H    0.971
                             9 N    0.962
    20   1 H    0.996 --     1 C    0.984
    21   1 H    0.995 --     1 C    0.968
    22   1 H    0.995 --     1 C    0.961
    23   1 H    0.997 --     3 C    0.967
    24   1 H    0.998 --     4 C    0.968
    25   1 H    0.998 --     6 C    0.968
    26   1 H    0.997 --     7 C    0.968
    27   1 H    0.993 --     8 C    0.966
    28   1 H    0.992 --     8 C    0.965
    29   1 H    0.993 --    10 C    0.966
    30   1 H    0.992 --    10 C    0.961
    31   1 H    0.998 --    12 C    0.968
    32   1 H    0.997 --    13 C    0.967
    33   1 H    0.997 --    15 C    0.968
    34   1 H    0.998 --    16 C    0.968
    35   1 H    0.996 --    17 C    0.982
    36   1 H    0.995 --    17 C    0.958
    37   1 H    0.996 --    17 C    0.973
    38   1 H    0.992 --    18 C    0.975
    39   1 H    0.989 --    18 C    0.970
    40   1 H    0.991 --    18 C    0.976
    41   1 H    0.992 --    19 C    0.976
    42   1 H    0.990 --    19 C    0.971
    43   1 H    0.990 --    19 C    0.971
 ---------------------------------------------------------------------------

molecular dipole:
                 x           y           z       tot (Debye)
 q only:       -6.977      -1.950      -2.098
   full:       -7.012      -1.828      -2.016      19.118

           -------------------------------------------------
          | TOTAL ENERGY              -53.312165352321 Eh   |
          | GRADIENT NORM               0.000312495645 Eh/α |
          | HOMO-LUMO GAP               4.242946043320 eV   |
           -------------------------------------------------

 * finished run on 2024/12/20 at 07:13:10.044
