   * xtb version 6.7.1 (edcfbbe) compiled by 'conda@3ef47c1a292c' on 2024-11-25

   ID    Z sym.   atoms
    1    6 C      1-12, 14, 15
    2    7 N      13
    3    1 H      16-39

          program call               : xtb C1175.xyz --opt --namespace C1175 --charge +1
          :  Hamiltonian                  GFN2-xTB          :
 * total energy  :   -44.7388377 Eh     change       -0.1402611E-09 Eh
 * total energy  :   -44.7411427 Eh     change       -0.2305051E-02 Eh
 * total energy  :   -44.7416145 Eh     change       -0.4718389E-03 Eh
 * total energy  :   -44.7417126 Eh     change       -0.9809882E-04 Eh
 * total energy  :   -44.7418071 Eh     change       -0.9443313E-04 Eh
 * total energy  :   -44.7418694 Eh     change       -0.6232645E-04 Eh
 * total energy  :   -44.7419330 Eh     change       -0.6359100E-04 Eh
 * total energy  :   -44.7419845 Eh     change       -0.5146609E-04 Eh
 * total energy  :   -44.7420126 Eh     change       -0.2809917E-04 Eh
 * total energy  :   -44.7420282 Eh     change       -0.1558817E-04 Eh
 * total energy  :   -44.7420454 Eh     change       -0.1726755E-04 Eh
 * total energy  :   -44.7420547 Eh     change       -0.9261139E-05 Eh
 * total energy  :   -44.7420621 Eh     change       -0.7403052E-05 Eh
 * total energy  :   -44.7420695 Eh     change       -0.7401665E-05 Eh
 * total energy  :   -44.7420760 Eh     change       -0.6521187E-05 Eh
 * total energy  :   -44.7420801 Eh     change       -0.4068244E-05 Eh
   *** GEOMETRY OPTIMIZATION CONVERGED AFTER 16 ITERATIONS ***

 final structure:
================
39
 xtb: 6.7.1 (edcfbbe)
C            1.05610726045364        0.23700697629893        0.28163520176153
C            0.88436368539046        0.72890872392130       -1.15052915306313
C            1.23428467808369       -0.32826660999266       -2.19937757505815
C            0.38925583724115       -1.60276495143462       -2.13963687395922
C           -1.11836643627544       -1.38637746560489       -2.28246471380814
C           -1.55312511575485       -0.69658152585235       -3.57746658998745
C           -1.14421584495564       -1.41988738337926       -4.86336908361048
C           -1.65510329386273       -2.85235046282454       -4.99380211420508
C           -3.19855823739604       -2.97476184713740       -5.04171168586322
C           -3.72057843426226       -2.36443173959238       -6.28264293501606
C           -3.75895304577589       -3.08903472463223       -7.48305497460872
C           -4.19817140855931       -2.49182377114520       -8.63884844430963
N           -4.58859666291761       -1.20928744057692       -8.62938594756607
C           -4.56525650944700       -0.47341302130979       -7.50967235258614
C           -4.13667304077652       -1.02573152079059       -6.32733475176953
H            0.34161923502216       -0.54710325214495        0.51919892534560
H            0.90096515783037        1.05580315695565        0.98007789463759
H            2.05995665148142       -0.15372378132200        0.43168415271283
H           -0.14052239822284        1.07672904992556       -1.29558544763076
H            1.54131294307726        1.58730471591633       -1.30827705695325
H            1.15008594519046        0.12145694112848       -3.19174501740891
H            2.27967698889389       -0.61550741545311       -2.06522423715026
H            0.73852402861624       -2.28285919907759       -2.92018103906143
H            0.56715144347218       -2.09998590789932       -1.18518768986187
H           -1.61640868401991       -2.35519722350679       -2.19625980898259
H           -1.46919063147758       -0.77796628725435       -1.44775623022724
H           -2.63895660835120       -0.57120913516184       -3.54660042096697
H           -1.12131148594742        0.30456175688725       -3.60759867855946
H           -1.47821069170936       -0.82898042117699       -5.72202342189828
H           -0.05515949468057       -1.45652106345490       -4.90823570747506
H           -1.23834464278224       -3.30004508614005       -5.89842644301636
H           -1.30863008400303       -3.43864924178826       -4.14425452348369
H           -3.44934167867218       -4.03570582183274       -5.01510642812293
H           -3.61708593529089       -2.48632959355395       -4.16327400190594
H           -3.44741800346909       -4.12169875644108       -7.50183124508831
H           -4.24570166613896       -3.02225348623322       -9.57792833552344
H           -4.91469106031082       -0.78509514429348       -9.49367607992265
H           -4.89348444383287        0.55286238050218       -7.57806501617668
H           -4.12783831585831       -0.42456042052771       -5.43201214963067

          :  Hamiltonian                  GFN2-xTB          :
         :: total energy             -44.742080074059 Eh    ::
         :: gradient norm              0.000307009783 Eh/a0 ::
         :: HOMO-LUMO gap              0.724196020792 eV    ::
         :: SCC energy               -45.463765759166 Eh    ::
         :: -> dispersion             -0.031659309587 Eh    ::
         :: repulsion energy           0.721685685107 Eh    ::

    * Orbital Energies and Occupations

         #    Occupation            Energy/Eh            Energy/eV
      -------------------------------------------------------------
         1        2.0000           -0.8818542             -23.9965
       ...           ...                  ...                  ...
        30        2.0000           -0.5766476             -15.6914
        31        2.0000           -0.5666423             -15.4191
        32        2.0000           -0.5605401             -15.2531
        33        2.0000           -0.5558405             -15.1252
        34        2.0000           -0.5460414             -14.8585
        35        2.0000           -0.5390502             -14.6683
        36        2.0000           -0.5331054             -14.5065
        37        2.0000           -0.5203701             -14.1600
        38        2.0000           -0.5137630             -13.9802
        39        2.0000           -0.5101573             -13.8821
        40        2.0000           -0.4914908             -13.3741
        41        2.0000           -0.4880738             -13.2812
        42        2.0000           -0.4848097             -13.1923 (HOMO)
        43        0.0000           -0.4581960             -12.4681 (LUMO)
        44                         -0.4267935             -11.6136
        45                         -0.3087611              -8.4018
        46                         -0.1560911              -4.2475
        47                         -0.0775790              -2.1110
        48                         -0.0458226              -1.2469
        49                         -0.0422700              -1.1502
        50                         -0.0339777              -0.9246
        51                         -0.0262912              -0.7154
        52                         -0.0164375              -0.4473
        53                         -0.0017151              -0.0467
       ...                                ...                  ...
        84                          0.4419890              12.0271
      -------------------------------------------------------------
                  HL-Gap            0.0266137 Eh            0.7242 eV

     #   Z          covCN         q      C6AA      α(0)
     1   6 C        3.751    -0.104    22.552     6.772
     2   6 C        3.799    -0.053    21.527     6.606
     3   6 C        3.800    -0.059    21.635     6.623
     4   6 C        3.800    -0.060    21.663     6.627
     5   6 C        3.800    -0.061    21.667     6.628
     6   6 C        3.800    -0.060    21.654     6.625
     7   6 C        3.800    -0.063    21.709     6.634
     8   6 C        3.803    -0.056    21.581     6.614
     9   6 C        3.807    -0.076    21.948     6.669
    10   6 C        2.974     0.078    26.253     8.405
    11   6 C        2.920    -0.021    28.537     8.760
    12   6 C        2.866     0.042    27.052     8.526
    13   7 N        2.704     0.015    21.001     6.806
    14   6 C        2.866     0.042    27.054     8.526
    15   6 C        2.919    -0.020    28.501     8.755
    16   1 H        0.925     0.034     2.528     2.486
    17   1 H        0.925     0.037     2.492     2.469
    18   1 H        0.925     0.038     2.473     2.459
    19   1 H        0.924     0.027     2.626     2.534
    20   1 H        0.924     0.032     2.558     2.501
    21   1 H        0.924     0.024     2.670     2.555
    22   1 H        0.924     0.036     2.501     2.473
    23   1 H        0.924     0.026     2.647     2.544
    24   1 H        0.924     0.042     2.417     2.431
    25   1 H        0.924     0.027     2.636     2.539
    26   1 H        0.924     0.045     2.388     2.416
    27   1 H        0.924     0.019     2.751     2.594
    28   1 H        0.924     0.046     2.365     2.405
    29   1 H        0.924     0.018     2.762     2.599
    30   1 H        0.924     0.060     2.194     2.316
    31   1 H        0.924     0.043     2.412     2.429
    32   1 H        0.925     0.076     2.025     2.225
    33   1 H        0.924     0.079     1.990     2.206
    34   1 H        0.925     0.085     1.929     2.172
    35   1 H        0.926     0.106     1.733     2.058
    36   1 H        0.926     0.110     1.700     2.039
    37   1 H        0.860     0.229     0.970     1.543
    38   1 H        0.926     0.110     1.701     2.039
    39   1 H        0.926     0.109     1.709     2.044

Wiberg/Mayer (AO) data.
largest (>0.10) Wiberg bond orders for each atom

     #   Z sym  total        # sym  WBO       # sym  WBO       # sym  WBO
 ---------------------------------------------------------------------------
     1   6 C    3.996 --     2 C    1.020    18 H    0.987    17 H    0.987
                            16 H    0.986
     2   6 C    3.998 --     1 C    1.020     3 C    1.008    20 H    0.978
                            19 H    0.976
     3   6 C    3.997 --     2 C    1.008     4 C    1.007    22 H    0.977
                            21 H    0.976
     4   6 C    3.996 --     5 C    1.008     3 C    1.007    23 H    0.975
                            24 H    0.974
     5   6 C    3.996 --     4 C    1.008     6 C    1.007    25 H    0.975
                            26 H    0.973
     6   6 C    3.995 --     5 C    1.007     7 C    1.006    28 H    0.973
                            27 H    0.972
     7   6 C    3.994 --     8 C    1.011     6 C    1.006    29 H    0.974
                            30 H    0.965
     8   6 C    3.983 --     7 C    1.011    31 H    0.977    32 H    0.964
                             9 C    0.936
     9   6 C    3.985 --    10 C    1.060    34 H    0.959    33 H    0.957
                             8 C    0.936
    10   6 C    3.961 --    11 C    1.351    15 C    1.349     9 C    1.060
    11   6 C    3.982 --    12 C    1.503    10 C    1.351    35 H    0.958
    12   6 C    3.952 --    11 C    1.503    13 N    1.310    36 H    0.957
    13   7 N    3.701 --    14 C    1.313    12 C    1.310    37 H    0.919
    14   6 C    3.953 --    15 C    1.499    13 N    1.313    38 H    0.957
    15   6 C    3.981 --    14 C    1.499    10 C    1.349    39 H    0.955
    16   1 H    0.999 --     1 C    0.986
    17   1 H    0.999 --     1 C    0.987
    18   1 H    0.999 --     1 C    0.987
    19   1 H    0.999 --     2 C    0.976
    20   1 H    0.999 --     2 C    0.978
    21   1 H    0.999 --     3 C    0.976
    22   1 H    0.999 --     3 C    0.977
    23   1 H    0.999 --     4 C    0.975
    24   1 H    0.998 --     4 C    0.974
    25   1 H    0.999 --     5 C    0.975
    26   1 H    0.998 --     5 C    0.973
    27   1 H    0.999 --     6 C    0.972
    28   1 H    0.998 --     6 C    0.973
    29   1 H    1.000 --     7 C    0.974
    30   1 H    0.994 --     7 C    0.965
    31   1 H    0.998 --     8 C    0.977
    32   1 H    0.992 --     8 C    0.964
    33   1 H    0.993 --     9 C    0.957
    34   1 H    0.992 --     9 C    0.959
    35   1 H    0.989 --    11 C    0.958
    36   1 H    0.988 --    12 C    0.957
    37   1 H    0.948 --    13 N    0.919
    38   1 H    0.988 --    14 C    0.957
    39   1 H    0.988 --    15 C    0.955
 ---------------------------------------------------------------------------

molecular dipole:
                 x           y           z       tot (Debye)
 q only:       -7.249      -3.250     -13.588
   full:       -7.400      -3.158     -13.909      40.841

           -------------------------------------------------
          | TOTAL ENERGY              -44.742080074059 Eh   |
          | GRADIENT NORM               0.000307009783 Eh/α |
          | HOMO-LUMO GAP               0.724196020792 eV   |
           -------------------------------------------------

 * finished run on 2024/12/20 at 07:13:52.665
