   * xtb version 6.7.1 (edcfbbe) compiled by 'conda@3ef47c1a292c' on 2024-11-25

   ID    Z sym.   atoms
    1    6 C      1, 3, 5-7
    2    7 N      2, 4
    3    1 H      8-14

          program call               : xtb C1177.xyz --opt --namespace C1177 --charge +1
          :  Hamiltonian                  GFN2-xTB          :
 * total energy  :   -19.6796174 Eh     change       -0.9000338E-09 Eh
 * total energy  :   -19.6828262 Eh     change       -0.3208790E-02 Eh
 * total energy  :   -19.6832778 Eh     change       -0.4516078E-03 Eh
 * total energy  :   -19.6833142 Eh     change       -0.3636814E-04 Eh
 * total energy  :   -19.6833244 Eh     change       -0.1017650E-04 Eh
 * total energy  :   -19.6833254 Eh     change       -0.1039773E-05 Eh
   *** GEOMETRY OPTIMIZATION CONVERGED AFTER 6 ITERATIONS ***

 final structure:
================
14
 xtb: 6.7.1 (edcfbbe)
C            0.94636698347507        0.14184001446758        0.04028871564374
N            0.48550567925924        1.50961267269503        0.02142813596579
C           -0.82358242344845        1.77612469549133       -0.16770645065797
N           -1.31802395748092        2.97618645661614       -0.18819299962253
C           -0.51147424915893        4.01343685077249       -0.01619105065555
C            0.85547705630716        3.83350099060576        0.18645265393823
C            1.32845103960285        2.53503479084341        0.19956462632310
H            0.58823191438030       -0.38767661172225       -0.84310922420197
H            0.55934588048885       -0.37045580970652        0.92342298743223
H            2.03354682636771        0.10364700981281        0.06127306841493
H           -1.49972656808680        0.94248483594168       -0.30985772755084
H           -0.97378272255402        4.99055834259016       -0.04413318673323
H            1.52562577235730        4.66618091730592        0.32748335394569
H            2.37529876849064        2.30800484428646        0.35119709775837

          :  Hamiltonian                  GFN2-xTB          :
         :: total energy             -19.683325396469 Eh    ::
         :: gradient norm              0.000508213599 Eh/a0 ::
         :: HOMO-LUMO gap              2.381198901476 eV    ::
         :: SCC energy               -19.998463595658 Eh    ::
         :: -> dispersion             -0.008479193660 Eh    ::
         :: repulsion energy           0.315138199189 Eh    ::

    * Orbital Energies and Occupations

         #    Occupation            Energy/Eh            Energy/eV
      -------------------------------------------------------------
         1        2.0000           -0.9161927             -24.9309
       ...           ...                  ...                  ...
         6        2.0000           -0.8080199             -21.9873
         7        2.0000           -0.7786990             -21.1895
         8        2.0000           -0.7599863             -20.6803
         9        2.0000           -0.7533481             -20.4996
        10        2.0000           -0.7275145             -19.7967
        11        2.0000           -0.7068494             -19.2344
        12        2.0000           -0.7028900             -19.1266
        13        2.0000           -0.6915479             -18.8180
        14        2.0000           -0.6747022             -18.3596
        15        2.0000           -0.6639457             -18.0669
        16        2.0000           -0.6549554             -17.8222
        17        2.0000           -0.6457775             -17.5725
        18        2.0000           -0.5812501             -15.8166 (HOMO)
        19                         -0.4937426             -13.4354 (LUMO)
        20                         -0.4676878             -12.7264
        21                         -0.3441173              -9.3639
        22                         -0.1948233              -5.3014
        23                         -0.1017096              -2.7677
        24                         -0.0661331              -1.7996
        25                         -0.0472207              -1.2849
        26                         -0.0383907              -1.0447
        27                         -0.0201303              -0.5478
        28                          0.0051380               0.1398
        29                          0.0192911               0.5249
       ...                                ...                  ...
        35                          0.3933050              10.7024
      -------------------------------------------------------------
                  HL-Gap            0.0875074 Eh            2.3812 eV

     #   Z          covCN         q      C6AA      α(0)
     1   6 C        3.706    -0.099    22.552     6.789
     2   7 N        2.746     0.108    19.387     6.539
     3   6 C        2.886     0.118    25.402     8.263
     4   7 N        1.837    -0.126    24.508     7.336
     5   6 C        2.919     0.096    25.877     8.342
     6   6 C        2.908    -0.014    28.359     8.732
     7   6 C        2.900     0.052    26.829     8.493
     8   1 H        0.924     0.122     1.600     1.978
     9   1 H        0.924     0.124     1.581     1.966
    10   1 H        0.925     0.114     1.659     2.014
    11   1 H        0.925     0.130     1.532     1.935
    12   1 H        0.925     0.129     1.539     1.940
    13   1 H        0.926     0.124     1.584     1.968
    14   1 H        0.925     0.122     1.601     1.979

Wiberg/Mayer (AO) data.
largest (>0.10) Wiberg bond orders for each atom

     #   Z sym  total        # sym  WBO       # sym  WBO       # sym  WBO
 ---------------------------------------------------------------------------
     1   6 C    3.921 --     2 N    0.984    10 H    0.971     8 H    0.956
                             9 H    0.949
     2   7 N    3.770 --     7 C    1.334     3 C    1.291     1 C    0.984
     3   6 C    3.944 --     4 N    1.519     2 N    1.291    11 H    0.943
                             6 C    0.109
     4   7 N    3.113 --     3 C    1.519     5 C    1.409
     5   6 C    3.943 --     4 N    1.409     6 C    1.403    12 H    0.950
     6   6 C    3.976 --     7 C    1.464     5 C    1.403    13 H    0.955
                             3 C    0.109
     7   6 C    3.951 --     6 C    1.464     2 N    1.334    14 H    0.950
     8   1 H    0.985 --     1 C    0.956
     9   1 H    0.985 --     1 C    0.949
    10   1 H    0.987 --     1 C    0.971
    11   1 H    0.983 --     3 C    0.943
    12   1 H    0.983 --     5 C    0.950
    13   1 H    0.985 --     6 C    0.955
    14   1 H    0.985 --     7 C    0.950
 ---------------------------------------------------------------------------

molecular dipole:
                 x           y           z       tot (Debye)
 q only:        1.068       3.765       0.122
   full:        1.422       3.694       0.177      10.070

           -------------------------------------------------
          | TOTAL ENERGY              -19.683325396469 Eh   |
          | GRADIENT NORM               0.000508213599 Eh/α |
          | HOMO-LUMO GAP               2.381198901476 eV   |
           -------------------------------------------------

 * finished run on 2024/12/20 at 07:13:52.896
