   * xtb version 6.7.1 (edcfbbe) compiled by 'conda@3ef47c1a292c' on 2024-11-25

   ID    Z sym.   atoms
    1    6 C      1, 3, 5, 6, 8
    2    7 N      2, 4
    3   17 Cl     7
    4    1 H      9-16

          program call               : xtb C1176.xyz --opt --namespace C1176 --charge +1
          :  Hamiltonian                  GFN2-xTB          :
 * total energy  :   -24.7968358 Eh     change       -0.1110688E-08 Eh
 * total energy  :   -24.7996188 Eh     change       -0.2782994E-02 Eh
 * total energy  :   -24.8003306 Eh     change       -0.7118229E-03 Eh
 * total energy  :   -24.8004087 Eh     change       -0.7809708E-04 Eh
 * total energy  :   -24.8004356 Eh     change       -0.2694132E-04 Eh
 * total energy  :   -24.8004398 Eh     change       -0.4216590E-05 Eh
   *** GEOMETRY OPTIMIZATION CONVERGED AFTER 6 ITERATIONS ***

 final structure:
================
16
 xtb: 6.7.1 (edcfbbe)
C            0.90561404067898        0.03662972534272        0.07630655057322
N            0.46321948192611       -0.31921361552017        1.39823770490607
C            0.01824027878122        0.51144395630073        2.33450286627228
N           -0.27776858401420       -0.17545082095805        3.43924645392214
C           -0.00811240441742       -1.49903789290901        3.19581153106419
C            0.45881709058458       -1.58229551164708        1.90903883349460
Cl          -0.25958589489914       -2.69688876906459        4.36747957883633
C           -0.79061384037466        0.34764838382162        4.67599031007738
H            0.55332052132450        1.03362305139024       -0.17902141406337
H            0.51790711499415       -0.67767873174971       -0.64885415409267
H            1.99600303093493        0.02299504407257        0.02642633407630
H           -0.08968946965674        1.57371159442883        2.22194844524623
H            0.77515982844556       -2.43990555886446        1.35109523735465
H           -1.75067067369630       -0.11605393666299        4.90503743420408
H           -0.09915952377532        0.12281792556481        5.48880108497258
H           -0.91832099683622        1.42427515645453        4.59717320315597

          :  Hamiltonian                  GFN2-xTB          :
         :: total energy             -24.800439838426 Eh    ::
         :: gradient norm              0.000576481654 Eh/a0 ::
         :: HOMO-LUMO gap              4.024194919649 eV    ::
         :: SCC energy               -25.107178398401 Eh    ::
         :: -> dispersion             -0.011326602681 Eh    ::
         :: repulsion energy           0.306738559975 Eh    ::

    * Orbital Energies and Occupations

         #    Occupation            Energy/Eh            Energy/eV
      -------------------------------------------------------------
         1        2.0000           -1.2121679             -32.9848
       ...           ...                  ...                  ...
        10        2.0000           -0.7306831             -19.8829
        11        2.0000           -0.7102909             -19.3280
        12        2.0000           -0.7049707             -19.1832
        13        2.0000           -0.7038783             -19.1535
        14        2.0000           -0.6874307             -18.7059
        15        2.0000           -0.6749368             -18.3660
        16        2.0000           -0.6542905             -17.8042
        17        2.0000           -0.6508254             -17.7099
        18        2.0000           -0.6447673             -17.5450
        19        2.0000           -0.6322657             -17.2048
        20        2.0000           -0.6093697             -16.5818
        21        2.0000           -0.5868241             -15.9683
        22        2.0000           -0.5674122             -15.4401 (HOMO)
        23                         -0.4195258             -11.4159 (LUMO)
        24                         -0.3859288             -10.5017
        25                         -0.2951971              -8.0327
        26                         -0.1995286              -5.4295
        27                         -0.1535979              -4.1796
        28                         -0.1435682              -3.9067
        29                         -0.1434622              -3.9038
        30                         -0.1299382              -3.5358
        31                         -0.1284968              -3.4966
        32                         -0.0663671              -1.8059
        33                         -0.0503106              -1.3690
       ...                                ...                  ...
        45                          0.4133435              11.2476
      -------------------------------------------------------------
                  HL-Gap            0.1478864 Eh            4.0242 eV

     #   Z          covCN         q      C6AA      α(0)
     1   6 C        3.693    -0.093    22.471     6.783
     2   7 N        2.859     0.088    19.711     6.594
     3   6 C        3.079     0.037    27.081     8.532
     4   7 N        2.879     0.068    20.050     6.650
     5   6 C        3.019     0.124    25.266     8.245
     6   6 C        3.072    -0.031    28.688     8.782
     7  17 Cl       0.929    -0.040   100.405    15.330
     8   6 C        3.691    -0.092    22.453     6.780
     9   1 H        0.925     0.108     1.715     2.048
    10   1 H        0.925     0.116     1.649     2.008
    11   1 H        0.924     0.115     1.654     2.011
    12   1 H        0.926     0.129     1.542     1.942
    13   1 H        0.926     0.129     1.545     1.944
    14   1 H        0.924     0.117     1.637     2.001
    15   1 H        0.924     0.117     1.637     2.001
    16   1 H        0.925     0.108     1.713     2.047

Wiberg/Mayer (AO) data.
largest (>0.10) Wiberg bond orders for each atom

     #   Z sym  total        # sym  WBO       # sym  WBO       # sym  WBO
 ---------------------------------------------------------------------------
     1   6 C    3.924 --     2 N    0.987     9 H    0.973    10 H    0.965
                            11 H    0.956
     2   7 N    3.726 --     3 C    1.368     6 C    1.223     1 C    0.987
     3   6 C    3.938 --     2 N    1.368     4 N    1.339    12 H    0.949
     4   7 N    3.708 --     3 C    1.339     5 C    1.192     8 C    0.986
     5   6 C    3.922 --     6 C    1.511     4 N    1.192     7 Cl   1.066
     6   6 C    3.939 --     5 C    1.511     2 N    1.223    13 H    0.956
     7  17 Cl   1.247 --     5 C    1.066
     8   6 C    3.923 --     4 N    0.986    16 H    0.974    14 H    0.958
                            15 H    0.958
     9   1 H    0.988 --     1 C    0.973
    10   1 H    0.986 --     1 C    0.965
    11   1 H    0.986 --     1 C    0.956
    12   1 H    0.983 --     3 C    0.949
    13   1 H    0.983 --     6 C    0.956
    14   1 H    0.986 --     8 C    0.958
    15   1 H    0.986 --     8 C    0.958
    16   1 H    0.988 --     8 C    0.974
 ---------------------------------------------------------------------------

molecular dipole:
                 x           y           z       tot (Debye)
 q only:        0.241      -0.011       4.257
   full:        0.199      -0.444       4.558      11.650

           -------------------------------------------------
          | TOTAL ENERGY              -24.800439838426 Eh   |
          | GRADIENT NORM               0.000576481654 Eh/α |
          | HOMO-LUMO GAP               4.024194919649 eV   |
           -------------------------------------------------

 * finished run on 2024/12/20 at 07:13:52.798
