   * xtb version 6.7.1 (edcfbbe) compiled by 'conda@3ef47c1a292c' on 2024-11-25

   ID    Z sym.   atoms
    1    6 C      1-7, 9, 11-15
    2    8 O      8
    3    7 N      10
    4    1 H      16-37

          program call               : xtb C1173.xyz --opt --namespace C1173 --charge +1
          :  Hamiltonian                  GFN2-xTB          :
 * total energy  :   -45.6266249 Eh     change       -0.2201844E-08 Eh
 * total energy  :   -45.6304383 Eh     change       -0.3813457E-02 Eh
 * total energy  :   -45.6312526 Eh     change       -0.8143114E-03 Eh
 * total energy  :   -45.6314131 Eh     change       -0.1604244E-03 Eh
 * total energy  :   -45.6315336 Eh     change       -0.1205562E-03 Eh
 * total energy  :   -45.6315732 Eh     change       -0.3956551E-04 Eh
 * total energy  :   -45.6316249 Eh     change       -0.5167938E-04 Eh
 * total energy  :   -45.6316820 Eh     change       -0.5712739E-04 Eh
 * total energy  :   -45.6317493 Eh     change       -0.6726668E-04 Eh
 * total energy  :   -45.6318292 Eh     change       -0.7995261E-04 Eh
 * total energy  :   -45.6325315 Eh     change        0.4748493E-05 Eh
 * total energy  :   -45.6325594 Eh     change       -0.2785762E-04 Eh
 * total energy  :   -45.6325718 Eh     change       -0.1243399E-04 Eh
 * total energy  :   -45.6325862 Eh     change       -0.1436932E-04 Eh
 * total energy  :   -45.6326090 Eh     change       -0.2286467E-04 Eh
 * total energy  :   -45.6326189 Eh     change       -0.9897255E-05 Eh
 * total energy  :   -45.6326263 Eh     change       -0.7377816E-05 Eh
 * total energy  :   -45.6326318 Eh     change       -0.5534212E-05 Eh
 * total energy  :   -45.6326349 Eh     change       -0.3035354E-05 Eh
   *** GEOMETRY OPTIMIZATION CONVERGED AFTER 29 ITERATIONS ***

 final structure:
================
37
 xtb: 6.7.1 (edcfbbe)
C            0.47996775845441       -1.48451849497885        0.78625742165451
C            0.25609076811414       -0.65532227473606        2.04518400102718
C            1.01148832258955        0.67488726740943        2.03667545417257
C            0.60176689320682        1.63816387474085        0.91996720039943
C           -0.87519029981624        2.04109812689137        0.93353928659079
C           -1.37891851713218        2.66790922847839        2.24120694065243
C           -0.58666906131065        3.84980470948021        2.80701194355789
O           -1.02745248988179        5.14453130038559        2.36852309919057
C           -0.80118886494721        5.47004183477620        1.06171250001943
N            0.63335065852629        5.81656337182240        0.83586380132406
C            1.24036143443923        6.57864554405440        1.75192557440991
C            2.56693976318084        6.92926994034317        1.61504472564908
C            3.27376346199450        6.48167530140070        0.50518706783969
C            2.62128243411482        5.68971089370864       -0.43185377260997
C            1.29289478652134        5.36983953211289       -0.23627292595528
H            0.05844558577104       -0.99961210530277       -0.09083893689709
H            0.00458182099445       -2.45593670190438        0.89141223410013
H            1.54272986663768       -1.64248175715856        0.61768167832861
H           -0.81233276386541       -0.48041581413830        2.18175899083069
H            0.60136025635256       -1.22822928228491        2.90795695766331
H            0.87832479785865        1.16260925376274        3.00489499630507
H            2.07778243952441        0.46550965577780        1.92290710425570
H            1.23768856475892        2.52915063917570        0.98249834798863
H            0.81284777735578        1.17184216888570       -0.04364645576196
H           -1.06218896932331        2.70273975530772        0.08231748449592
H           -1.47770823965038        1.14950590180570        0.75738189922688
H           -2.41490138600938        2.98688996936934        2.10986063241973
H           -1.37912909166271        1.89109575303441        3.00551797925529
H           -0.73989813049008        3.90160560617450        3.88585186298938
H            0.48665654376022        3.73918316903396        2.61621976921565
H           -1.06362565341765        4.67680436201717        0.35334744830922
H           -1.39418290928802        6.36786399586273        0.84670218917767
H            0.63555036361545        6.88203464987295        2.59581709488804
H            3.03690877897483        7.54469382642151        2.36542696895158
H            4.31265195355785        6.74193403920536        0.37438392877855
H            3.13650821323612        5.31798438077676       -1.30311374712321
H            0.74910313324975        4.75186837842432       -0.93594074531611

          :  Hamiltonian                  GFN2-xTB          :
         :: total energy             -45.632634874722 Eh    ::
         :: gradient norm              0.000354533346 Eh/a0 ::
         :: HOMO-LUMO gap              1.070225017415 eV    ::
         :: SCC energy               -46.302245044030 Eh    ::
         :: -> dispersion             -0.030196683962 Eh    ::
         :: repulsion energy           0.669610169308 Eh    ::

    * Orbital Energies and Occupations

         #    Occupation            Energy/Eh            Energy/eV
      -------------------------------------------------------------
         1        2.0000           -0.8870016             -24.1365
       ...           ...                  ...                  ...
        30        2.0000           -0.6178471             -16.8125
        31        2.0000           -0.5954713             -16.2036
        32        2.0000           -0.5841972             -15.8968
        33        2.0000           -0.5807407             -15.8028
        34        2.0000           -0.5724462             -15.5771
        35        2.0000           -0.5601539             -15.2426
        36        2.0000           -0.5586080             -15.2005
        37        2.0000           -0.5461615             -14.8618
        38        2.0000           -0.5364078             -14.5964
        39        2.0000           -0.5344919             -14.5443
        40        2.0000           -0.5158154             -14.0361
        41        2.0000           -0.5103467             -13.8872
        42        2.0000           -0.5049417             -13.7402 (HOMO)
        43                         -0.4656116             -12.6699 (LUMO)
        44                         -0.4342060             -11.8153
        45                         -0.3134767              -8.5301
        46                         -0.2032025              -5.5294
        47                         -0.1294811              -3.5234
        48                         -0.0848759              -2.3096
        49                         -0.0501034              -1.3634
        50                         -0.0424579              -1.1553
        51                         -0.0379931              -1.0338
        52                         -0.0349527              -0.9511
        53                         -0.0213411              -0.5807
       ...                                ...                  ...
        82                          0.4406325              11.9902
      -------------------------------------------------------------
                  HL-Gap            0.0393300 Eh            1.0702 eV

     #   Z          covCN         q      C6AA      α(0)
     1   6 C        3.751    -0.106    22.586     6.777
     2   6 C        3.800    -0.056    21.580     6.614
     3   6 C        3.800    -0.061    21.675     6.629
     4   6 C        3.799    -0.056    21.586     6.615
     5   6 C        3.799    -0.061    21.681     6.630
     6   6 C        3.798    -0.079    22.006     6.679
     7   6 C        3.689     0.061    19.738     6.359
     8   8 O        1.700    -0.283    18.708     5.840
     9   6 C        3.642     0.115    19.026     6.271
    10   7 N        2.746     0.074    19.956     6.635
    11   6 C        2.888     0.044    27.005     8.520
    12   6 C        2.915    -0.008    28.220     8.711
    13   6 C        2.925     0.017    27.638     8.621
    14   6 C        2.915    -0.009    28.234     8.713
    15   6 C        2.882     0.038    27.136     8.540
    16   1 H        0.925     0.033     2.543     2.494
    17   1 H        0.925     0.043     2.404     2.425
    18   1 H        0.925     0.039     2.468     2.457
    19   1 H        0.924     0.033     2.542     2.493
    20   1 H        0.924     0.039     2.459     2.452
    21   1 H        0.924     0.027     2.622     2.532
    22   1 H        0.924     0.038     2.479     2.462
    23   1 H        0.924     0.001     3.048     2.730
    24   1 H        0.924     0.045     2.385     2.415
    25   1 H        0.924     0.014     2.826     2.629
    26   1 H        0.924     0.060     2.203     2.321
    27   1 H        0.924     0.059     2.214     2.327
    28   1 H        0.925     0.066     2.130     2.282
    29   1 H        0.924     0.080     1.984     2.203
    30   1 H        0.924     0.032     2.552     2.498
    31   1 H        0.924     0.084     1.939     2.178
    32   1 H        0.924     0.105     1.739     2.062
    33   1 H        0.925     0.127     1.558     1.952
    34   1 H        0.926     0.113     1.671     2.022
    35   1 H        0.926     0.111     1.684     2.029
    36   1 H        0.926     0.112     1.677     2.025
    37   1 H        0.926     0.109     1.707     2.043

Wiberg/Mayer (AO) data.
largest (>0.10) Wiberg bond orders for each atom

     #   Z sym  total        # sym  WBO       # sym  WBO       # sym  WBO
 ---------------------------------------------------------------------------
     1   6 C    3.996 --     2 C    1.021    18 H    0.987    17 H    0.986
                            16 H    0.986
     2   6 C    3.997 --     1 C    1.021     3 C    1.008    20 H    0.977
                            19 H    0.975
     3   6 C    3.996 --     2 C    1.008     4 C    1.007    21 H    0.976
                            22 H    0.976
     4   6 C    3.996 --     5 C    1.007     3 C    1.007    24 H    0.974
                            23 H    0.973
     5   6 C    3.994 --     4 C    1.007     6 C    1.006    26 H    0.971
                            25 H    0.968
     6   6 C    3.989 --     5 C    1.006     7 C    1.001    27 H    0.972
                            28 H    0.969
     7   6 C    3.922 --     6 C    1.001    29 H    0.968    30 H    0.967
                             8 O    0.936
     8   8 O    2.139 --     9 C    1.067     7 C    0.936
     9   6 C    3.927 --     8 O    1.067    31 H    0.943    32 H    0.942
                            10 N    0.900
    10   7 N    3.749 --    15 C    1.334    11 C    1.331     9 C    0.900
    11   6 C    3.950 --    12 C    1.461    10 N    1.331    33 H    0.949
    12   6 C    3.979 --    11 C    1.461    13 C    1.422    34 H    0.958
    13   6 C    3.968 --    14 C    1.423    12 C    1.422    35 H    0.960
    14   6 C    3.980 --    15 C    1.459    13 C    1.423    36 H    0.958
    15   6 C    3.956 --    14 C    1.459    10 N    1.334    37 H    0.953
    16   1 H    0.999 --     1 C    0.986
    17   1 H    0.998 --     1 C    0.986
    18   1 H    0.998 --     1 C    0.987
    19   1 H    0.999 --     2 C    0.975
    20   1 H    0.998 --     2 C    0.977
    21   1 H    0.999 --     3 C    0.976
    22   1 H    0.998 --     3 C    0.976
    23   1 H    1.000 --     4 C    0.973
    24   1 H    0.998 --     4 C    0.974
    25   1 H    1.000 --     5 C    0.968
    26   1 H    0.996 --     5 C    0.971
    27   1 H    0.996 --     6 C    0.972
    28   1 H    0.995 --     6 C    0.969
    29   1 H    0.993 --     7 C    0.968
    30   1 H    0.999 --     7 C    0.967
    31   1 H    0.993 --     9 C    0.943
    32   1 H    0.989 --     9 C    0.942
    33   1 H    0.984 --    11 C    0.949
    34   1 H    0.987 --    12 C    0.958
    35   1 H    0.987 --    13 C    0.960
    36   1 H    0.987 --    14 C    0.958
    37   1 H    0.988 --    15 C    0.953
 ---------------------------------------------------------------------------

molecular dipole:
                 x           y           z       tot (Debye)
 q only:        2.360      10.185       1.541
   full:        2.410      10.207       1.394      26.890

           -------------------------------------------------
          | TOTAL ENERGY              -45.632634874722 Eh   |
          | GRADIENT NORM               0.000354533346 Eh/α |
          | HOMO-LUMO GAP               1.070225017415 eV   |
           -------------------------------------------------

 * finished run on 2024/12/20 at 07:13:49.423
