   * xtb version 6.7.1 (edcfbbe) compiled by 'conda@3ef47c1a292c' on 2024-11-25

   ID    Z sym.   atoms
    1    6 C      1-12, 14-26
    2    7 N      13
    3    1 H      27-72

          program call               : xtb C1171.xyz --opt --namespace C1171 --charge +1
          :  Hamiltonian                  GFN2-xTB          :
 * total energy  :   -79.5346980 Eh     change       -0.7086953E-09 Eh
 * total energy  :   -79.5432413 Eh     change       -0.8543319E-02 Eh
 * total energy  :   -79.5454940 Eh     change       -0.2252695E-02 Eh
 * total energy  :   -79.5459224 Eh     change       -0.4284449E-03 Eh
 * total energy  :   -79.5464678 Eh     change       -0.5453991E-03 Eh
 * total energy  :   -79.5468511 Eh     change       -0.3832733E-03 Eh
 * total energy  :   -79.5472967 Eh     change       -0.4456148E-03 Eh
 * total energy  :   -79.5477550 Eh     change       -0.4582405E-03 Eh
 * total energy  :   -79.5481443 Eh     change       -0.3893260E-03 Eh
 * total energy  :   -79.5484610 Eh     change       -0.3166642E-03 Eh
 * total energy  :   -79.5550174 Eh     change       -0.2567468E-04 Eh
 * total energy  :   -79.5550430 Eh     change       -0.2561105E-04 Eh
 * total energy  :   -79.5550669 Eh     change       -0.2391618E-04 Eh
 * total energy  :   -79.5550836 Eh     change       -0.1666503E-04 Eh
 * total energy  :   -79.5550939 Eh     change       -0.1032187E-04 Eh
 * total energy  :   -79.5551009 Eh     change       -0.6937619E-05 Eh
 * total energy  :   -79.5551070 Eh     change       -0.6159643E-05 Eh
 * total energy  :   -79.5551131 Eh     change       -0.6064927E-05 Eh
 * total energy  :   -79.5551162 Eh     change       -0.3098453E-05 Eh
   *** GEOMETRY OPTIMIZATION CONVERGED AFTER 68 ITERATIONS ***

 final structure:
================
72
 xtb: 6.7.1 (edcfbbe)
C            1.69030184801791       -0.03862816302118       -0.17734491116432
C            0.84415176526550       -1.22312423953831        0.27334396307248
C            1.12860841073733       -1.65382689283236        1.71292274495576
C            0.80882592932789       -0.60155665768379        2.77695894904552
C           -0.65023126129216       -0.14145038059111        2.81621874093500
C           -1.67601248730972       -1.26042667719797        3.00838426552331
C           -1.47165553766201       -2.11332005056934        4.26149731721942
C           -1.56150728232878       -1.34873634384212        5.58365819971606
C           -2.91677698662854       -0.69219821237467        5.86133306422419
C           -4.11007300740130       -1.65086865398073        5.84453708816486
C           -3.98183930952826       -2.86172261982495        6.77352207572752
C           -3.68618094525231       -2.61151097453266        8.25505058777656
N           -4.77306601859900       -2.08343090305811        9.14407410100040
C           -6.05638186735470       -2.82836042861520        8.90203411954780
C           -7.17127965325535       -2.49031975746262        9.86011734470462
C           -7.23328875951989       -3.20104563850549       11.05790147639867
C           -8.20663979798196       -2.96186592348607       12.01422621385373
C           -9.15540257849491       -1.98489168272093       11.73611209915822
C           -9.13747562486035       -1.31027859875689       10.53278949960108
C           -8.16110163873115       -1.54581633811875        9.56829795304449
C           -8.25789045482161       -0.78599937839161        8.27663106260474
C           -8.24607667527637       -3.74197294130508       13.30254349819643
C           -8.54118346273636       -5.21819247195682       13.02659773723891
C           -6.94036218053344       -3.58475963354664       14.08571839436459
C           -4.32576688822435       -2.27683160513606       10.53730457428182
C           -4.97931513098175       -0.64043279033779        8.94312470598208
H            1.43738550477710        0.86065724501668        0.37851637773090
H            1.52543565554361        0.16074339054370       -1.23349800814349
H            2.74738525280189       -0.24920660043876       -0.03049823413799
H           -0.21369998927228       -0.97998738253440        0.15834197038693
H            1.05380119910634       -2.07340743969919       -0.38011814854688
H            0.56569896837574       -2.56610848144891        1.92261500757223
H            2.18925409625422       -1.90395162899670        1.79618271929261
H            1.08840686873546       -1.00642676465412        3.75265611437905
H            1.43516699684771        0.27609012200398        2.60898124234759
H           -0.75603805276649        0.59317284694182        3.61844689262565
H           -0.88694603634574        0.37398594713503        1.88400421467791
H           -2.67328201455723       -0.81414208275612        3.02671751269840
H           -1.64214069001927       -1.92394490590016        2.14292740984305
H           -2.20707102628159       -2.92145603969764        4.25123390470365
H           -0.48815301940365       -2.58229798238660        4.21319411368123
H           -1.30901467841367       -2.03613941618387        6.39576897237517
H           -0.80399547437698       -0.56419377278143        5.58916098288154
H           -2.85960782538617       -0.17467117713173        6.82287565376641
H           -3.09758963693919        0.07368157288162        5.10665082907725
H           -5.02365735038637       -1.08827309556481        6.05133817795129
H           -4.22127594908765       -2.04327728458525        4.83305408149310
H           -4.85976625446125       -3.49773888981792        6.65693217834837
H           -3.13342720086763       -3.45085469751760        6.41985992549719
H           -3.38206499272516       -3.57038974685667        8.68132758657709
H           -2.84241875343359       -1.92475058097054        8.33781145539995
H           -5.82435962168581       -3.89286046598889        8.98190082559034
H           -6.36633274540852       -2.61314717525361        7.88088722928890
H           -6.50755433503649       -3.97980455099927       11.24036963704609
H           -9.92886439454098       -1.76878562937706       12.45701856877424
H           -9.90608876826759       -0.58150254736593       10.32475023190040
H           -9.30274303187082       -0.57051556011958        8.06790602741979
H           -7.74089778566390        0.17159519933204        8.33875083980440
H           -7.86268195783993       -1.34038948221831        7.42909132084007
H           -9.05916755385110       -3.34074778332224       13.91492827566644
H           -7.74362154524019       -5.67530569085780       12.44543507484228
H           -8.63323687265470       -5.75971633225611       13.96417394982069
H           -9.47237750313252       -5.32308008711074       12.47499602040639
H           -6.71872370492882       -2.53287388610596       14.25421577233792
H           -7.02927210235995       -4.07374894931759       15.05177642534887
H           -6.10507115249163       -4.03719213083509       13.55575027031847
H           -3.37505921422728       -1.77046807717609       10.69504234605776
H           -5.06397546524679       -1.86856338508552       11.22508771468365
H           -4.19619836101189       -3.33555493465552       10.75203343528295
H           -4.05585097964005       -0.09981288782663        9.14223192828452
H           -5.29189837780190       -0.43896131907692        7.92347542178141
H           -5.74678052939265       -0.28771952110540        9.62945088702034

          :  Hamiltonian                  GFN2-xTB          :
         :: total energy             -79.555116176100 Eh    ::
         :: gradient norm              0.000197693554 Eh/a0 ::
         :: HOMO-LUMO gap              3.424325078426 eV    ::
         :: SCC energy               -80.793208040204 Eh    ::
         :: -> dispersion             -0.067023255355 Eh    ::
         :: repulsion energy           1.238091864104 Eh    ::

    * Orbital Energies and Occupations

         #    Occupation            Energy/Eh            Energy/eV
      -------------------------------------------------------------
         1        2.0000           -0.8494048             -23.1135
       ...           ...                  ...                  ...
        63        2.0000           -0.5201556             -14.1542
        64        2.0000           -0.5163246             -14.0499
        65        2.0000           -0.5162358             -14.0475
        66        2.0000           -0.5155782             -14.0296
        67        2.0000           -0.5151388             -14.0176
        68        2.0000           -0.5089095             -13.8481
        69        2.0000           -0.4988913             -13.5755
        70        2.0000           -0.4980563             -13.5528
        71        2.0000           -0.4943040             -13.4507
        72        2.0000           -0.4904797             -13.3466
        73        2.0000           -0.4759688             -12.9518
        74        2.0000           -0.4720365             -12.8448
        75        2.0000           -0.4694035             -12.7731 (HOMO)
        76                         -0.3435618              -9.3488 (LUMO)
        77                         -0.3313327              -9.0160
        78                         -0.2273742              -6.1872
        79                         -0.2001174              -5.4455
        80                         -0.1463021              -3.9811
        81                         -0.1363130              -3.7093
        82                         -0.1286420              -3.5005
        83                         -0.0684696              -1.8632
        84                         -0.0573609              -1.5609
        85                         -0.0338489              -0.9211
        86                         -0.0300590              -0.8179
       ...                                ...                  ...
       150                          0.5368036              14.6072
      -------------------------------------------------------------
                  HL-Gap            0.1258416 Eh            3.4243 eV

     #   Z          covCN         q      C6AA      α(0)
     1   6 C        3.751    -0.103    22.524     6.768
     2   6 C        3.799    -0.053    21.520     6.605
     3   6 C        3.800    -0.058    21.615     6.619
     4   6 C        3.800    -0.058    21.614     6.619
     5   6 C        3.800    -0.058    21.611     6.619
     6   6 C        3.800    -0.059    21.629     6.622
     7   6 C        3.800    -0.060    21.654     6.625
     8   6 C        3.800    -0.061    21.673     6.628
     9   6 C        3.800    -0.063    21.716     6.635
    10   6 C        3.799    -0.064    21.736     6.638
    11   6 C        3.799    -0.073    21.901     6.663
    12   6 C        3.760    -0.039    21.318     6.582
    13   7 N        3.620     0.127    19.065     6.485
    14   6 C        3.761    -0.038    21.299     6.579
    15   6 C        2.968    -0.023    28.564     8.767
    16   6 C        2.931    -0.050    29.243     8.869
    17   6 C        2.970     0.016    27.652     8.625
    18   6 C        2.924    -0.033    28.817     8.803
    19   6 C        2.926    -0.037    28.925     8.820
    20   6 C        2.965     0.006    27.875     8.660
    21   6 C        3.758    -0.119    22.827     6.812
    22   6 C        3.855    -0.017    20.837     6.492
    23   6 C        3.756    -0.107    22.592     6.777
    24   6 C        3.755    -0.107    22.592     6.777
    25   6 C        3.730    -0.090    22.318     6.744
    26   6 C        3.721    -0.089    22.319     6.747
    27   1 H        0.925     0.034     2.533     2.489
    28   1 H        0.925     0.034     2.523     2.484
    29   1 H        0.925     0.036     2.509     2.477
    30   1 H        0.924     0.030     2.591     2.517
    31   1 H        0.924     0.029     2.596     2.520
    32   1 H        0.924     0.026     2.638     2.540
    33   1 H        0.924     0.032     2.565     2.504
    34   1 H        0.924     0.025     2.664     2.553
    35   1 H        0.924     0.036     2.501     2.473
    36   1 H        0.924     0.024     2.674     2.557
    37   1 H        0.924     0.037     2.485     2.465
    38   1 H        0.924     0.025     2.661     2.551
    39   1 H        0.924     0.039     2.462     2.454
    40   1 H        0.924     0.023     2.684     2.562
    41   1 H        0.924     0.042     2.422     2.434
    42   1 H        0.924     0.019     2.752     2.594
    43   1 H        0.924     0.046     2.374     2.409
    44   1 H        0.924     0.019     2.755     2.596
    45   1 H        0.924     0.051     2.307     2.375
    46   1 H        0.924     0.024     2.668     2.554
    47   1 H        0.924     0.061     2.190     2.314
    48   1 H        0.924     0.050     2.317     2.381
    49   1 H        0.924     0.078     2.000     2.212
    50   1 H        0.924     0.076     2.025     2.226
    51   1 H        0.924     0.087     1.907     2.159
    52   1 H        0.924     0.077     2.007     2.216
    53   1 H        0.925     0.087     1.911     2.162
    54   1 H        0.926     0.037     2.492     2.468
    55   1 H        0.926     0.053     2.278     2.360
    56   1 H        0.926     0.053     2.285     2.364
    57   1 H        0.925     0.065     2.136     2.285
    58   1 H        0.925     0.051     2.313     2.379
    59   1 H        0.925     0.040     2.447     2.446
    60   1 H        0.924     0.045     2.380     2.413
    61   1 H        0.925     0.037     2.494     2.470
    62   1 H        0.925     0.051     2.304     2.374
    63   1 H        0.925     0.041     2.434     2.440
    64   1 H        0.925     0.034     2.536     2.490
    65   1 H        0.925     0.052     2.292     2.368
    66   1 H        0.925     0.033     2.551     2.498
    67   1 H        0.925     0.090     1.883     2.146
    68   1 H        0.925     0.102     1.764     2.077
    69   1 H        0.925     0.090     1.876     2.142
    70   1 H        0.925     0.087     1.912     2.162
    71   1 H        0.925     0.103     1.756     2.072
    72   1 H        0.925     0.096     1.820     2.110

Wiberg/Mayer (AO) data.
largest (>0.10) Wiberg bond orders for each atom

     #   Z sym  total        # sym  WBO       # sym  WBO       # sym  WBO
 ---------------------------------------------------------------------------
     1   6 C    3.997 --     2 C    1.020    29 H    0.987    28 H    0.987
                            27 H    0.986
     2   6 C    3.998 --     1 C    1.020     3 C    1.008    31 H    0.978
                            30 H    0.976
     3   6 C    3.997 --     2 C    1.008     4 C    1.008    33 H    0.977
                            32 H    0.975
     4   6 C    3.997 --     3 C    1.008     5 C    1.008    34 H    0.975
                            35 H    0.975
     5   6 C    3.997 --     4 C    1.008     6 C    1.008    36 H    0.976
                            37 H    0.975
     6   6 C    3.997 --     7 C    1.008     5 C    1.008    38 H    0.975
                            39 H    0.974
     7   6 C    3.996 --     6 C    1.008     8 C    1.007    40 H    0.974
                            41 H    0.973
     8   6 C    3.996 --     7 C    1.007     9 C    1.007    42 H    0.975
                            43 H    0.973
     9   6 C    3.995 --    10 C    1.007     8 C    1.007    44 H    0.975
                            45 H    0.973
    10   6 C    3.993 --     9 C    1.007    11 C    1.006    47 H    0.970
                            46 H    0.968
    11   6 C    3.983 --    12 C    1.006    10 C    1.006    48 H    0.970
                            49 H    0.959
    12   6 C    3.930 --    11 C    1.006    50 H    0.969    51 H    0.963
                            13 N    0.923
    13   7 N    3.807 --    26 C    0.962    25 C    0.962    12 C    0.923
                            14 C    0.910
    14   6 C    3.927 --    15 C    1.004    52 H    0.966    53 H    0.955
                            13 N    0.910
    15   6 C    3.973 --    16 C    1.401    20 C    1.385    14 C    1.004
                            18 C    0.102
    16   6 C    3.990 --    17 C    1.422    15 C    1.401    54 H    0.963
                            19 C    0.106
    17   6 C    3.986 --    16 C    1.422    18 C    1.393    22 C    1.001
                            20 C    0.101
    18   6 C    3.990 --    19 C    1.461    17 C    1.393    55 H    0.966
                            15 C    0.102
    19   6 C    3.990 --    18 C    1.461    20 C    1.401    56 H    0.967
                            16 C    0.106
    20   6 C    3.987 --    19 C    1.401    15 C    1.385    21 C    1.027
                            17 C    0.101
    21   6 C    3.993 --    20 C    1.027    57 H    0.977    59 H    0.974
                            58 H    0.965
    22   6 C    3.994 --    17 C    1.001    24 C    0.996    23 C    0.994
                            60 H    0.967
    23   6 C    3.994 --    22 C    0.994    63 H    0.987    61 H    0.985
                            62 H    0.984
    24   6 C    3.995 --    22 C    0.996    64 H    0.987    66 H    0.985
                            65 H    0.984
    25   6 C    3.933 --    67 H    0.976    69 H    0.975    68 H    0.969
                            13 N    0.962
    26   6 C    3.930 --    70 H    0.975    72 H    0.971    71 H    0.964
                            13 N    0.962
    27   1 H    0.999 --     1 C    0.986
    28   1 H    0.999 --     1 C    0.987
    29   1 H    0.999 --     1 C    0.987
    30   1 H    0.999 --     2 C    0.976
    31   1 H    0.999 --     2 C    0.978
    32   1 H    0.999 --     3 C    0.975
    33   1 H    0.999 --     3 C    0.977
    34   1 H    0.999 --     4 C    0.975
    35   1 H    0.999 --     4 C    0.975
    36   1 H    0.999 --     5 C    0.976
    37   1 H    0.999 --     5 C    0.975
    38   1 H    0.999 --     6 C    0.975
    39   1 H    0.998 --     6 C    0.974
    40   1 H    0.999 --     7 C    0.974
    41   1 H    0.998 --     7 C    0.973
    42   1 H    1.000 --     8 C    0.975
    43   1 H    0.998 --     8 C    0.973
    44   1 H    1.000 --     9 C    0.975
    45   1 H    0.997 --     9 C    0.973
    46   1 H    0.999 --    10 C    0.968
    47   1 H    0.996 --    10 C    0.970
    48   1 H    0.997 --    11 C    0.970
    49   1 H    0.994 --    11 C    0.959
    50   1 H    0.994 --    12 C    0.969
    51   1 H    0.992 --    12 C    0.963
    52   1 H    0.994 --    14 C    0.966
    53   1 H    0.992 --    14 C    0.955
    54   1 H    0.998 --    16 C    0.963
    55   1 H    0.996 --    18 C    0.966
    56   1 H    0.997 --    19 C    0.967
    57   1 H    0.995 --    21 C    0.977
    58   1 H    0.997 --    21 C    0.965
    59   1 H    0.998 --    21 C    0.974
    60   1 H    0.998 --    22 C    0.967
    61   1 H    0.999 --    23 C    0.985
    62   1 H    0.996 --    23 C    0.984
    63   1 H    0.998 --    23 C    0.987
    64   1 H    0.999 --    24 C    0.987
    65   1 H    0.996 --    24 C    0.984
    66   1 H    0.999 --    24 C    0.985
    67   1 H    0.992 --    25 C    0.976
    68   1 H    0.989 --    25 C    0.969
    69   1 H    0.992 --    25 C    0.975
    70   1 H    0.992 --    26 C    0.975
    71   1 H    0.989 --    26 C    0.964
    72   1 H    0.991 --    26 C    0.971
 ---------------------------------------------------------------------------

molecular dipole:
                 x           y           z       tot (Debye)
 q only:       -9.469      -3.858      17.172
   full:       -9.443      -3.899      17.190      50.827

           -------------------------------------------------
          | TOTAL ENERGY              -79.555116176100 Eh   |
          | GRADIENT NORM               0.000197693554 Eh/α |
          | HOMO-LUMO GAP               3.424325078426 eV   |
           -------------------------------------------------

 * finished run on 2024/12/20 at 07:13:25.829
