   * xtb version 6.7.1 (edcfbbe) compiled by 'conda@3ef47c1a292c' on 2024-11-25

   ID    Z sym.   atoms
    1    7 N      1
    2    6 C      2-5, 9-13
    3    9 F      6-8
    4    1 H      14-32

          program call               : xtb C1178.xyz --opt --namespace C1178 --charge +1
          :  Hamiltonian                  GFN2-xTB          :
 * total energy  :   -45.6826869 Eh     change       -0.4296652E-10 Eh
 * total energy  :   -45.6901664 Eh     change       -0.7479500E-02 Eh
 * total energy  :   -45.6919425 Eh     change       -0.1776121E-02 Eh
 * total energy  :   -45.6920588 Eh     change       -0.1163120E-03 Eh
 * total energy  :   -45.6921487 Eh     change       -0.8986563E-04 Eh
 * total energy  :   -45.6922005 Eh     change       -0.5184304E-04 Eh
 * total energy  :   -45.6922569 Eh     change       -0.5643087E-04 Eh
 * total energy  :   -45.6922916 Eh     change       -0.3469178E-04 Eh
 * total energy  :   -45.6923253 Eh     change       -0.3365423E-04 Eh
 * total energy  :   -45.6923607 Eh     change       -0.3546808E-04 Eh
 * total energy  :   -45.6923950 Eh     change       -0.3421420E-04 Eh
 * total energy  :   -45.6924221 Eh     change       -0.2718149E-04 Eh
 * total energy  :   -45.6924300 Eh     change       -0.7859119E-05 Eh
 * total energy  :   -45.6924396 Eh     change       -0.9560304E-05 Eh
 * total energy  :   -45.6924456 Eh     change       -0.5990365E-05 Eh
 * total energy  :   -45.6924505 Eh     change       -0.4929686E-05 Eh
   *** GEOMETRY OPTIMIZATION CONVERGED AFTER 16 ITERATIONS ***

 final structure:
================
32
 xtb: 6.7.1 (edcfbbe)
N            1.10382483190492        0.12975762341901        0.03497833965099
C            0.38756762692514       -0.78186440816562        0.99250069349370
C            0.77378111940931       -0.81585007830863        2.47475068038756
C            0.28806009369443        0.31694964645995        3.38613931232693
C           -1.22791852305366        0.46070420840270        3.39849908942919
F           -1.84883863752281       -0.71841819113859        3.48687192052110
F           -1.64444795973296        1.22483217524375        4.40029573489326
F           -1.68025694052249        1.03432475215787        2.25868791669506
C            0.67694817802530        1.54909045186537        0.23036538879515
C            1.12020917129245        2.51788115227498       -0.85809922207527
C            0.68128945574501       -0.31361769613571       -1.31350106755456
C            2.59468333917514       -0.04008404866575        0.12073551421004
C            3.34551737884091        0.84060588023963        1.11120766752679
H           -0.67914899211700       -0.57313570693050        0.89869344006878
H            0.55275909742311       -1.79524421435922        0.61877389487351
H            0.32541758138880       -1.73803200151943        2.85536707140166
H            1.84991563154541       -0.92721197847980        2.59491829148167
H            0.58353741487165        0.08169818858627        4.41134430547766
H            0.70405759679830        1.29363114508613        3.13832666519761
H           -0.41227042309749        1.56399150681410        0.28655709722314
H            1.07128143229096        1.88443967188032        1.18636212819062
H            0.55453850778615        2.39326372423781       -1.77633594044458
H            0.92824660459871        3.52685274299397       -0.50139488041628
H            2.18045485384046        2.44484797862611       -1.08089413087855
H            1.14358717509687        0.30325863049556       -2.07905630016978
H            0.97863722338415       -1.34721117949784       -1.48139774172250
H           -0.40042121056222       -0.23888642071741       -1.40921008615131
H            2.78138228237614       -1.09107260502082        0.34895647320497
H            3.00405209535589        0.15728415265348       -0.87107825097996
H            2.97772369397562        0.76577612710441        2.12837635115860
H            4.38154848472832        0.50904281683825        1.11510322222596
H            3.34481181613335        1.88483595355901        0.81492642195876

          :  Hamiltonian                  GFN2-xTB          :
         :: total energy             -45.692450481198 Eh    ::
         :: gradient norm              0.000566777685 Eh/a0 ::
         :: HOMO-LUMO gap              9.479431633631 eV    ::
         :: SCC energy               -46.149519299507 Eh    ::
         :: -> dispersion             -0.024800624131 Eh    ::
         :: repulsion energy           0.457068818308 Eh    ::

    * Orbital Energies and Occupations

         #    Occupation            Energy/Eh            Energy/eV
      -------------------------------------------------------------
         1        2.0000           -0.9964955             -27.1160
       ...           ...                  ...                  ...
        28        2.0000           -0.6504449             -17.6995
        29        2.0000           -0.6482551             -17.6399
        30        2.0000           -0.6446272             -17.5412
        31        2.0000           -0.6428847             -17.4938
        32        2.0000           -0.6396291             -17.4052
        33        2.0000           -0.6373643             -17.3436
        34        2.0000           -0.6283388             -17.0980
        35        2.0000           -0.6215311             -16.9127
        36        2.0000           -0.6139249             -16.7057
        37        2.0000           -0.6109927             -16.6260
        38        2.0000           -0.6062195             -16.4961
        39        2.0000           -0.6032117             -16.4142
        40        2.0000           -0.5985159             -16.2864 (HOMO)
        41                         -0.2501531              -6.8070 (LUMO)
        42                         -0.1852702              -5.0415
        43                         -0.1723286              -4.6893
        44                         -0.1627900              -4.4297
        45                         -0.1188300              -3.2335
        46                         -0.0983065              -2.6751
        47                         -0.0895584              -2.4370
        48                         -0.0774656              -2.1079
        49                         -0.0610686              -1.6618
        50                         -0.0577497              -1.5715
        51                         -0.0475338              -1.2935
       ...                                ...                  ...
        71                          0.1595454               4.3415
      -------------------------------------------------------------
                  HL-Gap            0.3483627 Eh            9.4794 eV

     #   Z          covCN         q      C6AA      α(0)
     1   7 N        3.617     0.115    19.268     6.519
     2   6 C        3.762    -0.043    21.391     6.593
     3   6 C        3.799    -0.077    21.965     6.673
     4   6 C        3.802    -0.097    22.358     6.732
     5   6 C        3.329     0.486    17.386     6.619
     6   9 F        0.791    -0.196    11.195     3.952
     7   9 F        0.791    -0.184    11.071     3.930
     8   9 F        0.790    -0.221    11.455     3.998
     9   6 C        3.752    -0.037    21.296     6.581
    10   6 C        3.751    -0.130    23.070     6.850
    11   6 C        3.732    -0.098    22.463     6.765
    12   6 C        3.752    -0.034    21.238     6.572
    13   6 C        3.750    -0.131    23.071     6.850
    14   1 H        0.924     0.098     1.802     2.099
    15   1 H        0.924     0.090     1.881     2.145
    16   1 H        0.924     0.096     1.822     2.111
    17   1 H        0.925     0.081     1.964     2.192
    18   1 H        0.924     0.102     1.764     2.077
    19   1 H        0.925     0.080     1.980     2.200
    20   1 H        0.924     0.096     1.819     2.109
    21   1 H        0.925     0.089     1.888     2.149
    22   1 H        0.925     0.069     2.095     2.263
    23   1 H        0.925     0.085     1.927     2.171
    24   1 H        0.925     0.065     2.139     2.287
    25   1 H        0.925     0.106     1.728     2.055
    26   1 H        0.925     0.093     1.846     2.125
    27   1 H        0.925     0.101     1.780     2.086
    28   1 H        0.924     0.083     1.946     2.182
    29   1 H        0.924     0.090     1.877     2.142
    30   1 H        0.925     0.064     2.154     2.295
    31   1 H        0.925     0.085     1.932     2.174
    32   1 H        0.925     0.073     2.057     2.243

Wiberg/Mayer (AO) data.
largest (>0.10) Wiberg bond orders for each atom

     #   Z sym  total        # sym  WBO       # sym  WBO       # sym  WBO
 ---------------------------------------------------------------------------
     1   7 N    3.802 --    11 C    0.959     2 C    0.931     9 C    0.927
                            12 C    0.924
     2   6 C    3.936 --     3 C    1.011    15 H    0.965    14 H    0.963
                             1 N    0.931
     3   6 C    3.984 --     2 C    1.011     4 C    1.007    17 H    0.963
                            16 H    0.961
     4   6 C    3.980 --     3 C    1.007    18 H    0.962    19 H    0.961
                             5 C    0.957
     5   6 C    3.835 --     7 F    0.972     6 F    0.958     4 C    0.957
                             8 F    0.926
     6   9 F    1.084 --     5 C    0.958
     7   9 F    1.099 --     5 C    0.972
     8   9 F    1.056 --     5 C    0.926
     9   6 C    3.929 --    10 C    1.021    20 H    0.964    21 H    0.960
                             1 N    0.927
    10   6 C    3.981 --     9 C    1.021    22 H    0.981    24 H    0.979
                            23 H    0.973
    11   6 C    3.926 --    26 H    0.975    27 H    0.974    25 H    0.969
                             1 N    0.959
    12   6 C    3.933 --    13 C    1.023    28 H    0.968    29 H    0.967
                             1 N    0.924
    13   6 C    3.981 --    12 C    1.023    32 H    0.979    30 H    0.976
                            31 H    0.972
    14   1 H    0.990 --     2 C    0.963
    15   1 H    0.992 --     2 C    0.965
    16   1 H    0.990 --     3 C    0.961
    17   1 H    0.993 --     3 C    0.963
    18   1 H    0.989 --     4 C    0.962
    19   1 H    0.994 --     4 C    0.961
    20   1 H    0.991 --     9 C    0.964
    21   1 H    0.992 --     9 C    0.960
    22   1 H    0.995 --    10 C    0.981
    23   1 H    0.992 --    10 C    0.973
    24   1 H    0.996 --    10 C    0.979
    25   1 H    0.988 --    11 C    0.969
    26   1 H    0.991 --    11 C    0.975
    27   1 H    0.990 --    11 C    0.974
    28   1 H    0.993 --    12 C    0.968
    29   1 H    0.992 --    12 C    0.967
    30   1 H    0.996 --    13 C    0.976
    31   1 H    0.993 --    13 C    0.972
    32   1 H    0.995 --    13 C    0.979
 ---------------------------------------------------------------------------

molecular dipole:
                 x           y           z       tot (Debye)
 q only:        3.355       0.297       0.283
   full:        3.353       0.235       0.304       8.579

           -------------------------------------------------
          | TOTAL ENERGY              -45.692450481198 Eh   |
          | GRADIENT NORM               0.000566777685 Eh/α |
          | HOMO-LUMO GAP               9.479431633631 eV   |
           -------------------------------------------------

 * finished run on 2024/12/20 at 07:13:53.642
