   * xtb version 6.7.1 (edcfbbe) compiled by 'conda@3ef47c1a292c' on 2024-11-25

   ID    Z sym.   atoms
    1    6 C      1-4, 6, 7, 9-13
    2    7 N      5, 8
    3    1 H      14-34

          program call               : xtb C1174.xyz --opt --namespace C1174 --charge +1
          :  Hamiltonian                  GFN2-xTB          :
 * total energy  :   -39.7508916 Eh     change       -0.3376499E-10 Eh
 * total energy  :   -39.7544258 Eh     change       -0.3534207E-02 Eh
 * total energy  :   -39.7552940 Eh     change       -0.8682498E-03 Eh
 * total energy  :   -39.7555332 Eh     change       -0.2391618E-03 Eh
 * total energy  :   -39.7557146 Eh     change       -0.1813780E-03 Eh
 * total energy  :   -39.7557759 Eh     change       -0.6129510E-04 Eh
 * total energy  :   -39.7558471 Eh     change       -0.7122768E-04 Eh
 * total energy  :   -39.7559482 Eh     change       -0.1010951E-03 Eh
 * total energy  :   -39.7560562 Eh     change       -0.1080205E-03 Eh
 * total energy  :   -39.7561408 Eh     change       -0.8462089E-04 Eh
 * total energy  :   -39.7605695 Eh     change       -0.5945354E-05 Eh
 * total energy  :   -39.7605797 Eh     change       -0.1015083E-04 Eh
 * total energy  :   -39.7605877 Eh     change       -0.7975480E-05 Eh
 * total energy  :   -39.7605929 Eh     change       -0.5286180E-05 Eh
 * total energy  :   -39.7605991 Eh     change       -0.6142757E-05 Eh
 * total energy  :   -39.7606081 Eh     change       -0.9047596E-05 Eh
 * total energy  :   -39.7606178 Eh     change       -0.9649150E-05 Eh
 * total energy  :   -39.7606252 Eh     change       -0.7440188E-05 Eh
 * total energy  :   -39.7606280 Eh     change       -0.2813328E-05 Eh
   *** GEOMETRY OPTIMIZATION CONVERGED AFTER 94 ITERATIONS ***

 final structure:
================
34
 xtb: 6.7.1 (edcfbbe)
C            1.26512252822610       -1.20002016130839        0.47227480626706
C            0.35084204439011       -0.31451964143367       -0.36648537644015
C            0.69919956804687       -0.32302641844366       -1.85532811181572
C            0.44059889712549       -1.66894038380535       -2.54386975066393
N           -0.96714916087532       -1.99265168619807       -2.53872960797687
C           -1.90533765638711       -1.44564329981639       -3.35988127933960
C           -3.11401145614452       -1.95061294446502       -2.98848558562850
N           -2.89777711242205       -2.79087342301832       -1.93924690822078
C           -1.59187590672345       -2.80104088215224       -1.68706140543941
C           -3.90571836316739       -3.59753506330613       -1.29130376266503
C           -4.26022253882779       -4.82241454413998       -2.14370598646181
C           -3.10283037274268       -5.80618860156328       -2.31942432544579
C           -2.72120299349640       -6.52353105750045       -1.02971907350485
H            1.16797404361801       -2.25236976933584        0.21447941848322
H            1.02227229896233       -1.09126459138847        1.52547254874554
H            2.30309718358077       -0.90948154040224        0.33471908754218
H           -0.69201689479391       -0.61133514498855       -0.22205098336228
H            0.44261661608291        0.71197959765706       -0.01021829574604
H            0.12577405873211        0.45272746013163       -2.36630785453801
H            1.75689432074447       -0.08911099550752       -1.97652018866513
H            0.77754538018806       -1.62073900430563       -3.58150498177899
H            0.98338632009038       -2.46573752790053       -2.03455391226134
H           -1.65736524394798       -0.75461389577649       -4.13925347814962
H           -4.09000446398977       -1.76695140771914       -3.38866794386544
H           -1.11555604627759       -3.37340860469809       -0.91497759952861
H           -3.52879131492369       -3.90996998314788       -0.31703248473198
H           -4.79575206833051       -2.98222017695427       -1.14385463416438
H           -5.09256136214063       -5.33240798995373       -1.65877021138931
H           -4.60193164065115       -4.48503595799300       -3.12404584668499
H           -3.40937616223352       -6.55303064784391       -3.05245430237597
H           -2.23063482417270       -5.29127509922550       -2.73269786785583
H           -3.58165933043012       -7.04412199484683       -0.61814010587732
H           -1.94701400400784       -7.25901196769380       -1.22938932337271
H           -2.34355434311352       -5.83791265096101       -0.27425467307226

          :  Hamiltonian                  GFN2-xTB          :
         :: total energy             -39.760628042583 Eh    ::
         :: gradient norm              0.000215256519 Eh/a0 ::
         :: HOMO-LUMO gap              3.992819678261 eV    ::
         :: SCC energy               -40.366085271384 Eh    ::
         :: -> dispersion             -0.025965551087 Eh    ::
         :: repulsion energy           0.605457228801 Eh    ::

    * Orbital Energies and Occupations

         #    Occupation            Energy/Eh            Energy/eV
      -------------------------------------------------------------
         1        2.0000           -0.8914935             -24.2588
       ...           ...                  ...                  ...
        25        2.0000           -0.6136717             -16.6989
        26        2.0000           -0.6103045             -16.6072
        27        2.0000           -0.6016881             -16.3728
        28        2.0000           -0.5967394             -16.2381
        29        2.0000           -0.5905097             -16.0686
        30        2.0000           -0.5865614             -15.9611
        31        2.0000           -0.5845004             -15.9051
        32        2.0000           -0.5633521             -15.3296
        33        2.0000           -0.5624393             -15.3048
        34        2.0000           -0.5553430             -15.1117
        35        2.0000           -0.5550340             -15.1032
        36        2.0000           -0.5499586             -14.9651
        37        2.0000           -0.5489330             -14.9372 (HOMO)
        38                         -0.4021996             -10.9444 (LUMO)
        39                         -0.3670539              -9.9880
        40                         -0.1795404              -4.8855
        41                         -0.1261349              -3.4323
        42                         -0.0619545              -1.6859
        43                         -0.0596294              -1.6226
        44                         -0.0543460              -1.4788
        45                         -0.0312800              -0.8512
        46                         -0.0277684              -0.7556
        47                         -0.0228395              -0.6215
        48                         -0.0213539              -0.5811
       ...                                ...                  ...
        73                          0.4675065              12.7215
      -------------------------------------------------------------
                  HL-Gap            0.1467334 Eh            3.9928 eV

     #   Z          covCN         q      C6AA      α(0)
     1   6 C        3.752    -0.113    22.729     6.799
     2   6 C        3.800    -0.060    21.660     6.626
     3   6 C        3.802    -0.072    21.869     6.658
     4   6 C        3.742    -0.027    21.129     6.558
     5   7 N        2.868     0.068    20.058     6.652
     6   6 C        3.075    -0.007    28.106     8.692
     7   6 C        3.075    -0.007    28.106     8.692
     8   7 N        2.869     0.068    20.059     6.652
     9   6 C        3.102     0.050    26.756     8.476
    10   6 C        3.742    -0.027    21.128     6.558
    11   6 C        3.802    -0.072    21.870     6.658
    12   6 C        3.800    -0.060    21.659     6.626
    13   6 C        3.752    -0.113    22.730     6.799
    14   1 H        0.925     0.029     2.606     2.525
    15   1 H        0.925     0.054     2.273     2.358
    16   1 H        0.925     0.053     2.277     2.360
    17   1 H        0.924     0.024     2.676     2.558
    18   1 H        0.924     0.060     2.201     2.320
    19   1 H        0.924     0.054     2.267     2.355
    20   1 H        0.925     0.077     2.012     2.218
    21   1 H        0.924     0.087     1.908     2.160
    22   1 H        0.924     0.087     1.905     2.159
    23   1 H        0.926     0.105     1.737     2.061
    24   1 H        0.926     0.105     1.737     2.061
    25   1 H        0.926     0.111     1.685     2.030
    26   1 H        0.924     0.087     1.906     2.159
    27   1 H        0.924     0.087     1.908     2.160
    28   1 H        0.925     0.077     2.011     2.218
    29   1 H        0.924     0.054     2.268     2.355
    30   1 H        0.924     0.060     2.203     2.321
    31   1 H        0.924     0.024     2.679     2.559
    32   1 H        0.925     0.053     2.277     2.360
    33   1 H        0.925     0.054     2.274     2.358
    34   1 H        0.925     0.029     2.600     2.521

Wiberg/Mayer (AO) data.
largest (>0.10) Wiberg bond orders for each atom

     #   Z sym  total        # sym  WBO       # sym  WBO       # sym  WBO
 ---------------------------------------------------------------------------
     1   6 C    3.993 --     2 C    1.021    16 H    0.986    14 H    0.985
                            15 H    0.985
     2   6 C    3.995 --     1 C    1.021     3 C    1.009    17 H    0.976
                            18 H    0.973
     3   6 C    3.984 --     2 C    1.009     4 C    0.982    19 H    0.975
                            20 H    0.966
     4   6 C    3.937 --     3 C    0.982     5 N    0.969    22 H    0.963
                            21 H    0.962
     5   7 N    3.717 --     9 C    1.360     6 C    1.228     4 C    0.969
     6   6 C    3.951 --     7 C    1.592     5 N    1.228    23 H    0.962
     7   6 C    3.951 --     6 C    1.592     8 N    1.228    24 H    0.962
     8   7 N    3.717 --     9 C    1.360     7 C    1.228    10 C    0.969
     9   6 C    3.948 --     5 N    1.360     8 N    1.360    25 H    0.953
    10   6 C    3.937 --    11 C    0.982     8 N    0.969    26 H    0.963
                            27 H    0.962
    11   6 C    3.984 --    12 C    1.009    10 C    0.982    29 H    0.975
                            28 H    0.966
    12   6 C    3.995 --    13 C    1.021    11 C    1.009    31 H    0.976
                            30 H    0.973
    13   6 C    3.993 --    12 C    1.021    32 H    0.986    33 H    0.985
                            34 H    0.985
    14   1 H    0.999 --     1 C    0.985
    15   1 H    0.997 --     1 C    0.985
    16   1 H    0.997 --     1 C    0.986
    17   1 H    0.999 --     2 C    0.976
    18   1 H    0.996 --     2 C    0.973
    19   1 H    0.997 --     3 C    0.975
    20   1 H    0.993 --     3 C    0.966
    21   1 H    0.992 --     4 C    0.962
    22   1 H    0.992 --     4 C    0.963
    23   1 H    0.989 --     6 C    0.962
    24   1 H    0.989 --     7 C    0.962
    25   1 H    0.988 --     9 C    0.953
    26   1 H    0.992 --    10 C    0.963
    27   1 H    0.992 --    10 C    0.962
    28   1 H    0.993 --    11 C    0.966
    29   1 H    0.997 --    11 C    0.975
    30   1 H    0.996 --    12 C    0.973
    31   1 H    0.999 --    12 C    0.976
    32   1 H    0.997 --    13 C    0.986
    33   1 H    0.997 --    13 C    0.985
    34   1 H    0.999 --    13 C    0.985
 ---------------------------------------------------------------------------

molecular dipole:
                 x           y           z       tot (Debye)
 q only:       -3.456      -4.757      -3.918
   full:       -3.465      -4.746      -3.932      17.970

           -------------------------------------------------
          | TOTAL ENERGY              -39.760628042583 Eh   |
          | GRADIENT NORM               0.000215256519 Eh/α |
          | HOMO-LUMO GAP               3.992819678261 eV   |
           -------------------------------------------------

 * finished run on 2024/12/20 at 07:13:51.650
