   * xtb version 6.7.1 (edcfbbe) compiled by 'conda@3ef47c1a292c' on 2024-11-25

   ID    Z sym.   atoms
    1    6 C      1-7, 9-29
    2    7 N      8
    3    1 H      30-89

          program call               : xtb C1172.xyz --opt --namespace C1172 --charge +1
          :  Hamiltonian                  GFN2-xTB          :
 * total energy  :   -93.0958568 Eh     change       -0.2869456E-09 Eh
 * total energy  :   -93.1058633 Eh     change       -0.1000656E-01 Eh
 * total energy  :   -93.1087637 Eh     change       -0.2900343E-02 Eh
 * total energy  :   -93.1092645 Eh     change       -0.5008345E-03 Eh
 * total energy  :   -93.1097178 Eh     change       -0.4533066E-03 Eh
 * total energy  :   -93.1100182 Eh     change       -0.3003507E-03 Eh
 * total energy  :   -93.1103482 Eh     change       -0.3299785E-03 Eh
 * total energy  :   -93.1107498 Eh     change       -0.4016034E-03 Eh
 * total energy  :   -93.1112478 Eh     change       -0.4980075E-03 Eh
 * total energy  :   -93.1118645 Eh     change       -0.6167312E-03 Eh
 * total energy  :   -93.1363762 Eh     change       -0.1022216E-04 Eh
 * total energy  :   -93.1363899 Eh     change       -0.1367349E-04 Eh
 * total energy  :   -93.1364074 Eh     change       -0.1753457E-04 Eh
 * total energy  :   -93.1364284 Eh     change       -0.2101913E-04 Eh
 * total energy  :   -93.1364521 Eh     change       -0.2368536E-04 Eh
 * total energy  :   -93.1364782 Eh     change       -0.2605576E-04 Eh
 * total energy  :   -93.1365056 Eh     change       -0.2747658E-04 Eh
 * total energy  :   -93.1365340 Eh     change       -0.2840266E-04 Eh
 * total energy  :   -93.1365576 Eh     change       -0.2351852E-04 Eh
 * total energy  :   -93.1365784 Eh     change       -0.2080994E-04 Eh

 final structure:
================
89
 xtb: 6.7.1 (edcfbbe)
C           -1.23867785907313        6.44917398633264        2.35562251793143
C           -2.16190559255235        5.24817737684169        2.52827011358586
C           -2.26637410545994        4.38142377788030        1.27225185646953
C           -0.96060694276303        3.65857228091864        0.94161049586300
C           -1.10667717905188        2.60151564912406       -0.15489022513512
C           -1.55019537414649        3.13094384096359       -1.52598251863824
C           -0.49682728552583        4.07965957612357       -2.09744430314290
N           -0.68874651626528        4.55295927165223       -3.50051215959301
C           -2.02313513261371        5.22211374976918       -3.67122096579610
C           -2.51830011220739        6.16484606076501       -2.57487765764350
C           -3.78291924605885        6.90295071387974       -3.03715457470595
C           -4.98619682076264        6.01350813281543       -3.36439009841700
C           -5.41973656980078        5.05750756010085       -2.24824375206109
C           -5.74035626063457        5.72509437360420       -0.90973532540683
C           -6.89460698400429        6.71639291458017       -0.99784376216541
C            0.43703230701139        5.46275170568086       -3.88350219004883
C            0.57458634870588        6.82092993672455       -3.20009069763019
C            1.95566856381783        7.41817929460027       -3.50381078480903
C            2.18736425999011        7.70036679951643       -4.98809910082125
C            3.42507715133902        8.56576794419830       -5.23640695264794
C            4.74513889837881        7.94721742691744       -4.77210664172395
C            5.07695040674485        6.62989062488041       -5.46409475490047
C           -0.67889032371899        3.40604836424203       -4.48349545877181
C            0.65040899489116        2.81929006481393       -4.97718353642083
C            1.53971506151809        2.04795971317741       -3.99755069093811
C            0.90106595025710        0.80967074025326       -3.36470334163662
C            0.38227542394294       -0.23127584264869       -4.36007803313585
C            1.43725682481166       -0.79448808498497       -5.31394025132471
C            2.55860996818655       -1.53706134166994       -4.59723096000699
H           -0.20709043848658        6.13809622995550        2.20806317959128
H           -1.27418038456474        7.07577013942921        3.24254437772827
H           -1.54790747598091        7.05271798271905        1.50326433682780
H           -1.80921477261474        4.63679490666626        3.36039748630150
H           -3.16142797413741        5.60673926813423        2.78291441585063
H           -3.05111374603338        3.63655098176150        1.42398863342171
H           -2.57162990426156        5.02104570087397        0.44044302934790
H           -0.18941625756613        4.38104808798173        0.66986038889066
H           -0.61557297519850        3.14757465204600        1.84234957590262
H           -0.15391774029600        2.07836002638722       -0.26707930443963
H           -1.84538619807137        1.86659603348425        0.16999954286332
H           -1.69758705974155        2.26450667289082       -2.17165604428300
H           -2.51506558439380        3.62106850230395       -1.41651856521064
H           -0.45443049807677        4.96525940601760       -1.46533466895999
H            0.47134854545405        3.58127237002257       -2.05078030263850
H           -1.98077961248937        5.77762653139325       -4.61149650194024
H           -2.76355937621621        4.42790892253848       -3.78009492210072
H           -2.75689466302950        5.61497287633354       -1.66638090714804
H           -1.77384989866130        6.91715853320302       -2.32364701815729
H           -4.06298751989940        7.59753764989708       -2.24472917505572
H           -3.54836352524190        7.50167234324383       -3.92139041176930
H           -5.82298229473241        6.67036200829695       -3.60487740154557
H           -4.78213768889220        5.42759992022988       -4.26417073158766
H           -6.31405792898800        4.53216115278032       -2.59273271371028
H           -4.65019691991861        4.29603561480212       -2.08728776267420
H           -6.00537038348993        4.93843614756179       -0.19800002383413
H           -4.85614697479135        6.23259586472050       -0.51572944880161
H           -7.77191210976831        6.24160454828217       -1.43025500336600
H           -7.15526650347361        7.07391150059102       -0.00544075842010
H           -6.63270093491616        7.57822925939336       -1.60707609572178
H            1.36034071855974        4.91171830231716       -3.69959117195758
H            0.34380352603440        5.63617687400839       -4.95681926931976
H           -0.18430015037248        7.51510444404780       -3.56143712979261
H            0.48666605917372        6.72974766214592       -2.11687791553450
H            2.04177617758920        8.35701280180070       -2.95447016432487
H            2.72847525693287        6.74556723458014       -3.12844682060185
H            2.29368043024486        6.76622906345401       -5.54144569905038
H            1.31893080947646        8.22939454945024       -5.38945153405481
H            3.49133016974508        8.76601690239676       -6.30782138517260
H            3.29187009253792        9.52425904330864       -4.73047091825421
H            5.54097398125891        8.66259218674283       -4.98664199794445
H            4.72804528552046        7.79982519038729       -3.69064466366089
H            5.06257157130383        6.75226683893438       -6.54417297431459
H            6.06856885633580        6.29518963097183       -5.17342101605488
H            4.36912785952408        5.84863971571019       -5.19571560164341
H           -1.27974310984495        2.60517641126732       -4.05681032609543
H           -1.19475586182982        3.76853556435818       -5.37587434142589
H            0.35816968224682        2.12229122964391       -5.76563954494238
H            1.25099120382093        3.58734644768966       -5.46523134294868
H            2.41823248127140        1.72999712567504       -4.56056754802476
H            1.91006494315157        2.70085186285003       -3.20312161502523
H            1.64999394980949        0.34037655406686       -2.72612491625210
H            0.07468955486273        1.10178214964197       -2.71496523309890
H           -0.03558308905459       -1.05911839530639       -3.78320623437184
H           -0.43598914859652        0.19171815805190       -4.94878889190921
H            0.93643658083602       -1.48707594752122       -5.99328792368027
H            1.86114498869865        0.00493337817032       -5.92504287655519
H            2.14937484762735       -2.30748626662452       -3.94764114596895
H            3.21233862910738       -2.01562256575707       -5.32128346940039
H            3.16257464726189       -0.86231659126792       -3.99536977944943

          :  Hamiltonian                  GFN2-xTB          :
         :: total energy             -93.136594339875 Eh    ::
         :: gradient norm              0.002469894187 Eh/a0 ::
         :: HOMO-LUMO gap              7.373062283019 eV    ::
         :: SCC energy               -94.497827962554 Eh    ::
         :: -> dispersion             -0.079004976068 Eh    ::
         :: repulsion energy           1.361233622679 Eh    ::

    * Orbital Energies and Occupations

         #    Occupation            Energy/Eh            Energy/eV
      -------------------------------------------------------------
         1        2.0000           -0.8358162             -22.7437
       ...           ...                  ...                  ...
        76        2.0000           -0.5327603             -14.4971
        77        2.0000           -0.5165604             -14.0563
        78        2.0000           -0.5159739             -14.0404
        79        2.0000           -0.5153898             -14.0245
        80        2.0000           -0.5131502             -13.9635
        81        2.0000           -0.5104697             -13.8906
        82        2.0000           -0.5100178             -13.8783
        83        2.0000           -0.5097949             -13.8722
        84        2.0000           -0.5074883             -13.8095
        85        2.0000           -0.5059967             -13.7689
        86        2.0000           -0.5057806             -13.7630
        87        2.0000           -0.5056165             -13.7585
        88        2.0000           -0.5019252             -13.6581 (HOMO)
        89                         -0.2309701              -6.2850 (LUMO)
        90                         -0.1677324              -4.5642
        91                         -0.1532466              -4.1701
        92                         -0.1447008              -3.9375
        93                         -0.0680652              -1.8521
        94                         -0.0627117              -1.7065
        95                         -0.0613152              -1.6685
        96                         -0.0536768              -1.4606
        97                         -0.0366138              -0.9963
        98                         -0.0323482              -0.8802
        99                         -0.0312267              -0.8497
       ...                                ...                  ...
       176                          0.2402456               6.5374
      -------------------------------------------------------------
                  HL-Gap            0.2709551 Eh            7.3731 eV

     #   Z          covCN         q      C6AA      α(0)
     1   6 C        3.751    -0.104    22.551     6.772
     2   6 C        3.800    -0.058    21.613     6.619
     3   6 C        3.801    -0.059    21.631     6.622
     4   6 C        3.801    -0.066    21.761     6.642
     5   6 C        3.802    -0.065    21.752     6.640
     6   6 C        3.799    -0.066    21.770     6.643
     7   6 C        3.751    -0.033    21.216     6.569
     8   7 N        3.615     0.097    19.561     6.569
     9   6 C        3.758    -0.031    21.187     6.563
    10   6 C        3.799    -0.071    21.857     6.657
    11   6 C        3.801    -0.064    21.732     6.637
    12   6 C        3.799    -0.065    21.753     6.641
    13   6 C        3.800    -0.058    21.619     6.620
    14   6 C        3.799    -0.053    21.534     6.607
    15   6 C        3.752    -0.107    22.608     6.781
    16   6 C        3.759    -0.033    21.213     6.566
    17   6 C        3.800    -0.067    21.790     6.646
    18   6 C        3.803    -0.066    21.771     6.643
    19   6 C        3.800    -0.062    21.691     6.631
    20   6 C        3.801    -0.063    21.701     6.632
    21   6 C        3.800    -0.057    21.607     6.618
    22   6 C        3.751    -0.103    22.534     6.770
    23   6 C        3.761    -0.036    21.263     6.573
    24   6 C        3.798    -0.074    21.913     6.665
    25   6 C        3.799    -0.062    21.695     6.632
    26   6 C        3.800    -0.064    21.738     6.638
    27   6 C        3.800    -0.062    21.685     6.630
    28   6 C        3.799    -0.056    21.576     6.614
    29   6 C        3.752    -0.106    22.595     6.779
    30   1 H        0.925     0.033     2.548     2.496
    31   1 H        0.925     0.044     2.400     2.423
    32   1 H        0.925     0.028     2.620     2.531
    33   1 H        0.924     0.039     2.461     2.453
    34   1 H        0.924     0.039     2.467     2.456
    35   1 H        0.924     0.036     2.504     2.475
    36   1 H        0.924     0.022     2.710     2.574
    37   1 H        0.924     0.030     2.587     2.515
    38   1 H        0.924     0.050     2.322     2.383
    39   1 H        0.924     0.040     2.452     2.449
    40   1 H        0.924     0.054     2.276     2.359
    41   1 H        0.924     0.044     2.402     2.424
    42   1 H        0.925     0.056     2.250     2.346
    43   1 H        0.925     0.085     1.931     2.173
    44   1 H        0.925     0.083     1.950     2.184
    45   1 H        0.924     0.073     2.051     2.240
    46   1 H        0.924     0.080     1.979     2.200
    47   1 H        0.925     0.060     2.202     2.321
    48   1 H        0.925     0.052     2.299     2.371
    49   1 H        0.924     0.058     2.219     2.329
    50   1 H        0.924     0.036     2.503     2.474
    51   1 H        0.924     0.054     2.275     2.359
    52   1 H        0.924     0.024     2.667     2.554
    53   1 H        0.924     0.042     2.426     2.436
    54   1 H        0.924     0.014     2.828     2.630
    55   1 H        0.924     0.035     2.523     2.484
    56   1 H        0.924     0.027     2.627     2.535
    57   1 H        0.925     0.041     2.435     2.440
    58   1 H        0.925     0.041     2.432     2.439
    59   1 H        0.925     0.036     2.500     2.473
    60   1 H        0.924     0.083     1.944     2.180
    61   1 H        0.924     0.078     2.002     2.213
    62   1 H        0.925     0.055     2.254     2.348
    63   1 H        0.924     0.047     2.363     2.404
    64   1 H        0.924     0.056     2.243     2.342
    65   1 H        0.924     0.044     2.401     2.423
    66   1 H        0.924     0.030     2.581     2.513
    67   1 H        0.924     0.032     2.558     2.501
    68   1 H        0.924     0.042     2.422     2.434
    69   1 H        0.924     0.037     2.492     2.469
    70   1 H        0.924     0.041     2.432     2.439
    71   1 H        0.924     0.031     2.571     2.507
    72   1 H        0.925     0.040     2.455     2.450
    73   1 H        0.925     0.040     2.445     2.445
    74   1 H        0.925     0.023     2.691     2.565
    75   1 H        0.925     0.085     1.928     2.172
    76   1 H        0.924     0.071     2.078     2.254
    77   1 H        0.924     0.076     2.021     2.223
    78   1 H        0.924     0.049     2.331     2.388
    79   1 H        0.924     0.059     2.211     2.325
    80   1 H        0.924     0.023     2.682     2.561
    81   1 H        0.924     0.049     2.327     2.386
    82   1 H        0.924     0.025     2.654     2.548
    83   1 H        0.924     0.042     2.423     2.434
    84   1 H        0.924     0.022     2.708     2.573
    85   1 H        0.924     0.038     2.479     2.462
    86   1 H        0.924     0.029     2.606     2.525
    87   1 H        0.925     0.040     2.442     2.444
    88   1 H        0.925     0.042     2.422     2.434
    89   1 H        0.925     0.034     2.532     2.488

Wiberg/Mayer (AO) data.
largest (>0.10) Wiberg bond orders for each atom

     #   Z sym  total        # sym  WBO       # sym  WBO       # sym  WBO
 ---------------------------------------------------------------------------
     1   6 C    3.997 --     2 C    1.020    32 H    0.988    30 H    0.987
                            31 H    0.986
     2   6 C    3.996 --     1 C    1.020     3 C    1.006    34 H    0.978
                            33 H    0.977
     3   6 C    3.997 --     4 C    1.009     2 C    1.006    35 H    0.977
                            36 H    0.970
     4   6 C    3.995 --     3 C    1.009     5 C    1.007    37 H    0.974
                            38 H    0.974
     5   6 C    3.991 --     4 C    1.007     6 C    0.997    39 H    0.975
                            40 H    0.974
     6   6 C    3.989 --     7 C    1.007     5 C    0.997    42 H    0.963
                            41 H    0.962
     7   6 C    3.932 --     6 C    1.007    44 H    0.958    43 H    0.958
                             8 N    0.933
     8   7 N    3.795 --     7 C    0.933    16 C    0.931     9 C    0.927
                            23 C    0.923
     9   6 C    3.933 --    10 C    1.005    45 H    0.968    46 H    0.965
                             8 N    0.927
    10   6 C    3.986 --     9 C    1.005    11 C    0.996    48 H    0.967
                            47 H    0.960
    11   6 C    3.991 --    12 C    1.007    10 C    0.996    50 H    0.977
                            49 H    0.972
    12   6 C    3.995 --    11 C    1.007    13 C    1.007    52 H    0.976
                            51 H    0.973
    13   6 C    3.996 --    14 C    1.008    12 C    1.007    53 H    0.976
                            54 H    0.973
    14   6 C    3.998 --    15 C    1.020    13 C    1.008    55 H    0.978
                            56 H    0.975
    15   6 C    3.995 --    14 C    1.020    57 H    0.987    58 H    0.986
                            59 H    0.986
    16   6 C    3.934 --    17 C    1.006    61 H    0.966    60 H    0.962
                             8 N    0.931
    17   6 C    3.989 --    16 C    1.006    18 C    0.995    62 H    0.972
                            63 H    0.969
    18   6 C    3.990 --    19 C    1.008    17 C    0.995    65 H    0.975
                            64 H    0.973
    19   6 C    3.997 --    18 C    1.008    20 C    1.006    67 H    0.977
                            66 H    0.975
    20   6 C    3.995 --    21 C    1.008    19 C    1.006    69 H    0.977
                            68 H    0.976
    21   6 C    3.997 --    22 C    1.020    20 C    1.008    70 H    0.977
                            71 H    0.977
    22   6 C    3.997 --    21 C    1.020    72 H    0.987    73 H    0.987
                            74 H    0.986
    23   6 C    3.933 --    24 C    1.005    76 H    0.969    75 H    0.958
                             8 N    0.923
    24   6 C    3.984 --    25 C    1.006    23 C    1.005    78 H    0.971
                            77 H    0.959
    25   6 C    3.993 --    26 C    1.007    24 C    1.006    79 H    0.969
                            80 H    0.967
    26   6 C    3.995 --    27 C    1.007    25 C    1.007    81 H    0.973
                            82 H    0.971
    27   6 C    3.996 --    28 C    1.008    26 C    1.007    83 H    0.976
                            84 H    0.975
    28   6 C    3.997 --    29 C    1.021    27 C    1.008    85 H    0.977
                            86 H    0.976
    29   6 C    3.996 --    28 C    1.021    87 H    0.987    88 H    0.986
                            89 H    0.986
    30   1 H    0.999 --     1 C    0.987
    31   1 H    0.998 --     1 C    0.986
    32   1 H    0.999 --     1 C    0.988
    33   1 H    0.998 --     2 C    0.977
    34   1 H    0.998 --     2 C    0.978
    35   1 H    0.999 --     3 C    0.977
    36   1 H    1.000 --     3 C    0.970
    37   1 H    0.999 --     4 C    0.974
    38   1 H    0.997 --     4 C    0.974
    39   1 H    0.998 --     5 C    0.975
    40   1 H    0.997 --     5 C    0.974
    41   1 H    0.998 --     6 C    0.962
    42   1 H    0.997 --     6 C    0.963
    43   1 H    0.993 --     7 C    0.958
    44   1 H    0.993 --     7 C    0.958
    45   1 H    0.994 --     9 C    0.968
    46   1 H    0.993 --     9 C    0.965
    47   1 H    0.996 --    10 C    0.960
    48   1 H    0.997 --    10 C    0.967
    49   1 H    0.996 --    11 C    0.972
    50   1 H    0.998 --    11 C    0.977
    51   1 H    0.997 --    12 C    0.973
    52   1 H    0.999 --    12 C    0.976
    53   1 H    0.998 --    13 C    0.976
    54   1 H    1.000 --    13 C    0.973
    55   1 H    0.999 --    14 C    0.978
    56   1 H    0.999 --    14 C    0.975
    57   1 H    0.998 --    15 C    0.987
    58   1 H    0.998 --    15 C    0.986
    59   1 H    0.999 --    15 C    0.986
    60   1 H    0.993 --    16 C    0.962
    61   1 H    0.994 --    16 C    0.966
    62   1 H    0.997 --    17 C    0.972
    63   1 H    0.998 --    17 C    0.969
    64   1 H    0.996 --    18 C    0.973
    65   1 H    0.998 --    18 C    0.975
    66   1 H    0.999 --    19 C    0.975
    67   1 H    0.999 --    19 C    0.977
    68   1 H    0.998 --    20 C    0.976
    69   1 H    0.999 --    20 C    0.977
    70   1 H    0.998 --    21 C    0.977
    71   1 H    0.999 --    21 C    0.977
    72   1 H    0.998 --    22 C    0.987
    73   1 H    0.998 --    22 C    0.987
    74   1 H    0.999 --    22 C    0.986
    75   1 H    0.992 --    23 C    0.958
    76   1 H    0.995 --    23 C    0.969
    77   1 H    0.994 --    24 C    0.959
    78   1 H    0.998 --    24 C    0.971
    79   1 H    0.996 --    25 C    0.969
    80   1 H    0.999 --    25 C    0.967
    81   1 H    0.998 --    26 C    0.973
    82   1 H    0.999 --    26 C    0.971
    83   1 H    0.998 --    27 C    0.976
    84   1 H    1.000 --    27 C    0.975
    85   1 H    0.999 --    28 C    0.977
    86   1 H    0.999 --    28 C    0.976
    87   1 H    0.998 --    29 C    0.987
    88   1 H    0.998 --    29 C    0.986
    89   1 H    0.999 --    29 C    0.986
 ---------------------------------------------------------------------------

molecular dipole:
                 x           y           z       tot (Debye)
 q only:       -1.200       8.619      -6.116
   full:       -1.233       8.585      -6.245      27.165

           -------------------------------------------------
          | TOTAL ENERGY              -93.136594339875 Eh   |
          | GRADIENT NORM               0.002469894187 Eh/α |
          | HOMO-LUMO GAP               7.373062283019 eV   |
           -------------------------------------------------

 * finished run on 2024/12/20 at 07:13:48.277
