   * xtb version 6.7.1 (edcfbbe) compiled by 'conda@3ef47c1a292c' on 2024-11-25

   ID    Z sym.   atoms
    1    6 C      1, 2, 4-14
    2    7 N      3
    3    1 H      15-36

          program call               : xtb C1170.xyz --opt --namespace C1170 --charge +1
          :  Hamiltonian                  GFN2-xTB          :
 * total energy  :   -41.5615864 Eh     change       -0.2369376E-09 Eh
 * total energy  :   -41.5690233 Eh     change       -0.7436873E-02 Eh
 * total energy  :   -41.5710564 Eh     change       -0.2033110E-02 Eh
 * total energy  :   -41.5712512 Eh     change       -0.1947758E-03 Eh
 * total energy  :   -41.5713484 Eh     change       -0.9720973E-04 Eh
 * total energy  :   -41.5713969 Eh     change       -0.4846489E-04 Eh
 * total energy  :   -41.5714625 Eh     change       -0.6558747E-04 Eh
 * total energy  :   -41.5715266 Eh     change       -0.6414807E-04 Eh
 * total energy  :   -41.5715759 Eh     change       -0.4933465E-04 Eh
 * total energy  :   -41.5716080 Eh     change       -0.3206605E-04 Eh
 * total energy  :   -41.5716297 Eh     change       -0.2172039E-04 Eh
 * total energy  :   -41.5716411 Eh     change       -0.1138711E-04 Eh
 * total energy  :   -41.5716611 Eh     change       -0.1998143E-04 Eh
 * total energy  :   -41.5716806 Eh     change       -0.1951169E-04 Eh
 * total energy  :   -41.5716993 Eh     change       -0.1867635E-04 Eh
 * total energy  :   -41.5717168 Eh     change       -0.1753736E-04 Eh
 * total energy  :   -41.5717260 Eh     change       -0.9173236E-05 Eh
 * total energy  :   -41.5717305 Eh     change       -0.4520902E-05 Eh
   *** GEOMETRY OPTIMIZATION CONVERGED AFTER 18 ITERATIONS ***

 final structure:
================
36
 xtb: 6.7.1 (edcfbbe)
C            1.10116767053440       -0.08418139149577        0.24528690918386
C            0.59755034933530        1.27332904028410        0.71823693535846
N            0.91712457174363        2.42971616252053       -0.16628808112797
C            0.32778218926528        2.22183400527076       -1.54257187869000
C           -1.17888914746873        2.24656975613582       -1.61468841079917
C           -1.83741557850920        3.41858829251278       -1.97945714573010
C           -3.21627179527696        3.45130619293375       -2.08221326150190
C           -3.95937649535069        2.31088699594166       -1.82585118824977
C           -3.31439696155076        1.13516279276262       -1.48297270467037
C           -1.93414187973975        1.10098278352537       -1.38278879604777
C            0.28181704430976        3.66956391086922        0.38439611422298
C            0.80266654926667        4.21565953868124        1.70361680524475
C            2.39494912999169        2.60693681848675       -0.35625182439688
C            3.30213716329817        2.35943880658979        0.84289994419871
H            0.58191825405762       -0.43922001375025       -0.63986999312159
H            0.91019075590070       -0.80225532769578        1.03948608394734
H            2.16725218117992       -0.09335089323507        0.04289565972974
H           -0.48953793207443        1.23560370037049        0.81660911775845
H            1.02120314592261        1.48625417006258        1.69889703928942
H            0.72291600095224        3.01652677964280       -2.17935245028966
H            0.69875162368560        1.26848912052479       -1.91881552563063
H           -1.27029281869311        4.31069421027178       -2.20276693929683
H           -3.70896886063978        4.36617182065079       -2.37127034417065
H           -5.03422202141523        2.33467406176389       -1.90854221844494
H           -3.88376655316903        0.23682857926005       -1.30311104735891
H           -1.45319127450301        0.16432821406557       -1.14511163742038
H            0.39407245227346        4.44660885137095       -0.37433590923052
H           -0.78372317533792        3.45451218531923        0.48753456094613
H            1.79668335223459        4.64175379567631        1.60913034567388
H            0.13580288647991        5.02163418165833        2.00258920345462
H            0.79206718889385        3.47880396270399        2.50115429313761
H            2.70446257386791        1.92860292677252       -1.15387946439343
H            2.54515397880046        3.62790668660139       -0.71265886070640
H            3.32011587473966        1.31817707577867        1.14561517187463
H            4.31193979873909        2.62337850211483        0.53721415361573
H            3.05440975825555        2.96545370505725        1.70486534364320

          :  Hamiltonian                  GFN2-xTB          :
         :: total energy             -41.571730522356 Eh    ::
         :: gradient norm              0.000798355966 Eh/a0 ::
         :: HOMO-LUMO gap              4.641563229404 eV    ::
         :: SCC energy               -42.248506237781 Eh    ::
         :: -> dispersion             -0.032335356678 Eh    ::
         :: repulsion energy           0.676775715426 Eh    ::

    * Orbital Energies and Occupations

         #    Occupation            Energy/Eh            Energy/eV
      -------------------------------------------------------------
         1        2.0000           -0.8482974             -23.0833
       ...           ...                  ...                  ...
        27        2.0000           -0.6094833             -16.5849
        28        2.0000           -0.6056974             -16.4819
        29        2.0000           -0.6026405             -16.3987
        30        2.0000           -0.5999402             -16.3252
        31        2.0000           -0.5994322             -16.3114
        32        2.0000           -0.5974246             -16.2568
        33        2.0000           -0.5920395             -16.1102
        34        2.0000           -0.5906456             -16.0723
        35        2.0000           -0.5834714             -15.8771
        36        2.0000           -0.5462211             -14.8634
        37        2.0000           -0.5411671             -14.7259
        38        2.0000           -0.5272699             -14.3477
        39        2.0000           -0.5266336             -14.3304 (HOMO)
        40                         -0.3560593              -9.6889 (LUMO)
        41                         -0.3449483              -9.3865
        42                         -0.2389109              -6.5011
        43                         -0.2112956              -5.7496
        44                         -0.1634852              -4.4487
        45                         -0.1502720              -4.0891
        46                         -0.1469703              -3.9993
        47                         -0.0541644              -1.4739
        48                         -0.0533568              -1.4519
        49                         -0.0395575              -1.0764
        50                         -0.0374383              -1.0187
       ...                                ...                  ...
        78                          0.5411302              14.7249
      -------------------------------------------------------------
                  HL-Gap            0.1705743 Eh            4.6416 eV

     #   Z          covCN         q      C6AA      α(0)
     1   6 C        3.751    -0.125    22.952     6.832
     2   6 C        3.750    -0.028    21.139     6.557
     3   7 N        3.616     0.100    19.517     6.561
     4   6 C        3.768    -0.039    21.314     6.580
     5   6 C        2.966    -0.008    28.221     8.714
     6   6 C        2.924    -0.038    28.948     8.823
     7   6 C        2.918    -0.022    28.549     8.762
     8   6 C        2.920    -0.018    28.467     8.749
     9   6 C        2.919    -0.023    28.576     8.766
    10   6 C        2.923    -0.039    28.969     8.826
    11   6 C        3.758    -0.028    21.124     6.553
    12   6 C        3.751    -0.126    22.977     6.836
    13   6 C        3.752    -0.027    21.114     6.553
    14   6 C        3.751    -0.130    23.056     6.848
    15   1 H        0.925     0.062     2.172     2.305
    16   1 H        0.925     0.079     1.993     2.208
    17   1 H        0.925     0.065     2.141     2.288
    18   1 H        0.924     0.083     1.947     2.182
    19   1 H        0.925     0.088     1.897     2.154
    20   1 H        0.924     0.077     2.015     2.220
    21   1 H        0.925     0.086     1.917     2.165
    22   1 H        0.926     0.038     2.470     2.458
    23   1 H        0.926     0.059     2.212     2.326
    24   1 H        0.926     0.062     2.179     2.308
    25   1 H        0.926     0.058     2.225     2.332
    26   1 H        0.926     0.042     2.428     2.437
    27   1 H        0.924     0.080     1.976     2.198
    28   1 H        0.924     0.082     1.961     2.190
    29   1 H        0.925     0.069     2.096     2.264
    30   1 H        0.925     0.082     1.962     2.190
    31   1 H        0.925     0.063     2.168     2.303
    32   1 H        0.924     0.081     1.969     2.194
    33   1 H        0.924     0.079     1.991     2.206
    34   1 H        0.925     0.068     2.110     2.271
    35   1 H        0.925     0.079     1.985     2.203
    36   1 H        0.925     0.070     2.083     2.257

Wiberg/Mayer (AO) data.
largest (>0.10) Wiberg bond orders for each atom

     #   Z sym  total        # sym  WBO       # sym  WBO       # sym  WBO
 ---------------------------------------------------------------------------
     1   6 C    3.984 --     2 C    1.021    17 H    0.977    15 H    0.975
                            16 H    0.975
     2   6 C    3.936 --     1 C    1.021    18 H    0.964    19 H    0.962
                             3 N    0.935
     3   7 N    3.796 --     2 C    0.935    11 C    0.932    13 C    0.929
                             4 C    0.913
     4   6 C    3.932 --     5 C    1.005    20 H    0.967    21 H    0.960
                             3 N    0.913
     5   6 C    3.979 --    10 C    1.410     6 C    1.404     4 C    1.005
                             8 C    0.109
     6   6 C    3.991 --     7 C    1.448     5 C    1.404    22 H    0.967
                             9 C    0.110
     7   6 C    3.990 --     6 C    1.448     8 C    1.435    23 H    0.969
                            10 C    0.109
     8   6 C    3.988 --     9 C    1.440     7 C    1.435    24 H    0.969
                             5 C    0.109
     9   6 C    3.990 --    10 C    1.442     8 C    1.440    25 H    0.969
                             6 C    0.110
    10   6 C    3.991 --     9 C    1.442     5 C    1.410    26 H    0.963
                             7 C    0.109
    11   6 C    3.937 --    12 C    1.022    27 H    0.967    28 H    0.964
                             3 N    0.932
    12   6 C    3.983 --    11 C    1.022    29 H    0.979    31 H    0.979
                            30 H    0.972
    13   6 C    3.937 --    14 C    1.021    33 H    0.969    32 H    0.968
                             3 N    0.929
    14   6 C    3.980 --    13 C    1.021    34 H    0.978    36 H    0.976
                            35 H    0.973
    15   1 H    0.996 --     1 C    0.975
    16   1 H    0.993 --     1 C    0.975
    17   1 H    0.996 --     1 C    0.977
    18   1 H    0.993 --     2 C    0.964
    19   1 H    0.992 --     2 C    0.962
    20   1 H    0.994 --     4 C    0.967
    21   1 H    0.992 --     4 C    0.960
    22   1 H    0.999 --     6 C    0.967
    23   1 H    0.996 --     7 C    0.969
    24   1 H    0.996 --     8 C    0.969
    25   1 H    0.996 --     9 C    0.969
    26   1 H    0.998 --    10 C    0.963
    27   1 H    0.993 --    11 C    0.967
    28   1 H    0.993 --    11 C    0.964
    29   1 H    0.995 --    12 C    0.979
    30   1 H    0.993 --    12 C    0.972
    31   1 H    0.996 --    12 C    0.979
    32   1 H    0.993 --    13 C    0.968
    33   1 H    0.994 --    13 C    0.969
    34   1 H    0.995 --    14 C    0.978
    35   1 H    0.993 --    14 C    0.973
    36   1 H    0.995 --    14 C    0.976
 ---------------------------------------------------------------------------

molecular dipole:
                 x           y           z       tot (Debye)
 q only:        1.136       4.508      -0.150
   full:        1.157       4.541      -0.260      11.928

           -------------------------------------------------
          | TOTAL ENERGY              -41.571730522356 Eh   |
          | GRADIENT NORM               0.000798355966 Eh/α |
          | HOMO-LUMO GAP               4.641563229404 eV   |
           -------------------------------------------------

 * finished run on 2024/12/20 at 07:13:20.994
