   * xtb version 6.7.1 (edcfbbe) compiled by 'conda@3ef47c1a292c' on 2024-11-25

   ID    Z sym.   atoms
    1   35 Br     1
    2    6 C      2-4, 6, 7, 9, 10
    3    7 N      5, 8
    4    1 H      11-22

          program call               : xtb C1179.xyz --opt --namespace C1179 --charge +1
          :  Hamiltonian                  GFN2-xTB          :
 * total energy  :   -30.6593491 Eh     change       -0.1234639E-09 Eh
 * total energy  :   -30.6628550 Eh     change       -0.3505979E-02 Eh
 * total energy  :   -30.6638761 Eh     change       -0.1021101E-02 Eh
 * total energy  :   -30.6641421 Eh     change       -0.2659898E-03 Eh
 * total energy  :   -30.6643652 Eh     change       -0.2230193E-03 Eh
 * total energy  :   -30.6644814 Eh     change       -0.1162880E-03 Eh
 * total energy  :   -30.6646441 Eh     change       -0.1626997E-03 Eh
 * total energy  :   -30.6647629 Eh     change       -0.1187537E-03 Eh
 * total energy  :   -30.6648125 Eh     change       -0.4957730E-04 Eh
 * total energy  :   -30.6648416 Eh     change       -0.2914738E-04 Eh
 * total energy  :   -30.6649474 Eh     change       -0.2945928E-04 Eh
 * total energy  :   -30.6649713 Eh     change       -0.2390831E-04 Eh
 * total energy  :   -30.6650409 Eh     change       -0.6964930E-04 Eh
 * total energy  :   -30.6650985 Eh     change       -0.5759316E-04 Eh
 * total energy  :   -30.6651335 Eh     change       -0.3499035E-04 Eh
 * total energy  :   -30.6651493 Eh     change       -0.1576116E-04 Eh
 * total energy  :   -30.6651587 Eh     change       -0.9398574E-05 Eh
 * total energy  :   -30.6651652 Eh     change       -0.6529178E-05 Eh
 * total energy  :   -30.6651688 Eh     change       -0.3655546E-05 Eh
   *** GEOMETRY OPTIMIZATION CONVERGED AFTER 22 ITERATIONS ***

 final structure:
================
22
 xtb: 6.7.1 (edcfbbe)
Br           0.57855575449605        0.03566879825459       -1.01157957482746
C            2.33208979200923       -0.15294790220453       -0.13672383509102
C            3.44787312818019       -0.38260818324477       -1.14475393314086
C            3.52926303358414        0.68572049789868       -2.24250065560990
N            3.72850821591526        2.01240525096977       -1.70542552156828
C            2.74388847478966        2.90589661419474       -1.41170358950238
C            3.34437637238760        4.01322218941028       -0.89376935145059
N            4.68626536344990        3.77811041951108       -0.87888997245500
C            4.89496572631556        2.56120902804015       -1.37195321173278
C            5.68649307807251        4.69612659059145       -0.40482276962648
H            2.47991258297681        0.75598481739782        0.44605273836247
H            2.24711671953395       -1.00151429313515        0.53927671133415
H            4.39194006313714       -0.43286546414951       -0.59673007437135
H            3.29666901643811       -1.34182945654049       -1.64167422591346
H            4.35569703352222        0.44874531101055       -2.91521598839864
H            2.59774014104180        0.68948270346197       -2.81292690666051
H            1.70714677060880        2.70104141098233       -1.59302763545883
H            2.91592074238273        4.93112411268670       -0.54616780501060
H            5.85514288300374        2.09819061650979       -1.49449267396429
H            5.58288614608812        4.84281489177767        0.67141577283948
H            6.67960631626547        4.30654904832963       -0.61616570650839
H            5.56910264580048        5.66169299824748       -0.89662179124536

          :  Hamiltonian                  GFN2-xTB          :
         :: total energy             -30.665168848125 Eh    ::
         :: gradient norm              0.000405028338 Eh/a0 ::
         :: HOMO-LUMO gap              2.825868090164 eV    ::
         :: SCC energy               -31.068014839186 Eh    ::
         :: -> dispersion             -0.017427647877 Eh    ::
         :: repulsion energy           0.402845991062 Eh    ::

    * Orbital Energies and Occupations

         #    Occupation            Energy/Eh            Energy/eV
      -------------------------------------------------------------
         1        2.0000           -0.9467212             -25.7616
       ...           ...                  ...                  ...
        16        2.0000           -0.6821782             -18.5630
        17        2.0000           -0.6700053             -18.2318
        18        2.0000           -0.6623793             -18.0243
        19        2.0000           -0.6611954             -17.9920
        20        2.0000           -0.6453822             -17.5617
        21        2.0000           -0.6380102             -17.3611
        22        2.0000           -0.6233448             -16.9621
        23        2.0000           -0.6150642             -16.7367
        24        2.0000           -0.6042964             -16.4437
        25        2.0000           -0.5935487             -16.1513
        26        2.0000           -0.5911177             -16.0851
        27        2.0000           -0.5207752             -14.1710
        28        2.0000           -0.5189137             -14.1204 (HOMO)
        29                         -0.4150649             -11.2945 (LUMO)
        30                         -0.3766251             -10.2485
        31                         -0.3341613              -9.0930
        32                         -0.1929544              -5.2506
        33                         -0.1377448              -3.7482
        34                         -0.1002434              -2.7278
        35                         -0.0875283              -2.3818
        36                         -0.0813456              -2.2135
        37                         -0.0717916              -1.9535
        38                         -0.0610020              -1.6599
        39                         -0.0579928              -1.5781
       ...                                ...                  ...
        57                          0.4599203              12.5151
      -------------------------------------------------------------
                  HL-Gap            0.1038487 Eh            2.8259 eV

     #   Z          covCN         q      C6AA      α(0)
     1  35 Br       0.965    -0.177   189.895    22.219
     2   6 C        3.738     0.009    20.498     6.460
     3   6 C        3.850    -0.070    21.799     6.641
     4   6 C        3.742    -0.034    21.263     6.579
     5   7 N        2.869     0.072    19.982     6.639
     6   6 C        3.069    -0.007    28.124     8.696
     7   6 C        3.073    -0.009    28.171     8.702
     8   7 N        2.866     0.080    19.857     6.618
     9   6 C        3.096     0.042    26.949     8.508
    10   6 C        3.692    -0.087    22.361     6.766
    11   1 H        0.926     0.062     2.180     2.309
    12   1 H        0.926     0.085     1.927     2.171
    13   1 H        0.924     0.066     2.131     2.283
    14   1 H        0.924     0.093     1.854     2.129
    15   1 H        0.924     0.091     1.866     2.136
    16   1 H        0.924     0.116     1.650     2.009
    17   1 H        0.926     0.127     1.558     1.952
    18   1 H        0.926     0.113     1.675     2.024
    19   1 H        0.926     0.112     1.678     2.026
    20   1 H        0.924     0.108     1.715     2.048
    21   1 H        0.925     0.100     1.784     2.089
    22   1 H        0.925     0.110     1.698     2.038

Wiberg/Mayer (AO) data.
largest (>0.10) Wiberg bond orders for each atom

     #   Z sym  total        # sym  WBO       # sym  WBO       # sym  WBO
 ---------------------------------------------------------------------------
     1  35 Br   1.038 --     2 C    0.973
     2   6 C    3.958 --     3 C    1.020    11 H    0.975     1 Br   0.973
                            12 H    0.973
     3   6 C    3.987 --     2 C    1.020     4 C    0.989    14 H    0.965
                            13 H    0.965
     4   6 C    3.937 --     3 C    0.989     5 N    0.971    15 H    0.963
                            16 H    0.955
     5   7 N    3.719 --     9 C    1.357     6 C    1.231     4 C    0.971
     6   6 C    3.946 --     7 C    1.591     5 N    1.231    17 H    0.954
     7   6 C    3.947 --     6 C    1.591     8 N    1.226    18 H    0.961
     8   7 N    3.724 --     9 C    1.365     7 C    1.226    10 C    0.991
     9   6 C    3.947 --     8 N    1.365     5 N    1.357    19 H    0.954
    10   6 C    3.933 --     8 N    0.991    21 H    0.975    22 H    0.963
                            20 H    0.960
    11   1 H    0.996 --     2 C    0.975
    12   1 H    0.993 --     2 C    0.973
    13   1 H    0.996 --     3 C    0.965
    14   1 H    0.991 --     3 C    0.965
    15   1 H    0.992 --     4 C    0.963
    16   1 H    0.986 --     4 C    0.955
    17   1 H    0.984 --     6 C    0.954
    18   1 H    0.987 --     7 C    0.961
    19   1 H    0.987 --     9 C    0.954
    20   1 H    0.988 --    10 C    0.960
    21   1 H    0.990 --    10 C    0.975
    22   1 H    0.987 --    10 C    0.963
 ---------------------------------------------------------------------------

molecular dipole:
                 x           y           z       tot (Debye)
 q only:        8.651       5.136      -2.061
   full:        8.945       4.854      -1.682      26.218

           -------------------------------------------------
          | TOTAL ENERGY              -30.665168848125 Eh   |
          | GRADIENT NORM               0.000405028338 Eh/α |
          | HOMO-LUMO GAP               2.825868090164 eV   |
           -------------------------------------------------

 * finished run on 2024/12/20 at 07:13:54.253
