   * xtb version 6.7.1 (edcfbbe) compiled by 'conda@3ef47c1a292c' on 2024-11-25

   ID    Z sym.   atoms
    1    6 C      1-6, 8-25
    2    7 N      7
    3    1 H      26-77

          program call               : xtb C1187.xyz --opt --namespace C1187 --charge +1
          :  Hamiltonian                  GFN2-xTB          :
 * total energy  :   -80.4371214 Eh     change       -0.2564775E-09 Eh
 * total energy  :   -80.4477563 Eh     change       -0.1063493E-01 Eh
 * total energy  :   -80.4508277 Eh     change       -0.3071366E-02 Eh
 * total energy  :   -80.4514017 Eh     change       -0.5740492E-03 Eh
 * total energy  :   -80.4519978 Eh     change       -0.5960760E-03 Eh
 * total energy  :   -80.4524784 Eh     change       -0.4805778E-03 Eh
 * total energy  :   -80.4530166 Eh     change       -0.5381909E-03 Eh
 * total energy  :   -80.4536302 Eh     change       -0.6135928E-03 Eh
 * total energy  :   -80.4543208 Eh     change       -0.6906396E-03 Eh
 * total energy  :   -80.4550623 Eh     change       -0.7414955E-03 Eh
 * total energy  :   -80.4823799 Eh     change       -0.2598898E-04 Eh
 * total energy  :   -80.4824133 Eh     change       -0.3344401E-04 Eh
 * total energy  :   -80.4824366 Eh     change       -0.2329569E-04 Eh
 * total energy  :   -80.4824521 Eh     change       -0.1547851E-04 Eh
 * total energy  :   -80.4824837 Eh     change       -0.3163455E-04 Eh
 * total energy  :   -80.4824966 Eh     change       -0.1287922E-04 Eh
 * total energy  :   -80.4825080 Eh     change       -0.1142833E-04 Eh
 * total energy  :   -80.4825169 Eh     change       -0.8905946E-05 Eh
 * total energy  :   -80.4825210 Eh     change       -0.4029821E-05 Eh
   *** GEOMETRY OPTIMIZATION CONVERGED AFTER 206 ITERATIONS ***

 final structure:
================
77
 xtb: 6.7.1 (edcfbbe)
C           -3.32148548669552        2.02248639666900       -1.19930749761412
C           -3.25033494861333        1.86954412666487        0.31512046471215
C           -2.02668639763430        1.08380078286428        0.79126703780472
C           -0.67419513042018        1.66868098060082        0.37690765000746
C           -0.42957432499016        3.12047702132992        0.80674342030265
C           -0.46429444376928        3.24707160834977        2.32882430023622
N            0.02622337737626        4.53407962032775        2.90401937584357
C           -0.69175587951316        5.68857403995467        2.26214251101082
C           -2.21766647772977        5.61943104211833        2.22595117840126
C           -2.81307853760679        6.97125207431089        1.81157299870821
C           -2.42250022208716        7.45533790190639        0.41293461864250
C           -2.74442115400268        6.48588519798059       -0.72673138331031
C           -4.22335106792872        6.13179074458172       -0.82354028323670
C           -0.24214758148785        4.59553315969419        4.38072594407393
C           -0.20973858927677        3.28892678419255        5.17514182753807
C           -0.22686153557302        3.58556025492424        6.67998323503973
C           -1.50980334702342        4.26782080926739        7.15496291574616
C           -1.63391693279867        4.28689485031336        8.67970189458429
C           -0.56707693224966        5.13858363424079        9.35730243341585
C            1.48738662565600        4.76465440555574        2.63248493729749
C            2.54242971193500        3.98823071492313        3.42747217589604
C            2.86998347186863        2.55780234887666        2.98655719972628
C            3.39743792405033        2.42095983820690        1.55601337853193
C            4.65446061036793        3.23728762380418        1.24743355023696
C            5.84241542266009        2.87181966561907        2.12954629793812
H           -2.52176746417170        2.65514378746858       -1.57731943361763
H           -4.26923960953897        2.47211744290726       -1.48474212107853
H           -3.24791613206000        1.05076056934448       -1.68089843881195
H           -3.27636584000527        2.85691232527183        0.78289430860543
H           -4.13988228549323        1.33622697171094        0.65527304232660
H           -2.07037397271963        0.98185350170686        1.87825546073706
H           -2.08540189782553        0.07641532334008        0.37597387052274
H            0.11632010641732        1.03676158212746        0.78819449940969
H           -0.58909042785298        1.62403310416926       -0.70880607247070
H            0.54192950428989        3.41424151198928        0.40867840024297
H           -1.18173668989683        3.75325772894620        0.33970101394884
H           -1.49157223592344        3.11751217116897        2.66884743572736
H            0.13906848661358        2.44611647064032        2.75090632861079
H           -0.40124788863246        6.59056720203201        2.80691641992700
H           -0.32109265491690        5.77686279863461        1.24089939671027
H           -2.55972842402471        4.86206358223098        1.52386630062548
H           -2.62840818753314        5.37010871869834        3.20578544392905
H           -3.89834550720274        6.88614847027372        1.86434810162065
H           -2.51367819552404        7.73200004378924        2.53592090623662
H           -2.96064936276624        8.38690650630574        0.23067859439579
H           -1.35664296508585        7.69398620486818        0.38586086344300
H           -2.43614036039775        6.95913874934874       -1.66072495122884
H           -2.15580023089850        5.57042683376889       -0.62787375619779
H           -4.82423526601254        7.03476072665795       -0.89101710758871
H           -4.40612691170655        5.53484422104831       -1.71337073168290
H           -4.55700542404362        5.56029453142524        0.03920480553578
H            0.48048035727361        5.29403153779984        4.80763875479498
H           -1.23262884844339        5.02628873363069        4.51780709171218
H           -1.07951256508125        2.67590334917229        4.93548247063215
H            0.68334987409912        2.70598094414479        4.95682603972942
H           -0.12390531067216        2.63645640387116        7.20806867410905
H            0.63621316514878        4.20094216413885        6.93768452666483
H           -1.54781276577396        5.29779665175291        6.79313409742241
H           -2.36922551441854        3.73187608824126        6.74430659594361
H           -2.61780658391476        4.68257217747214        8.93824365359062
H           -1.57963697485838        3.26503909140064        9.05933460533181
H           -0.56955728210390        6.14918079073076        8.95396624500741
H           -0.76310371947721        5.19964417644940       10.42405040899075
H            0.42364295672990        4.71199060875024        9.22338271196645
H            1.65912791310444        4.59989466916751        1.56998841814301
H            1.65900559823218        5.82530768916321        2.83110400774465
H            3.45938176075251        4.57135442649280        3.32172743286052
H            2.30624435183081        3.99080745115125        4.49020930235752
H            3.63400866695993        2.18491299623562        3.66987154732532
H            2.00771326051044        1.89809126174383        3.10105779272838
H            3.62459505791608        1.36591781545870        1.39095976143716
H            2.61947813055271        2.69051494185388        0.83793959552856
H            4.92229371193804        3.05071439044469        0.20569733984988
H            4.44617739952678        4.30618433788941        1.33680723324993
H            6.03691166593444        1.80304388062147        2.08107807064785
H            6.73234983422481        3.39469332298937        1.78980777302224
H            5.67031754174995        3.14512339179488        3.16789308780023

          :  Hamiltonian                  GFN2-xTB          :
         :: total energy             -80.482520964567 Eh    ::
         :: gradient norm              0.000581191621 Eh/a0 ::
         :: HOMO-LUMO gap              7.602164860219 eV    ::
         :: SCC energy               -81.659330406743 Eh    ::
         :: -> dispersion             -0.068165360506 Eh    ::
         :: repulsion energy           1.176809442176 Eh    ::

    * Orbital Energies and Occupations

         #    Occupation            Energy/Eh            Energy/eV
      -------------------------------------------------------------
         1        2.0000           -0.8370527             -22.7774
       ...           ...                  ...                  ...
        64        2.0000           -0.5416764             -14.7398
        65        2.0000           -0.5277689             -14.3613
        66        2.0000           -0.5269402             -14.3388
        67        2.0000           -0.5257835             -14.3073
        68        2.0000           -0.5228542             -14.2276
        69        2.0000           -0.5226563             -14.2222
        70        2.0000           -0.5226037             -14.2208
        71        2.0000           -0.5216272             -14.1942
        72        2.0000           -0.5185567             -14.1106
        73        2.0000           -0.5175293             -14.0827
        74        2.0000           -0.5169462             -14.0668
        75        2.0000           -0.5167734             -14.0621
        76        2.0000           -0.5093382             -13.8598 (HOMO)
        77                         -0.2299638              -6.2576 (LUMO)
        78                         -0.1676418              -4.5618
        79                         -0.1551008              -4.2205
        80                         -0.1414967              -3.8503
        81                         -0.0655327              -1.7832
        82                         -0.0631778              -1.7192
        83                         -0.0609646              -1.6589
        84                         -0.0507239              -1.3803
        85                         -0.0433749              -1.1803
        86                         -0.0388928              -1.0583
        87                         -0.0333585              -0.9077
       ...                                ...                  ...
       152                          0.2351389               6.3985
      -------------------------------------------------------------
                  HL-Gap            0.2793744 Eh            7.6022 eV

     #   Z          covCN         q      C6AA      α(0)
     1   6 C        3.751    -0.107    22.609     6.781
     2   6 C        3.799    -0.053    21.524     6.606
     3   6 C        3.800    -0.066    21.758     6.641
     4   6 C        3.801    -0.065    21.740     6.638
     5   6 C        3.800    -0.065    21.754     6.641
     6   6 C        3.751    -0.032    21.214     6.569
     7   7 N        3.615     0.097    19.568     6.570
     8   6 C        3.767    -0.034    21.211     6.564
     9   6 C        3.799    -0.067    21.782     6.645
    10   6 C        3.801    -0.065    21.749     6.640
    11   6 C        3.800    -0.066    21.768     6.643
    12   6 C        3.799    -0.053    21.528     6.606
    13   6 C        3.751    -0.107    22.615     6.782
    14   6 C        3.755    -0.036    21.266     6.575
    15   6 C        3.800    -0.070    21.849     6.655
    16   6 C        3.803    -0.066    21.768     6.642
    17   6 C        3.801    -0.063    21.702     6.633
    18   6 C        3.800    -0.058    21.609     6.619
    19   6 C        3.752    -0.108    22.621     6.783
    20   6 C        3.756    -0.033    21.216     6.567
    21   6 C        3.799    -0.073    21.900     6.663
    22   6 C        3.799    -0.064    21.723     6.636
    23   6 C        3.800    -0.063    21.705     6.633
    24   6 C        3.799    -0.057    21.595     6.617
    25   6 C        3.751    -0.108    22.633     6.784
    26   1 H        0.925     0.033     2.543     2.494
    27   1 H        0.925     0.043     2.413     2.429
    28   1 H        0.925     0.044     2.392     2.419
    29   1 H        0.924     0.018     2.766     2.601
    30   1 H        0.924     0.040     2.444     2.445
    31   1 H        0.924     0.025     2.658     2.550
    32   1 H        0.924     0.050     2.314     2.379
    33   1 H        0.924     0.039     2.469     2.457
    34   1 H        0.925     0.058     2.218     2.329
    35   1 H        0.924     0.042     2.421     2.433
    36   1 H        0.925     0.057     2.237     2.339
    37   1 H        0.925     0.082     1.961     2.190
    38   1 H        0.925     0.087     1.912     2.163
    39   1 H        0.924     0.072     2.058     2.244
    40   1 H        0.925     0.083     1.947     2.182
    41   1 H        0.925     0.062     2.178     2.308
    42   1 H        0.924     0.044     2.395     2.420
    43   1 H        0.925     0.060     2.198     2.318
    44   1 H        0.924     0.038     2.471     2.458
    45   1 H        0.924     0.052     2.301     2.372
    46   1 H        0.924     0.026     2.645     2.543
    47   1 H        0.924     0.041     2.436     2.441
    48   1 H        0.924     0.018     2.766     2.601
    49   1 H        0.925     0.045     2.389     2.417
    50   1 H        0.925     0.043     2.409     2.427
    51   1 H        0.925     0.033     2.539     2.492
    52   1 H        0.924     0.078     1.999     2.211
    53   1 H        0.925     0.084     1.940     2.178
    54   1 H        0.924     0.050     2.318     2.381
    55   1 H        0.925     0.054     2.276     2.359
    56   1 H        0.924     0.057     2.237     2.339
    57   1 H        0.924     0.043     2.410     2.428
    58   1 H        0.924     0.028     2.613     2.528
    59   1 H        0.924     0.032     2.558     2.501
    60   1 H        0.924     0.041     2.432     2.439
    61   1 H        0.924     0.039     2.463     2.454
    62   1 H        0.925     0.035     2.511     2.478
    63   1 H        0.925     0.046     2.369     2.407
    64   1 H        0.925     0.035     2.512     2.479
    65   1 H        0.925     0.084     1.938     2.177
    66   1 H        0.924     0.068     2.108     2.271
    67   1 H        0.924     0.073     2.052     2.240
    68   1 H        0.925     0.055     2.254     2.348
    69   1 H        0.924     0.058     2.228     2.334
    70   1 H        0.924     0.028     2.622     2.532
    71   1 H        0.924     0.047     2.359     2.402
    72   1 H        0.924     0.023     2.695     2.567
    73   1 H        0.924     0.041     2.435     2.440
    74   1 H        0.924     0.025     2.656     2.549
    75   1 H        0.925     0.043     2.403     2.424
    76   1 H        0.925     0.045     2.389     2.417
    77   1 H        0.925     0.034     2.532     2.488

Wiberg/Mayer (AO) data.
largest (>0.10) Wiberg bond orders for each atom

     #   Z sym  total        # sym  WBO       # sym  WBO       # sym  WBO
 ---------------------------------------------------------------------------
     1   6 C    3.995 --     2 C    1.020    28 H    0.987    27 H    0.986
                            26 H    0.986
     2   6 C    3.997 --     1 C    1.020     3 C    1.007    30 H    0.977
                            29 H    0.972
     3   6 C    3.995 --     4 C    1.007     2 C    1.007    31 H    0.977
                            32 H    0.975
     4   6 C    3.991 --     3 C    1.007     5 C    0.998    33 H    0.976
                            34 H    0.972
     5   6 C    3.989 --     6 C    1.006     4 C    0.998    36 H    0.964
                            35 H    0.963
     6   6 C    3.932 --     5 C    1.006    37 H    0.964    38 H    0.955
                             7 N    0.932
     7   7 N    3.795 --     6 C    0.932    20 C    0.929    14 C    0.928
                             8 C    0.928
     8   6 C    3.934 --     9 C    1.007    39 H    0.968    40 H    0.965
                             7 N    0.928
     9   6 C    3.987 --     8 C    1.007    10 C    0.997    42 H    0.965
                            41 H    0.962
    10   6 C    3.991 --    11 C    1.007     9 C    0.997    44 H    0.976
                            43 H    0.972
    11   6 C    3.995 --    10 C    1.007    12 C    1.007    46 H    0.977
                            45 H    0.974
    12   6 C    3.997 --    13 C    1.020    11 C    1.007    47 H    0.977
                            48 H    0.972
    13   6 C    3.995 --    12 C    1.020    49 H    0.987    50 H    0.986
                            51 H    0.986
    14   6 C    3.932 --    15 C    1.006    52 H    0.966    53 H    0.958
                             7 N    0.928
    15   6 C    3.988 --    14 C    1.006    16 C    0.997    54 H    0.974
                            55 H    0.968
    16   6 C    3.990 --    17 C    1.008    15 C    0.997    57 H    0.975
                            56 H    0.973
    17   6 C    3.997 --    16 C    1.008    18 C    1.006    59 H    0.977
                            58 H    0.977
    18   6 C    3.996 --    19 C    1.021    17 C    1.006    61 H    0.977
                            60 H    0.977
    19   6 C    3.996 --    18 C    1.021    62 H    0.987    64 H    0.987
                            63 H    0.986
    20   6 C    3.934 --    21 C    1.005    66 H    0.969    65 H    0.957
                             7 N    0.929
    21   6 C    3.984 --    22 C    1.006    20 C    1.005    68 H    0.966
                            67 H    0.961
    22   6 C    3.993 --    23 C    1.007    21 C    1.006    69 H    0.971
                            70 H    0.966
    23   6 C    3.996 --    24 C    1.007    22 C    1.007    71 H    0.975
                            72 H    0.971
    24   6 C    3.997 --    25 C    1.020    23 C    1.007    73 H    0.977
                            74 H    0.976
    25   6 C    3.995 --    24 C    1.020    75 H    0.987    76 H    0.986
                            77 H    0.986
    26   1 H    0.999 --     1 C    0.986
    27   1 H    0.998 --     1 C    0.986
    28   1 H    0.998 --     1 C    0.987
    29   1 H    1.000 --     2 C    0.972
    30   1 H    0.998 --     2 C    0.977
    31   1 H    0.999 --     3 C    0.977
    32   1 H    0.997 --     3 C    0.975
    33   1 H    0.998 --     4 C    0.976
    34   1 H    0.996 --     4 C    0.972
    35   1 H    0.998 --     5 C    0.963
    36   1 H    0.997 --     5 C    0.964
    37   1 H    0.993 --     6 C    0.964
    38   1 H    0.992 --     6 C    0.955
    39   1 H    0.995 --     8 C    0.968
    40   1 H    0.993 --     8 C    0.965
    41   1 H    0.996 --     9 C    0.962
    42   1 H    0.998 --     9 C    0.965
    43   1 H    0.996 --    10 C    0.972
    44   1 H    0.998 --    10 C    0.976
    45   1 H    0.997 --    11 C    0.974
    46   1 H    0.999 --    11 C    0.977
    47   1 H    0.998 --    12 C    0.977
    48   1 H    1.000 --    12 C    0.972
    49   1 H    0.998 --    13 C    0.987
    50   1 H    0.998 --    13 C    0.986
    51   1 H    0.999 --    13 C    0.986
    52   1 H    0.994 --    14 C    0.966
    53   1 H    0.993 --    14 C    0.958
    54   1 H    0.997 --    15 C    0.974
    55   1 H    0.997 --    15 C    0.968
    56   1 H    0.996 --    16 C    0.973
    57   1 H    0.998 --    16 C    0.975
    58   1 H    0.999 --    17 C    0.977
    59   1 H    0.999 --    17 C    0.977
    60   1 H    0.998 --    18 C    0.977
    61   1 H    0.998 --    18 C    0.977
    62   1 H    0.999 --    19 C    0.987
    63   1 H    0.998 --    19 C    0.986
    64   1 H    0.999 --    19 C    0.987
    65   1 H    0.993 --    20 C    0.957
    66   1 H    0.995 --    20 C    0.969
    67   1 H    0.994 --    21 C    0.961
    68   1 H    0.997 --    21 C    0.966
    69   1 H    0.996 --    22 C    0.971
    70   1 H    0.999 --    22 C    0.966
    71   1 H    0.998 --    23 C    0.975
    72   1 H    0.999 --    23 C    0.971
    73   1 H    0.998 --    24 C    0.977
    74   1 H    0.999 --    24 C    0.976
    75   1 H    0.998 --    25 C    0.987
    76   1 H    0.998 --    25 C    0.986
    77   1 H    0.999 --    25 C    0.986
 ---------------------------------------------------------------------------

molecular dipole:
                 x           y           z       tot (Debye)
 q only:       -0.177       8.162       5.336
   full:       -0.117       8.268       5.351      25.034

           -------------------------------------------------
          | TOTAL ENERGY              -80.482520964567 Eh   |
          | GRADIENT NORM               0.000581191621 Eh/α |
          | HOMO-LUMO GAP               7.602164860219 eV   |
           -------------------------------------------------

 * finished run on 2024/12/20 at 07:14:19.110
