   * xtb version 6.7.1 (edcfbbe) compiled by 'conda@3ef47c1a292c' on 2024-11-25

   ID    Z sym.   atoms
    1    6 C      1-6, 8, 10-13
    2    7 N      7, 9
    3    1 H      14-34

          program call               : xtb C1188.xyz --opt --namespace C1188 --charge +1
          :  Hamiltonian                  GFN2-xTB          :
 * total energy  :   -39.7451695 Eh     change       -0.6370442E-09 Eh
 * total energy  :   -39.7486440 Eh     change       -0.3474573E-02 Eh
 * total energy  :   -39.7494075 Eh     change       -0.7634333E-03 Eh
 * total energy  :   -39.7495971 Eh     change       -0.1895971E-03 Eh
 * total energy  :   -39.7497643 Eh     change       -0.1672743E-03 Eh
 * total energy  :   -39.7498321 Eh     change       -0.6775719E-04 Eh
 * total energy  :   -39.7499236 Eh     change       -0.9149493E-04 Eh
 * total energy  :   -39.7500470 Eh     change       -0.1234172E-03 Eh
 * total energy  :   -39.7501847 Eh     change       -0.1376930E-03 Eh
 * total energy  :   -39.7503378 Eh     change       -0.1530940E-03 Eh
 * total energy  :   -39.7519051 Eh     change       -0.4841965E-04 Eh
 * total energy  :   -39.7519234 Eh     change       -0.1835353E-04 Eh
 * total energy  :   -39.7519446 Eh     change       -0.2119913E-04 Eh
 * total energy  :   -39.7519580 Eh     change       -0.1337731E-04 Eh
 * total energy  :   -39.7519697 Eh     change       -0.1174262E-04 Eh
 * total energy  :   -39.7519855 Eh     change       -0.1578813E-04 Eh
 * total energy  :   -39.7519948 Eh     change       -0.9266286E-05 Eh
 * total energy  :   -39.7520016 Eh     change       -0.6795336E-05 Eh
 * total energy  :   -39.7520063 Eh     change       -0.4758875E-05 Eh
   *** GEOMETRY OPTIMIZATION CONVERGED AFTER 41 ITERATIONS ***

 final structure:
================
34
 xtb: 6.7.1 (edcfbbe)
C            1.20471231759559       -0.17511419014754       -0.32737306316399
C            0.43210292615096       -1.28595657081004       -1.03301919676699
C            0.69057956749611       -2.67420714090741       -0.41449990502847
C            0.74287082821986       -2.78105860947771        1.11369756959867
C           -0.54476870175199       -2.46731125842870        1.87461964689801
C           -1.71763292283865       -3.39008671830074        1.52401816186189
N           -1.44346255203897       -4.74794219411177        1.93267573200857
C           -0.92064619598072       -5.71164702620522        1.18101925897752
N           -0.73839732670709       -6.80294519459649        1.92056136360141
C           -1.15107937153157       -6.52387836823211        3.18818674927522
C           -1.58967402175885       -5.23472684090811        3.19531007761861
C           -0.19539427415105       -8.05905202484151        1.47795054443026
C           -1.05136418172295       -0.93215056833391       -1.14126570191785
H            0.81783542165903        0.00936925275217        0.67134438740209
H            1.11841051865425        0.74822329141393       -0.89320084992415
H            2.25979132182568       -0.42709207273618       -0.25380994507589
H            0.81023381757104       -1.34738814345205       -2.05985209302869
H           -0.04807324948518       -3.37023774207107       -0.82116388159077
H            1.66704405139984       -3.01131611451608       -0.77045496997189
H            1.06919547656274       -3.79550147282337        1.36807741518449
H            1.51520172076003       -2.10597964686790        1.48073559614314
H           -0.34498897492322       -2.54062771808968        2.94628303108125
H           -0.85471393362545       -1.44498579286624        1.67046318017496
H           -2.61890661536802       -3.05427764339286        2.04064106213329
H           -1.89996562629249       -3.37409086257239        0.44934573056418
H           -0.68985212667006       -5.62672895147218        0.13696108498734
H           -1.10797584262785       -7.24343042796559        3.98030917251614
H           -1.99378068575804       -4.64921483542655        3.99582645848979
H           -0.85306950723913       -8.87480877666999        1.77692094848295
H           -0.09512216247289       -8.05952840211203        0.39516918480826
H            0.78559671491780       -8.22448090793950        1.92601851654191
H           -1.16407051114270       -0.02851635739157       -1.73461270547058
H           -1.60446982979498       -1.72585750275966       -1.64052968359727
H           -1.50535606892538       -0.74518246772608       -0.17218287724694

          :  Hamiltonian                  GFN2-xTB          :
         :: total energy             -39.752006336368 Eh    ::
         :: gradient norm              0.000616692564 Eh/a0 ::
         :: HOMO-LUMO gap              2.840438444122 eV    ::
         :: SCC energy               -40.356638167114 Eh    ::
         :: -> dispersion             -0.026739532224 Eh    ::
         :: repulsion energy           0.604631830746 Eh    ::

    * Orbital Energies and Occupations

         #    Occupation            Energy/Eh            Energy/eV
      -------------------------------------------------------------
         1        2.0000           -0.8963686             -24.3914
       ...           ...                  ...                  ...
        25        2.0000           -0.6087851             -16.5659
        26        2.0000           -0.6015991             -16.3703
        27        2.0000           -0.5913644             -16.0918
        28        2.0000           -0.5885506             -16.0153
        29        2.0000           -0.5878572             -15.9964
        30        2.0000           -0.5724107             -15.5761
        31        2.0000           -0.5685570             -15.4712
        32        2.0000           -0.5598476             -15.2342
        33        2.0000           -0.5454098             -14.8414
        34        2.0000           -0.5415831             -14.7372
        35        2.0000           -0.5247835             -14.2801
        36        2.0000           -0.5214824             -14.1903
        37        2.0000           -0.5103488             -13.8873 (HOMO)
        38                         -0.4059646             -11.0469 (LUMO)
        39                         -0.3708742             -10.0920
        40                         -0.1827052              -4.9717
        41                         -0.1278364              -3.4786
        42                         -0.0630492              -1.7157
        43                         -0.0584063              -1.5893
        44                         -0.0397004              -1.0803
        45                         -0.0368892              -1.0038
        46                         -0.0217628              -0.5922
        47                         -0.0214535              -0.5838
        48                         -0.0156615              -0.4262
       ...                                ...                  ...
        73                          0.4633958              12.6096
      -------------------------------------------------------------
                  HL-Gap            0.1043842 Eh            2.8404 eV

     #   Z          covCN         q      C6AA      α(0)
     1   6 C        3.754    -0.112    22.707     6.795
     2   6 C        3.847    -0.013    20.778     6.484
     3   6 C        3.800    -0.067    21.781     6.645
     4   6 C        3.799    -0.065    21.750     6.640
     5   6 C        3.801    -0.069    21.818     6.650
     6   6 C        3.742    -0.029    21.158     6.562
     7   7 N        2.869     0.073    19.977     6.638
     8   6 C        3.101     0.046    26.834     8.489
     9   7 N        2.867     0.075    19.939     6.632
    10   6 C        3.072    -0.009    28.168     8.702
    11   6 C        3.076    -0.006    28.089     8.689
    12   6 C        3.692    -0.086    22.329     6.761
    13   6 C        3.754    -0.111    22.682     6.791
    14   1 H        0.925     0.037     2.495     2.470
    15   1 H        0.925     0.048     2.340     2.392
    16   1 H        0.925     0.041     2.438     2.442
    17   1 H        0.924     0.040     2.447     2.446
    18   1 H        0.924     0.019     2.746     2.592
    19   1 H        0.924     0.042     2.418     2.432
    20   1 H        0.924     0.019     2.752     2.594
    21   1 H        0.925     0.066     2.135     2.285
    22   1 H        0.924     0.050     2.320     2.382
    23   1 H        0.925     0.080     1.980     2.200
    24   1 H        0.924     0.086     1.917     2.165
    25   1 H        0.925     0.093     1.853     2.129
    26   1 H        0.926     0.114     1.666     2.019
    27   1 H        0.926     0.109     1.707     2.043
    28   1 H        0.926     0.108     1.710     2.045
    29   1 H        0.925     0.107     1.723     2.053
    30   1 H        0.925     0.099     1.792     2.093
    31   1 H        0.924     0.106     1.728     2.056
    32   1 H        0.925     0.049     2.326     2.385
    33   1 H        0.925     0.028     2.621     2.532
    34   1 H        0.925     0.032     2.556     2.500

Wiberg/Mayer (AO) data.
largest (>0.10) Wiberg bond orders for each atom

     #   Z sym  total        # sym  WBO       # sym  WBO       # sym  WBO
 ---------------------------------------------------------------------------
     1   6 C    3.995 --     2 C    1.010    16 H    0.985    15 H    0.985
                            14 H    0.984
     2   6 C    3.994 --     1 C    1.010    13 C    1.009     3 C    0.992
                            17 H    0.968
     3   6 C    3.995 --     4 C    1.007     2 C    0.992    19 H    0.977
                            18 H    0.973
     4   6 C    3.993 --     5 C    1.008     3 C    1.007    20 H    0.975
                            21 H    0.969
     5   6 C    3.983 --     4 C    1.008     6 C    0.980    22 H    0.974
                            23 H    0.958
     6   6 C    3.933 --     5 C    0.980     7 N    0.967    24 H    0.963
                            25 H    0.960
     7   7 N    3.721 --     8 C    1.364    11 C    1.231     6 C    0.967
     8   6 C    3.946 --     7 N    1.364     9 N    1.357    26 H    0.952
     9   7 N    3.719 --     8 C    1.357    10 C    1.227    12 C    0.991
    10   6 C    3.948 --    11 C    1.592     9 N    1.227    27 H    0.961
    11   6 C    3.951 --    10 C    1.592     7 N    1.231    28 H    0.961
    12   6 C    3.934 --     9 N    0.991    30 H    0.975    29 H    0.965
                            31 H    0.960
    13   6 C    3.995 --     2 C    1.009    33 H    0.986    32 H    0.985
                            34 H    0.980
    14   1 H    0.999 --     1 C    0.984
    15   1 H    0.998 --     1 C    0.985
    16   1 H    0.998 --     1 C    0.985
    17   1 H    0.998 --     2 C    0.968
    18   1 H    1.000 --     3 C    0.973
    19   1 H    0.998 --     3 C    0.977
    20   1 H    0.999 --     4 C    0.975
    21   1 H    0.996 --     4 C    0.969
    22   1 H    0.997 --     5 C    0.974
    23   1 H    0.992 --     5 C    0.958
    24   1 H    0.992 --     6 C    0.963
    25   1 H    0.991 --     6 C    0.960
    26   1 H    0.987 --     8 C    0.952
    27   1 H    0.988 --    10 C    0.961
    28   1 H    0.988 --    11 C    0.961
    29   1 H    0.988 --    12 C    0.965
    30   1 H    0.990 --    12 C    0.975
    31   1 H    0.988 --    12 C    0.960
    32   1 H    0.997 --    13 C    0.985
    33   1 H    0.999 --    13 C    0.986
    34   1 H    0.999 --    13 C    0.980
 ---------------------------------------------------------------------------

molecular dipole:
                 x           y           z       tot (Debye)
 q only:       -1.644     -10.303       3.333
   full:       -1.688     -10.397       3.307      28.062

           -------------------------------------------------
          | TOTAL ENERGY              -39.752006336368 Eh   |
          | GRADIENT NORM               0.000616692564 Eh/α |
          | HOMO-LUMO GAP               2.840438444122 eV   |
           -------------------------------------------------

 * finished run on 2024/12/20 at 07:14:20.220
