   * xtb version 6.7.1 (edcfbbe) compiled by 'conda@3ef47c1a292c' on 2024-11-25

   ID    Z sym.   atoms
    1    6 C      1-15, 17, 18, 20, 21
    2    7 N      16, 19
    3    1 H      22-58

          program call               : xtb C1186.xyz --opt --namespace C1186 --charge +1
          :  Hamiltonian                  GFN2-xTB          :
 * total energy  :   -65.0556300 Eh     change       -0.3089468E-08 Eh
 * total energy  :   -65.0597982 Eh     change       -0.4168189E-02 Eh
 * total energy  :   -65.0606159 Eh     change       -0.8177094E-03 Eh
 * total energy  :   -65.0607705 Eh     change       -0.1545783E-03 Eh
 * total energy  :   -65.0608936 Eh     change       -0.1231721E-03 Eh
 * total energy  :   -65.0609499 Eh     change       -0.5624605E-04 Eh
 * total energy  :   -65.0610390 Eh     change       -0.8910227E-04 Eh
 * total energy  :   -65.0611436 Eh     change       -0.1046109E-03 Eh
 * total energy  :   -65.0612317 Eh     change       -0.8808158E-04 Eh
 * total energy  :   -65.0612965 Eh     change       -0.6485549E-04 Eh
 * total energy  :   -65.0620136 Eh     change       -0.1223689E-04 Eh
 * total energy  :   -65.0620237 Eh     change       -0.1009182E-04 Eh
 * total energy  :   -65.0620319 Eh     change       -0.8215533E-05 Eh
 * total energy  :   -65.0620391 Eh     change       -0.7177848E-05 Eh
 * total energy  :   -65.0620462 Eh     change       -0.7120939E-05 Eh
 * total energy  :   -65.0620543 Eh     change       -0.8032135E-05 Eh
 * total energy  :   -65.0620627 Eh     change       -0.8421218E-05 Eh
 * total energy  :   -65.0620688 Eh     change       -0.6103461E-05 Eh
 * total energy  :   -65.0620718 Eh     change       -0.3021117E-05 Eh
   *** GEOMETRY OPTIMIZATION CONVERGED AFTER 42 ITERATIONS ***

 final structure:
================
58
 xtb: 6.7.1 (edcfbbe)
C            1.12618494144889       -0.17467069244270       -0.62348531064939
C            1.19236894433269       -1.45685059955711        0.19788013599599
C            1.40893747904024       -1.20641776607144        1.69104108438931
C            0.29418855190517       -0.41751572777750        2.38077386356937
C           -1.08757020199126       -1.07252222287142        2.33135881557401
C           -1.17079798301652       -2.45729133822427        2.97709625439239
C           -0.75764745637753       -2.50973307151600        4.44951173335360
C           -1.53910009446182       -1.57295026827319        5.37265785611537
C           -3.04885591348778       -1.81705742307972        5.40915069155399
C           -3.46690185269225       -3.19750971452023        5.91990895003684
C           -2.99159580780950       -3.53234214645817        7.33543989327071
C           -3.41771875510364       -2.53086128321337        8.41179022096297
C           -4.93010675271755       -2.33043377737016        8.53836660876634
C           -5.71439368524958       -3.58370604641985        8.92608246848607
C           -5.38656152752454       -4.10971323468158       10.32949889856925
N           -5.76579774807496       -3.14813797464193       11.33809921923450
C           -7.01369909204645       -2.99781381177200       11.85984289911760
C           -6.97872052015046       -1.92386437892981       12.69642755340637
N           -5.70949464180441       -1.43011805978141       12.66733573689434
C           -4.99565519813132       -2.18501263468945       11.83598045127704
C           -5.23978890333690       -0.29391161552471       13.41345197392885
H            0.24494366676674        0.40952634002251       -0.37066750137498
H            1.08153801233899       -0.40913755909410       -1.68456405095829
H            2.00829244480990        0.43683336647614       -0.44543725658272
H            0.27893268353170       -2.03450971894984        0.04568115618025
H            2.02421826014915       -2.06478715719748       -0.16625469680116
H            1.53546494982349       -2.16839246590861        2.19239115313078
H            2.34224159144425       -0.65130979317523        1.81737720897164
H            0.58243828456208       -0.25969540026149        3.42254558356365
H            0.21910663348824        0.56931116011407        1.92005662978222
H           -1.80069009473265       -0.40301487251724        2.81829017238372
H           -1.40254631036571       -1.16517572845921        1.29039818237057
H           -2.19595726060775       -2.82130574558555        2.87505539085812
H           -0.53351540201981       -3.14887325159942        2.42301200859356
H           -0.86554018363903       -3.53906691939486        4.79959414649545
H            0.30105483203666       -2.25694160853269        4.53121566128751
H           -1.12951619814373       -1.66488961720694        6.38165846718298
H           -1.37148551847712       -0.54203519835795        5.05637138061961
H           -3.50835631685468       -1.04321830799802        6.02940904398502
H           -3.45248785268109       -1.69457496333120        4.40323847806235
H           -4.55642735722382       -3.26777643183817        5.87272006473855
H           -3.07290312295544       -3.95974923666116        5.24659601867486
H           -3.35341703212620       -4.53011469326387        7.59549864314778
H           -1.90195744251957       -3.58236167633224        7.34044199008599
H           -2.99709238153786       -2.85775876423966        9.36734493431443
H           -2.97106320617287       -1.56210494684855        8.18549287135631
H           -5.12466274379813       -1.53489419993167        9.26531711264143
H           -5.31528626172051       -1.97972194230783        7.58153822372103
H           -6.78363094243745       -3.36905554848313        8.86948830447739
H           -5.50029362516284       -4.38098588424913        8.21626285653950
H           -5.93507560660706       -5.03480092736585       10.51543575409106
H           -4.31810186517715       -4.30889723795375       10.41837028659210
H           -7.82467332488177       -3.65211823254583       11.61275281271071
H           -7.75238483102695       -1.48919233405876       13.29574018687011
H           -3.95568545383473       -2.04612653721208       11.61195107982098
H           -4.19805255468472       -0.09654391773936       13.17139568198964
H           -5.83611095566504        0.58591983065751       13.16978605082756
H           -5.32729129664769       -0.48481609086919       14.48366597139873

          :  Hamiltonian                  GFN2-xTB          :
         :: total energy             -65.062071818015 Eh    ::
         :: gradient norm              0.000246598465 Eh/a0 ::
         :: HOMO-LUMO gap              1.376103431174 eV    ::
         :: SCC energy               -66.038646998141 Eh    ::
         :: -> dispersion             -0.048473578879 Eh    ::
         :: repulsion energy           0.976575180126 Eh    ::

    * Orbital Energies and Occupations

         #    Occupation            Energy/Eh            Energy/eV
      -------------------------------------------------------------
         1        2.0000           -0.8960385             -24.3824
       ...           ...                  ...                  ...
        49        2.0000           -0.5203303             -14.1589
        50        2.0000           -0.5145851             -14.0026
        51        2.0000           -0.5098794             -13.8745
        52        2.0000           -0.5036354             -13.7046
        53        2.0000           -0.4976471             -13.5417
        54        2.0000           -0.4937815             -13.4365
        55        2.0000           -0.4889631             -13.3054
        56        2.0000           -0.4788637             -13.0305
        57        2.0000           -0.4772944             -12.9878
        58        2.0000           -0.4733464             -12.8804
        59        2.0000           -0.4630076             -12.5991
        60        2.0000           -0.4578150             -12.4578
        61        2.0000           -0.4562244             -12.4145 (HOMO)
        62                         -0.4056535             -11.0384 (LUMO)
        63                         -0.3705658             -10.0836
        64                         -0.1823299              -4.9614
        65                         -0.1275514              -3.4708
        66                         -0.0624474              -1.6993
        67                         -0.0583645              -1.5882
        68                         -0.0391677              -1.0658
        69                         -0.0295702              -0.8046
        70                         -0.0200795              -0.5464
        71                         -0.0167612              -0.4561
        72                         -0.0072756              -0.1980
       ...                                ...                  ...
       121                          0.4637803              12.6201
      -------------------------------------------------------------
                  HL-Gap            0.0505709 Eh            1.3761 eV

     #   Z          covCN         q      C6AA      α(0)
     1   6 C        3.751    -0.102    22.506     6.765
     2   6 C        3.799    -0.052    21.513     6.604
     3   6 C        3.800    -0.057    21.602     6.617
     4   6 C        3.800    -0.057    21.597     6.617
     5   6 C        3.800    -0.057    21.593     6.616
     6   6 C        3.800    -0.057    21.602     6.618
     7   6 C        3.800    -0.057    21.603     6.618
     8   6 C        3.800    -0.057    21.605     6.618
     9   6 C        3.800    -0.058    21.626     6.621
    10   6 C        3.800    -0.060    21.660     6.626
    11   6 C        3.800    -0.061    21.673     6.628
    12   6 C        3.800    -0.061    21.677     6.629
    13   6 C        3.800    -0.065    21.752     6.640
    14   6 C        3.802    -0.071    21.850     6.655
    15   6 C        3.742    -0.028    21.145     6.560
    16   7 N        2.869     0.072    19.985     6.640
    17   6 C        3.075    -0.006    28.086     8.689
    18   6 C        3.072    -0.009    28.171     8.703
    19   7 N        2.867     0.075    19.939     6.632
    20   6 C        3.101     0.047    26.831     8.488
    21   6 C        3.692    -0.086    22.329     6.761
    22   1 H        0.925     0.034     2.537     2.491
    23   1 H        0.925     0.033     2.548     2.496
    24   1 H        0.925     0.034     2.529     2.487
    25   1 H        0.924     0.030     2.583     2.513
    26   1 H        0.924     0.028     2.615     2.529
    27   1 H        0.924     0.028     2.618     2.530
    28   1 H        0.924     0.029     2.601     2.522
    29   1 H        0.924     0.026     2.644     2.543
    30   1 H        0.924     0.032     2.552     2.498
    31   1 H        0.924     0.025     2.660     2.551
    32   1 H        0.924     0.034     2.534     2.490
    33   1 H        0.924     0.026     2.650     2.546
    34   1 H        0.924     0.034     2.526     2.485
    35   1 H        0.924     0.025     2.651     2.546
    36   1 H        0.924     0.034     2.527     2.486
    37   1 H        0.924     0.022     2.696     2.568
    38   1 H        0.924     0.036     2.505     2.475
    39   1 H        0.924     0.022     2.710     2.574
    40   1 H        0.924     0.040     2.449     2.447
    41   1 H        0.924     0.025     2.659     2.550
    42   1 H        0.924     0.043     2.408     2.427
    43   1 H        0.924     0.025     2.652     2.547
    44   1 H        0.924     0.045     2.383     2.414
    45   1 H        0.924     0.014     2.826     2.629
    46   1 H        0.924     0.048     2.339     2.392
    47   1 H        0.924     0.017     2.777     2.606
    48   1 H        0.925     0.065     2.140     2.288
    49   1 H        0.924     0.052     2.299     2.371
    50   1 H        0.925     0.081     1.971     2.196
    51   1 H        0.924     0.087     1.908     2.160
    52   1 H        0.924     0.089     1.890     2.150
    53   1 H        0.926     0.108     1.710     2.045
    54   1 H        0.926     0.109     1.706     2.042
    55   1 H        0.926     0.114     1.660     2.015
    56   1 H        0.925     0.099     1.793     2.094
    57   1 H        0.924     0.107     1.725     2.054
    58   1 H        0.924     0.107     1.725     2.054

Wiberg/Mayer (AO) data.
largest (>0.10) Wiberg bond orders for each atom

     #   Z sym  total        # sym  WBO       # sym  WBO       # sym  WBO
 ---------------------------------------------------------------------------
     1   6 C    3.997 --     2 C    1.020    24 H    0.988    23 H    0.987
                            22 H    0.986
     2   6 C    3.998 --     1 C    1.020     3 C    1.008    26 H    0.978
                            25 H    0.976
     3   6 C    3.998 --     2 C    1.008     4 C    1.008    28 H    0.977
                            27 H    0.976
     4   6 C    3.998 --     5 C    1.008     3 C    1.008    30 H    0.975
                            29 H    0.975
     5   6 C    3.998 --     4 C    1.008     6 C    1.008    31 H    0.975
                            32 H    0.974
     6   6 C    3.997 --     5 C    1.008     7 C    1.008    33 H    0.975
                            34 H    0.975
     7   6 C    3.997 --     8 C    1.008     6 C    1.008    35 H    0.975
                            36 H    0.975
     8   6 C    3.997 --     9 C    1.008     7 C    1.008    37 H    0.975
                            38 H    0.974
     9   6 C    3.997 --     8 C    1.008    10 C    1.008    39 H    0.975
                            40 H    0.973
    10   6 C    3.996 --     9 C    1.008    11 C    1.007    41 H    0.975
                            42 H    0.974
    11   6 C    3.996 --    10 C    1.007    12 C    1.007    43 H    0.975
                            44 H    0.973
    12   6 C    3.995 --    13 C    1.007    11 C    1.007    45 H    0.974
                            46 H    0.973
    13   6 C    3.993 --    14 C    1.009    12 C    1.007    47 H    0.973
                            48 H    0.968
    14   6 C    3.983 --    13 C    1.009    15 C    0.979    49 H    0.975
                            50 H    0.962
    15   6 C    3.934 --    14 C    0.979    16 N    0.968    51 H    0.964
                            52 H    0.961
    16   7 N    3.720 --    20 C    1.362    17 C    1.231    15 C    0.968
    17   6 C    3.951 --    18 C    1.592    16 N    1.231    53 H    0.961
    18   6 C    3.948 --    17 C    1.592    19 N    1.226    54 H    0.961
    19   7 N    3.719 --    20 C    1.357    18 C    1.226    21 C    0.991
    20   6 C    3.946 --    16 N    1.362    19 N    1.357    55 H    0.952
    21   6 C    3.934 --    19 N    0.991    56 H    0.976    57 H    0.963
                            58 H    0.962
    22   1 H    0.999 --     1 C    0.986
    23   1 H    0.999 --     1 C    0.987
    24   1 H    0.999 --     1 C    0.988
    25   1 H    0.999 --     2 C    0.976
    26   1 H    0.999 --     2 C    0.978
    27   1 H    0.999 --     3 C    0.976
    28   1 H    0.999 --     3 C    0.977
    29   1 H    0.999 --     4 C    0.975
    30   1 H    0.999 --     4 C    0.975
    31   1 H    0.999 --     5 C    0.975
    32   1 H    0.999 --     5 C    0.974
    33   1 H    0.999 --     6 C    0.975
    34   1 H    0.999 --     6 C    0.975
    35   1 H    0.999 --     7 C    0.975
    36   1 H    0.999 --     7 C    0.975
    37   1 H    0.999 --     8 C    0.975
    38   1 H    0.999 --     8 C    0.974
    39   1 H    1.000 --     9 C    0.975
    40   1 H    0.998 --     9 C    0.973
    41   1 H    0.999 --    10 C    0.975
    42   1 H    0.998 --    10 C    0.974
    43   1 H    0.999 --    11 C    0.975
    44   1 H    0.998 --    11 C    0.973
    45   1 H    1.000 --    12 C    0.974
    46   1 H    0.998 --    12 C    0.973
    47   1 H    1.000 --    13 C    0.973
    48   1 H    0.996 --    13 C    0.968
    49   1 H    0.997 --    14 C    0.975
    50   1 H    0.992 --    14 C    0.962
    51   1 H    0.992 --    15 C    0.964
    52   1 H    0.992 --    15 C    0.961
    53   1 H    0.988 --    17 C    0.961
    54   1 H    0.988 --    18 C    0.961
    55   1 H    0.987 --    20 C    0.952
    56   1 H    0.990 --    21 C    0.976
    57   1 H    0.988 --    21 C    0.963
    58   1 H    0.988 --    21 C    0.962
 ---------------------------------------------------------------------------

molecular dipole:
                 x           y           z       tot (Debye)
 q only:      -10.439      -4.199      21.767
   full:      -10.431      -4.210      21.892      62.560

           -------------------------------------------------
          | TOTAL ENERGY              -65.062071818015 Eh   |
          | GRADIENT NORM               0.000246598465 Eh/α |
          | HOMO-LUMO GAP               1.376103431174 eV   |
           -------------------------------------------------

 * finished run on 2024/12/20 at 07:14:07.101
