   * xtb version 6.7.1 (edcfbbe) compiled by 'conda@3ef47c1a292c' on 2024-11-25

   ID    Z sym.   atoms
    1    9 F      1
    2    6 C      2-4, 6-8, 10, 11
    3    7 N      5
    4    8 O      9
    5    1 H      12-28

          program call               : xtb C1184.xyz --opt --namespace C1184 --charge +1
          :  Hamiltonian                  GFN2-xTB          :
 * total energy  :   -37.1051516 Eh     change       -0.5186251E-10 Eh
 * total energy  :   -37.1124240 Eh     change       -0.7272465E-02 Eh
 * total energy  :   -37.1141995 Eh     change       -0.1775438E-02 Eh
 * total energy  :   -37.1142773 Eh     change       -0.7781406E-04 Eh
 * total energy  :   -37.1143354 Eh     change       -0.5809331E-04 Eh
 * total energy  :   -37.1143993 Eh     change       -0.6395253E-04 Eh
 * total energy  :   -37.1144660 Eh     change       -0.6669160E-04 Eh
 * total energy  :   -37.1145531 Eh     change       -0.8712037E-04 Eh
 * total energy  :   -37.1146168 Eh     change       -0.6370668E-04 Eh
 * total energy  :   -37.1146629 Eh     change       -0.4610544E-04 Eh
 * total energy  :   -37.1146965 Eh     change       -0.3360842E-04 Eh
 * total energy  :   -37.1147068 Eh     change       -0.1026459E-04 Eh
 * total energy  :   -37.1147085 Eh     change       -0.1683981E-05 Eh
 * total energy  :   -37.1147152 Eh     change       -0.6658441E-05 Eh
 * total energy  :   -37.1147182 Eh     change       -0.3057107E-05 Eh
   *** GEOMETRY OPTIMIZATION CONVERGED AFTER 15 ITERATIONS ***

 final structure:
================
28
 xtb: 6.7.1 (edcfbbe)
F            1.04970239111201       -0.10022480483845       -0.06568261576107
C            2.34126727600549        0.05816284837275       -0.50103560488820
C            2.88939161733888        1.41880114946176       -0.04143946906933
C            2.27403645197753        1.95693575728136        1.25382766309104
N            2.79302999414929        1.44133340457384        2.56152308278506
C            4.20544617768942        1.83361085316758        2.71930504917994
C            1.95892213551255        2.06581112030608        3.63415528347404
C            2.20948979398809        1.45172707108102        5.01619692373258
O            1.98492957877420        0.06905229189379        4.99064586413417
C            2.84420181140096       -0.56353611761089        4.08263048350091
C            2.63645933628184       -0.03742513992270        2.65622839967038
H            2.90594578980352       -0.79295981182243       -0.10900344440664
H            2.32108901685281       -0.00173437495554       -1.59215324848984
H            3.97609330511833        1.36858413625051       -0.00391339842908
H            2.63117536322131        2.15699832332200       -0.80307293025273
H            2.41282157419947        3.03982264392458        1.27420416613871
H            1.20054712981554        1.75613020233701        1.21729247595694
H            4.82159162329293        1.33732241270611        1.97316644351790
H            4.30674028865926        2.91093491779475        2.60029597033912
H            4.57583963535499        1.55815907539213        3.70297697819023
H            0.91011028517626        1.89454358974916        3.38210716543432
H            2.15021716506271        3.13891074198681        3.65822091626437
H            1.48952204234107        1.86878455584080        5.72270134855103
H            3.22128655511115        1.67693309219127        5.38250299944527
H            3.89199307827638       -0.45180497052615        4.39766402353033
H            2.58975853428559       -1.62466968465775        4.10675064821381
H            3.35526380319298       -0.51634191193147        1.99354220366271
H            1.62221824600514       -0.28802137136839        2.33813262248437

          :  Hamiltonian                  GFN2-xTB          :
         :: total energy             -37.114718213542 Eh    ::
         :: gradient norm              0.000629077228 Eh/a0 ::
         :: HOMO-LUMO gap              8.389191747405 eV    ::
         :: SCC energy               -37.507125738523 Eh    ::
         :: -> dispersion             -0.020974533124 Eh    ::
         :: repulsion energy           0.392407524981 Eh    ::

    * Orbital Energies and Occupations

         #    Occupation            Energy/Eh            Energy/eV
      -------------------------------------------------------------
         1        2.0000           -0.9426905             -25.6519
       ...           ...                  ...                  ...
        21        2.0000           -0.6640018             -18.0684
        22        2.0000           -0.6600812             -17.9617
        23        2.0000           -0.6585528             -17.9201
        24        2.0000           -0.6554843             -17.8366
        25        2.0000           -0.6474514             -17.6181
        26        2.0000           -0.6349199             -17.2770
        27        2.0000           -0.6332030             -17.2303
        28        2.0000           -0.6247706             -17.0009
        29        2.0000           -0.6147820             -16.7291
        30        2.0000           -0.6008765             -16.3507
        31        2.0000           -0.5939035             -16.1609
        32        2.0000           -0.5814460             -15.8220
        33        2.0000           -0.5592249             -15.2173 (HOMO)
        34                         -0.2509278              -6.8281 (LUMO)
        35                         -0.1853213              -5.0428
        36                         -0.1754669              -4.7747
        37                         -0.1573586              -4.2819
        38                         -0.1187388              -3.2310
        39                         -0.1108360              -3.0160
        40                         -0.0919261              -2.5014
        41                         -0.0814988              -2.2177
        42                         -0.0639458              -1.7401
        43                         -0.0610812              -1.6621
        44                         -0.0493802              -1.3437
       ...                                ...                  ...
        61                          0.1486424               4.0448
      -------------------------------------------------------------
                  HL-Gap            0.3082971 Eh            8.3892 eV

     #   Z          covCN         q      C6AA      α(0)
     1   9 F        0.784    -0.250    11.765     4.052
     2   6 C        3.606     0.094    19.538     6.387
     3   6 C        3.799    -0.082    22.072     6.689
     4   6 C        3.762    -0.039    21.313     6.581
     5   7 N        3.620     0.124    19.118     6.494
     6   6 C        3.711    -0.094    22.435     6.769
     7   6 C        3.767    -0.046    21.439     6.599
     8   6 C        3.723     0.064    19.605     6.323
     9   8 O        1.702    -0.280    18.643     5.830
    10   6 C        3.723     0.063    19.627     6.327
    11   6 C        3.757    -0.046    21.444     6.602
    12   1 H        0.924     0.062     2.179     2.309
    13   1 H        0.924     0.087     1.913     2.163
    14   1 H        0.925     0.069     2.101     2.267
    15   1 H        0.924     0.094     1.841     2.122
    16   1 H        0.924     0.086     1.915     2.164
    17   1 H        0.924     0.109     1.709     2.044
    18   1 H        0.925     0.097     1.811     2.105
    19   1 H        0.925     0.097     1.813     2.106
    20   1 H        0.925     0.101     1.773     2.082
    21   1 H        0.924     0.101     1.773     2.082
    22   1 H        0.924     0.088     1.902     2.157
    23   1 H        0.924     0.101     1.779     2.086
    24   1 H        0.923     0.051     2.307     2.375
    25   1 H        0.923     0.049     2.329     2.387
    26   1 H        0.924     0.100     1.786     2.090
    27   1 H        0.925     0.088     1.898     2.154
    28   1 H        0.924     0.112     1.678     2.026

Wiberg/Mayer (AO) data.
largest (>0.10) Wiberg bond orders for each atom

     #   Z sym  total        # sym  WBO       # sym  WBO       # sym  WBO
 ---------------------------------------------------------------------------
     1   9 F    1.006 --     2 C    0.942
     2   6 C    3.896 --     3 C    0.998    13 H    0.968    12 H    0.968
                             1 F    0.942
     3   6 C    3.987 --     4 C    1.011     2 C    0.998    14 H    0.968
                            15 H    0.964
     4   6 C    3.931 --     3 C    1.011    16 H    0.967    17 H    0.960
                             5 N    0.925
     5   7 N    3.808 --     6 C    0.961    11 C    0.934     7 C    0.933
                             4 C    0.925
     6   6 C    3.929 --    19 H    0.975    18 H    0.971    20 H    0.967
                             5 N    0.961
     7   6 C    3.934 --     8 C    0.995    22 H    0.968    21 H    0.964
                             5 N    0.933
     8   6 C    3.952 --     9 O    0.999     7 C    0.995    24 H    0.959
                            23 H    0.958
     9   8 O    2.107 --     8 C    0.999    10 C    0.998
    10   6 C    3.952 --     9 O    0.998    11 C    0.994    25 H    0.961
                            26 H    0.959
    11   6 C    3.931 --    10 C    0.994    27 H    0.964    28 H    0.962
                             5 N    0.934
    12   1 H    0.996 --     2 C    0.968
    13   1 H    0.992 --     2 C    0.968
    14   1 H    0.995 --     3 C    0.968
    15   1 H    0.991 --     3 C    0.964
    16   1 H    0.992 --     4 C    0.967
    17   1 H    0.988 --     4 C    0.960
    18   1 H    0.991 --     6 C    0.971
    19   1 H    0.991 --     6 C    0.975
    20   1 H    0.990 --     6 C    0.967
    21   1 H    0.990 --     7 C    0.964
    22   1 H    0.992 --     7 C    0.968
    23   1 H    0.989 --     8 C    0.958
    24   1 H    0.997 --     8 C    0.959
    25   1 H    0.998 --    10 C    0.961
    26   1 H    0.990 --    10 C    0.959
    27   1 H    0.992 --    11 C    0.964
    28   1 H    0.987 --    11 C    0.962
 ---------------------------------------------------------------------------

molecular dipole:
                 x           y           z       tot (Debye)
 q only:        6.141       2.907       4.350
   full:        6.373       3.037       4.184      20.859

           -------------------------------------------------
          | TOTAL ENERGY              -37.114718213542 Eh   |
          | GRADIENT NORM               0.000629077228 Eh/α |
          | HOMO-LUMO GAP               8.389191747405 eV   |
           -------------------------------------------------

 * finished run on 2024/12/20 at 07:14:03.202
