   * xtb version 6.7.1 (edcfbbe) compiled by 'conda@3ef47c1a292c' on 2024-11-25

   ID    Z sym.   atoms
    1    6 C      1-3, 5-19
    2    7 N      4
    3    1 H      20-59

          program call               : xtb C1183.xyz --opt --namespace C1183 --charge +1
          :  Hamiltonian                  GFN2-xTB          :
 * total energy  :   -61.4841185 Eh     change       -0.4387601E-10 Eh
 * total energy  :   -61.4924161 Eh     change       -0.8297517E-02 Eh
 * total energy  :   -61.4944283 Eh     change       -0.2012281E-02 Eh
 * total energy  :   -61.4946717 Eh     change       -0.2433522E-03 Eh
 * total energy  :   -61.4948602 Eh     change       -0.1885087E-03 Eh
 * total energy  :   -61.4949351 Eh     change       -0.7490632E-04 Eh
 * total energy  :   -61.4950174 Eh     change       -0.8232683E-04 Eh
 * total energy  :   -61.4950891 Eh     change       -0.7170661E-04 Eh
 * total energy  :   -61.4951260 Eh     change       -0.3686578E-04 Eh
 * total energy  :   -61.4952030 Eh     change       -0.7696693E-04 Eh
 * total energy  :   -61.4966420 Eh     change       -0.5506685E-05 Eh
 * total energy  :   -61.4966526 Eh     change       -0.1060048E-04 Eh
 * total energy  :   -61.4966618 Eh     change       -0.9159651E-05 Eh
 * total energy  :   -61.4966681 Eh     change       -0.6298830E-05 Eh
 * total energy  :   -61.4966741 Eh     change       -0.5977432E-05 Eh
 * total energy  :   -61.4966816 Eh     change       -0.7546834E-05 Eh
 * total energy  :   -61.4966899 Eh     change       -0.8311043E-05 Eh
 * total energy  :   -61.4966967 Eh     change       -0.6750203E-05 Eh
 * total energy  :   -61.4967015 Eh     change       -0.4871458E-05 Eh
   *** GEOMETRY OPTIMIZATION CONVERGED AFTER 52 ITERATIONS ***

 final structure:
================
59
 xtb: 6.7.1 (edcfbbe)
C            1.59908621290790       -0.19290465986261        0.61846300674403
C            0.59914758015962        0.95777965931318        0.76137853900222
C            1.01787272582571        2.23713881940505       -0.00261829092905
N            0.92950520507733        2.34518346367652       -1.50076398040237
C           -0.43644620500468        2.74628647322122       -1.97605961857129
C           -0.94712788358230        4.13875517424600       -1.54431766624310
C           -0.92392583877756        5.17589486678878       -2.68960494770621
C           -1.96943143235050        5.18029300219862       -3.83182324776851
C           -3.32212098668960        5.73474729589491       -3.37476432547446
C           -1.41531262790398        6.13440755750155       -4.90074273726671
C           -2.18286420173547        3.81110984873681       -4.48012874575008
C           -2.30354111727506        4.01458827613774       -0.85017963144804
C            1.91747438067789        3.35152955486842       -1.94142457223598
C            1.27760028375760        1.07580036006477       -2.16426103735097
C           -0.86254218791718        0.54882452707850        0.53382601541861
C           -1.53620061279615       -0.35537304107411        1.59822913138359
C           -1.19818148412117        0.08915832257624        3.02168143164371
C           -3.05109899929722       -0.21736734427048        1.39064268320981
C           -1.16891362543334       -1.82946567608787        1.41524703213009
H            1.35519710900591       -0.86520658986344       -0.19818655834381
H            1.60523758273473       -0.78158710777705        1.53042090990565
H            2.61198726574213        0.18055920320955        0.48232201848364
H            0.66984978702473        1.30152413621829        1.79915950678027
H            0.43169755275038        3.06543686131883        0.39708862374731
H            2.06281524039924        2.41628333560063        0.25980310508046
H           -0.40680958440261        2.70415854475600       -3.06394137099381
H           -1.13074351525961        1.98244155116241       -1.62967805245222
H           -0.26214250909791        4.54835769563144       -0.79351131595107
H           -0.98641941233642        6.15960869692778       -2.21923511097392
H            0.06237013281660        5.12075534434555       -3.15688105523688
H           -3.19327035193374        6.65688458393164       -2.81372562180786
H           -3.93527751091610        5.95801911351563       -4.24422099244368
H           -3.87057809642523        5.02770833907983       -2.76235820026446
H           -0.46855185358072        5.77496692625083       -5.29967335792675
H           -2.11458782070561        6.22290782655008       -5.72723555301458
H           -1.25689957255254        7.12627773123740       -4.48498391166007
H           -1.25900803730309        3.42754655987877       -4.91123964934059
H           -2.58565861254276        3.08664643175174       -3.77697804737347
H           -2.89863347938563        3.91128743703839       -5.29222001463443
H           -2.20299269876783        3.48347565117733        0.09481788990527
H           -2.70226903612924        5.00038812329672       -0.63354042812000
H           -3.01957715333115        3.47871421656402       -1.46504260726380
H            2.92735587402889        3.00055273362714       -1.73547672552776
H            1.82263200736522        3.51662247017799       -3.01313034515913
H            1.76664703380892        4.29712548583255       -1.42683382860466
H            2.24936078479514        0.72967708962825       -1.82155140948294
H            0.53131711770001        0.31715866776191       -1.94828188235562
H            1.32150215847329        1.22083955771542       -3.24279012665476
H           -1.45314128169128        1.46699724558686        0.50562670811383
H           -0.97323574046603        0.04116173835134       -0.42745336356439
H           -1.38708706515564        1.15255427637785        3.15486681767312
H           -1.82249066968236       -0.45114241139230        3.72790766937292
H           -0.16204700515901       -0.12170523965004        3.27430316403219
H           -3.32888682937248       -0.47932391353977        0.37174022427145
H           -3.58542613270158       -0.88059705895583        2.06453283431139
H           -3.38240710231166        0.79985827486206        1.58939921945360
H           -1.38048235777103       -2.15903211240929        0.40022903323271
H           -0.12350307129981       -2.02066343004255        1.63143939075867
H           -1.76115233193974       -2.43839446623944        2.09305337557451

          :  Hamiltonian                  GFN2-xTB          :
         :: total energy             -61.496701542475 Eh    ::
         :: gradient norm              0.000187810849 Eh/a0 ::
         :: HOMO-LUMO gap              7.836922798521 eV    ::
         :: SCC energy               -62.395271453407 Eh    ::
         :: -> dispersion             -0.052959124712 Eh    ::
         :: repulsion energy           0.898569910932 Eh    ::

    * Orbital Energies and Occupations

         #    Occupation            Energy/Eh            Energy/eV
      -------------------------------------------------------------
         1        2.0000           -0.8510540             -23.1584
       ...           ...                  ...                  ...
        46        2.0000           -0.5522333             -15.0270
        47        2.0000           -0.5473037             -14.8929
        48        2.0000           -0.5467487             -14.8778
        49        2.0000           -0.5420876             -14.7510
        50        2.0000           -0.5413503             -14.7309
        51        2.0000           -0.5396560             -14.6848
        52        2.0000           -0.5383662             -14.6497
        53        2.0000           -0.5254922             -14.2994
        54        2.0000           -0.5243685             -14.2688
        55        2.0000           -0.5238217             -14.2539
        56        2.0000           -0.5235403             -14.2463
        57        2.0000           -0.5197398             -14.1428
        58        2.0000           -0.5168383             -14.0639 (HOMO)
        59                         -0.2288367              -6.2270 (LUMO)
        60                         -0.1717178              -4.6727
        61                         -0.1430654              -3.8930
        62                         -0.1383749              -3.7654
        63                         -0.0995393              -2.7086
        64                         -0.0811634              -2.2086
        65                         -0.0640358              -1.7425
        66                         -0.0579644              -1.5773
        67                         -0.0515390              -1.4024
        68                         -0.0335235              -0.9122
        69                         -0.0294884              -0.8024
       ...                                ...                  ...
       116                          0.2175718               5.9204
      -------------------------------------------------------------
                  HL-Gap            0.2880016 Eh            7.8369 eV

     #   Z          covCN         q      C6AA      α(0)
     1   6 C        3.752    -0.121    22.881     6.821
     2   6 C        3.846    -0.024    20.970     6.514
     3   6 C        3.751    -0.046    21.461     6.607
     4   7 N        3.619     0.128    19.062     6.485
     5   6 C        3.761    -0.054    21.584     6.623
     6   6 C        3.845    -0.017    20.847     6.495
     7   6 C        3.806    -0.082    22.052     6.685
     8   6 C        3.896     0.030    20.018     6.360
     9   6 C        3.761    -0.120    22.845     6.814
    10   6 C        3.767    -0.117    22.776     6.802
    11   6 C        3.759    -0.113    22.708     6.794
    12   6 C        3.753    -0.115    22.753     6.802
    13   6 C        3.728    -0.090    22.313     6.744
    14   6 C        3.726    -0.092    22.365     6.752
    15   6 C        3.807    -0.074    21.916     6.664
    16   6 C        3.896     0.030    20.010     6.359
    17   6 C        3.759    -0.117    22.780     6.804
    18   6 C        3.765    -0.116    22.761     6.800
    19   6 C        3.760    -0.118    22.804     6.808
    20   1 H        0.925     0.050     2.323     2.384
    21   1 H        0.925     0.063     2.168     2.303
    22   1 H        0.925     0.037     2.485     2.465
    23   1 H        0.924     0.074     2.047     2.238
    24   1 H        0.924     0.081     1.967     2.193
    25   1 H        0.924     0.078     2.001     2.212
    26   1 H        0.925     0.091     1.865     2.135
    27   1 H        0.925     0.090     1.877     2.143
    28   1 H        0.924     0.038     2.471     2.458
    29   1 H        0.924     0.053     2.288     2.365
    30   1 H        0.924     0.033     2.537     2.491
    31   1 H        0.925     0.041     2.440     2.443
    32   1 H        0.925     0.049     2.330     2.387
    33   1 H        0.925     0.043     2.404     2.425
    34   1 H        0.925     0.032     2.563     2.503
    35   1 H        0.925     0.050     2.315     2.379
    36   1 H        0.925     0.043     2.406     2.425
    37   1 H        0.925     0.024     2.668     2.554
    38   1 H        0.925     0.032     2.558     2.501
    39   1 H        0.925     0.054     2.268     2.355
    40   1 H        0.925     0.036     2.498     2.471
    41   1 H        0.925     0.067     2.124     2.279
    42   1 H        0.925     0.051     2.304     2.374
    43   1 H        0.925     0.091     1.874     2.141
    44   1 H        0.925     0.094     1.845     2.124
    45   1 H        0.925     0.096     1.818     2.108
    46   1 H        0.925     0.099     1.790     2.092
    47   1 H        0.925     0.101     1.780     2.086
    48   1 H        0.925     0.088     1.896     2.153
    49   1 H        0.924     0.039     2.464     2.455
    50   1 H        0.924     0.029     2.599     2.521
    51   1 H        0.925     0.035     2.515     2.480
    52   1 H        0.925     0.054     2.269     2.356
    53   1 H        0.925     0.037     2.483     2.464
    54   1 H        0.925     0.036     2.505     2.475
    55   1 H        0.925     0.051     2.302     2.373
    56   1 H        0.925     0.036     2.504     2.474
    57   1 H        0.925     0.035     2.512     2.479
    58   1 H        0.925     0.042     2.421     2.433
    59   1 H        0.925     0.051     2.314     2.379

Wiberg/Mayer (AO) data.
largest (>0.10) Wiberg bond orders for each atom

     #   Z sym  total        # sym  WBO       # sym  WBO       # sym  WBO
 ---------------------------------------------------------------------------
     1   6 C    3.991 --     2 C    1.008    20 H    0.983    22 H    0.982
                            21 H    0.977
     2   6 C    3.981 --     1 C    1.008    15 C    0.997     3 C    0.987
                            23 H    0.948
     3   6 C    3.925 --     2 C    0.987    25 H    0.967    24 H    0.962
                             4 N    0.920
     4   7 N    3.806 --    13 C    0.963    14 C    0.961     5 C    0.922
                             3 C    0.920
     5   6 C    3.920 --     6 C    0.989    27 H    0.961    26 H    0.959
                             4 N    0.922
     6   6 C    3.986 --    12 C    1.007     7 C    0.990     5 C    0.989
                            28 H    0.954
     7   6 C    3.989 --     6 C    0.990     8 C    0.982    29 H    0.973
                            30 H    0.971
     8   6 C    3.990 --    11 C    1.000     9 C    1.000    10 C    0.995
                             7 C    0.982
     9   6 C    3.993 --     8 C    1.000    31 H    0.985    32 H    0.983
                            33 H    0.981
    10   6 C    3.993 --     8 C    0.995    36 H    0.986    34 H    0.985
                            35 H    0.984
    11   6 C    3.995 --     8 C    1.000    38 H    0.983    39 H    0.982
                            37 H    0.981
    12   6 C    3.991 --     6 C    1.007    41 H    0.981    42 H    0.981
                            40 H    0.979
    13   6 C    3.935 --    43 H    0.975    44 H    0.973    45 H    0.972
                             4 N    0.963
    14   6 C    3.930 --    48 H    0.975    46 H    0.972    47 H    0.968
                             4 N    0.961
    15   6 C    3.993 --     2 C    0.997    16 C    0.976    50 H    0.968
                            49 H    0.965
    16   6 C    3.990 --    17 C    1.001    19 C    1.001    18 C    0.996
                            15 C    0.976
    17   6 C    3.994 --    16 C    1.001    51 H    0.985    52 H    0.982
                            53 H    0.982
    18   6 C    3.994 --    16 C    0.996    54 H    0.986    56 H    0.985
                            55 H    0.984
    19   6 C    3.994 --    16 C    1.001    57 H    0.985    59 H    0.983
                            58 H    0.980
    20   1 H    0.998 --     1 C    0.983
    21   1 H    0.996 --     1 C    0.977
    22   1 H    0.998 --     1 C    0.982
    23   1 H    0.994 --     2 C    0.948
    24   1 H    0.993 --     3 C    0.962
    25   1 H    0.994 --     3 C    0.967
    26   1 H    0.992 --     5 C    0.959
    27   1 H    0.992 --     5 C    0.961
    28   1 H    0.998 --     6 C    0.954
    29   1 H    0.997 --     7 C    0.973
    30   1 H    0.999 --     7 C    0.971
    31   1 H    0.998 --     9 C    0.985
    32   1 H    0.998 --     9 C    0.983
    33   1 H    0.998 --     9 C    0.981
    34   1 H    0.999 --    10 C    0.985
    35   1 H    0.997 --    10 C    0.984
    36   1 H    0.998 --    10 C    0.986
    37   1 H    0.999 --    11 C    0.981
    38   1 H    0.999 --    11 C    0.983
    39   1 H    0.997 --    11 C    0.982
    40   1 H    0.998 --    12 C    0.979
    41   1 H    0.995 --    12 C    0.981
    42   1 H    0.997 --    12 C    0.981
    43   1 H    0.992 --    13 C    0.975
    44   1 H    0.991 --    13 C    0.973
    45   1 H    0.991 --    13 C    0.972
    46   1 H    0.990 --    14 C    0.972
    47   1 H    0.990 --    14 C    0.968
    48   1 H    0.992 --    14 C    0.975
    49   1 H    0.998 --    15 C    0.965
    50   1 H    0.999 --    15 C    0.968
    51   1 H    0.999 --    17 C    0.985
    52   1 H    0.997 --    17 C    0.982
    53   1 H    0.999 --    17 C    0.982
    54   1 H    0.999 --    18 C    0.986
    55   1 H    0.997 --    18 C    0.984
    56   1 H    0.999 --    18 C    0.985
    57   1 H    0.999 --    19 C    0.985
    58   1 H    0.998 --    19 C    0.980
    59   1 H    0.997 --    19 C    0.983
 ---------------------------------------------------------------------------

molecular dipole:
                 x           y           z       tot (Debye)
 q only:        0.955       4.415      -2.501
   full:        1.093       4.457      -2.536      13.327

           -------------------------------------------------
          | TOTAL ENERGY              -61.496701542475 Eh   |
          | GRADIENT NORM               0.000187810849 Eh/α |
          | HOMO-LUMO GAP               7.836922798521 eV   |
           -------------------------------------------------

 * finished run on 2024/12/20 at 07:14:02.541
