   * xtb version 6.7.1 (edcfbbe) compiled by 'conda@3ef47c1a292c' on 2024-11-25

   ID    Z sym.   atoms
    1    6 C      1-6, 8-14
    2    7 N      7
    3    1 H      15-42

          program call               : xtb C1185.xyz --opt --namespace C1185 --charge +1
          :  Hamiltonian                  GFN2-xTB          :
 * total energy  :   -44.6626509 Eh     change       -0.1275282E-09 Eh
 * total energy  :   -44.6690976 Eh     change       -0.6446640E-02 Eh
 * total energy  :   -44.6706714 Eh     change       -0.1573796E-02 Eh
 * total energy  :   -44.6708121 Eh     change       -0.1407047E-03 Eh
 * total energy  :   -44.6709416 Eh     change       -0.1294915E-03 Eh
 * total energy  :   -44.6710001 Eh     change       -0.5849477E-04 Eh
 * total energy  :   -44.6710793 Eh     change       -0.7920486E-04 Eh
 * total energy  :   -44.6711389 Eh     change       -0.5958733E-04 Eh
 * total energy  :   -44.6712036 Eh     change       -0.6476485E-04 Eh
 * total energy  :   -44.6712345 Eh     change       -0.3086138E-04 Eh
 * total energy  :   -44.6714884 Eh     change       -0.1749730E-04 Eh
 * total energy  :   -44.6715009 Eh     change       -0.1252516E-04 Eh
 * total energy  :   -44.6715102 Eh     change       -0.9311174E-05 Eh
 * total energy  :   -44.6715188 Eh     change       -0.8563816E-05 Eh
 * total energy  :   -44.6715280 Eh     change       -0.9187033E-05 Eh
 * total energy  :   -44.6715372 Eh     change       -0.9218444E-05 Eh
 * total energy  :   -44.6715447 Eh     change       -0.7533161E-05 Eh
 * total energy  :   -44.6715503 Eh     change       -0.5615098E-05 Eh
 * total energy  :   -44.6715551 Eh     change       -0.4782029E-05 Eh
   *** GEOMETRY OPTIMIZATION CONVERGED AFTER 33 ITERATIONS ***

 final structure:
================
42
 xtb: 6.7.1 (edcfbbe)
C            0.28708845689418        0.46563717747967        0.31948777819496
C            0.28710219157964        0.40455129866765       -1.20298903173309
C            1.29046175745294       -0.60449273234111       -1.76377108697617
C            1.04915813543162       -2.06100894359129       -1.35630062905806
C           -0.35448549377558       -2.60406148144188       -1.65993943966811
C           -0.80942992577532       -2.48795379986842       -3.11965145173403
N           -0.62697890797935       -3.67787035468744       -4.01797039751848
C           -0.92532761848883       -3.21032747432104       -5.38476257757448
C            0.76865571549197       -4.18195488215500       -3.93567381583238
C            0.98997232211585       -5.46838066901606       -4.72017234391878
C            0.07282083520428       -6.56375116115676       -4.18746030955730
C           -1.39506912230089       -6.13417247745045       -4.25930333118554
C           -1.57994631453103       -4.75048943225785       -3.61213157621539
C           -1.96662967134112       -6.28066557457600       -5.67192128571733
H           -0.06905663894908       -0.46310771086292        0.75826316725539
H           -0.36171116462433        1.26803758862667        0.65983744667539
H            1.29010275127014        0.65981860610765        0.69058197236601
H           -0.71958865095052        0.18024711884985       -1.56289629193547
H            0.55425627900360        1.38885294490423       -1.59165529339925
H            1.31111349857097       -0.51415445623161       -2.85369854446309
H            2.28659453315517       -0.33104646946216       -1.41195314471123
H            1.81741330574363       -2.67459642834955       -1.82999038362948
H            1.19712059727344       -2.14743153986111       -0.27964661991251
H           -0.41648285700912       -3.63291562012326       -1.30172915982298
H           -1.06414867462758       -2.03274427113405       -1.06099003106480
H           -1.87538074046270       -2.25266047614081       -3.14506497025710
H           -0.27442470861848       -1.65498607770197       -3.57717256526570
H           -1.92305214287588       -2.77669794900242       -5.41905419954507
H           -0.20442954184923       -2.45168085930693       -5.68504456862999
H           -0.88371367719762       -4.03131432491545       -6.09052016776010
H            0.98465991251003       -4.38622878172155       -2.88716810687489
H            1.43598551697121       -3.39225025517897       -4.28553270279797
H            2.03078410709076       -5.76423409870978       -4.58641647044879
H            0.83937381336218       -5.31652488764687       -5.78812622937505
H            0.21157993694651       -7.47971367755322       -4.75943460107726
H            0.34049487262476       -6.77964070687647       -3.15121954085699
H           -1.97784428804767       -6.80828069553042       -3.62261215394268
H           -2.59234470126936       -4.39054149124351       -3.80705906178837
H           -1.47031182528975       -4.87687843585881       -2.53372293832584
H           -2.18013741331881       -7.32982673005019       -5.85825729661298
H           -2.89922550663698       -5.73301034860511       -5.78063326155761
H           -1.27579895278162       -5.96177945970730       -6.44736478374026

          :  Hamiltonian                  GFN2-xTB          :
         :: total energy             -44.671555124404 Eh    ::
         :: gradient norm              0.000206159669 Eh/a0 ::
         :: HOMO-LUMO gap              7.978975634833 eV    ::
         :: SCC energy               -45.312859750555 Eh    ::
         :: -> dispersion             -0.034463673739 Eh    ::
         :: repulsion energy           0.641304626150 Eh    ::

    * Orbital Energies and Occupations

         #    Occupation            Energy/Eh            Energy/eV
      -------------------------------------------------------------
         1        2.0000           -0.8531382             -23.2151
       ...           ...                  ...                  ...
        30        2.0000           -0.5984086             -16.2835
        31        2.0000           -0.5923682             -16.1192
        32        2.0000           -0.5910022             -16.0820
        33        2.0000           -0.5876487             -15.9907
        34        2.0000           -0.5750426             -15.6477
        35        2.0000           -0.5695937             -15.4994
        36        2.0000           -0.5677415             -15.4490
        37        2.0000           -0.5629131             -15.3176
        38        2.0000           -0.5600949             -15.2410
        39        2.0000           -0.5533817             -15.0583
        40        2.0000           -0.5314511             -14.4615
        41        2.0000           -0.5249397             -14.2843
        42        2.0000           -0.5202167             -14.1558 (HOMO)
        43                         -0.2269948              -6.1768 (LUMO)
        44                         -0.1570301              -4.2730
        45                         -0.1549359              -4.2160
        46                         -0.1392079              -3.7880
        47                         -0.0902301              -2.4553
        48                         -0.0710172              -1.9325
        49                         -0.0647885              -1.7630
        50                         -0.0534049              -1.4532
        51                         -0.0441205              -1.2006
        52                         -0.0361611              -0.9840
        53                         -0.0288384              -0.7847
       ...                                ...                  ...
        84                          0.2051347               5.5820
      -------------------------------------------------------------
                  HL-Gap            0.2932220 Eh            7.9790 eV

     #   Z          covCN         q      C6AA      α(0)
     1   6 C        3.752    -0.109    22.646     6.786
     2   6 C        3.799    -0.058    21.611     6.619
     3   6 C        3.800    -0.064    21.723     6.636
     4   6 C        3.799    -0.070    21.842     6.654
     5   6 C        3.798    -0.072    21.871     6.659
     6   6 C        3.766    -0.042    21.365     6.588
     7   7 N        3.620     0.121    19.174     6.504
     8   6 C        3.723    -0.092    22.378     6.755
     9   6 C        3.762    -0.032    21.195     6.563
    10   6 C        3.803    -0.071    21.858     6.656
    11   6 C        3.808    -0.075    21.925     6.665
    12   6 C        3.850    -0.022    20.926     6.506
    13   6 C        3.760    -0.037    21.284     6.577
    14   6 C        3.752    -0.123    22.912     6.826
    15   1 H        0.925     0.034     2.531     2.488
    16   1 H        0.925     0.045     2.378     2.412
    17   1 H        0.925     0.045     2.384     2.415
    18   1 H        0.924     0.025     2.658     2.549
    19   1 H        0.924     0.043     2.412     2.429
    20   1 H        0.924     0.020     2.737     2.587
    21   1 H        0.924     0.052     2.292     2.368
    22   1 H        0.924     0.033     2.542     2.494
    23   1 H        0.925     0.061     2.183     2.310
    24   1 H        0.924     0.046     2.373     2.409
    25   1 H        0.924     0.076     2.019     2.222
    26   1 H        0.924     0.074     2.038     2.233
    27   1 H        0.924     0.092     1.864     2.135
    28   1 H        0.925     0.089     1.892     2.151
    29   1 H        0.925     0.088     1.902     2.157
    30   1 H        0.925     0.109     1.709     2.044
    31   1 H        0.925     0.091     1.869     2.138
    32   1 H        0.924     0.078     1.997     2.210
    33   1 H        0.924     0.074     2.041     2.234
    34   1 H        0.925     0.059     2.211     2.325
    35   1 H        0.925     0.071     2.071     2.251
    36   1 H        0.924     0.052     2.299     2.371
    37   1 H        0.924     0.067     2.116     2.275
    38   1 H        0.924     0.078     1.997     2.210
    39   1 H        0.924     0.081     1.971     2.196
    40   1 H        0.925     0.066     2.136     2.285
    41   1 H        0.925     0.050     2.314     2.379
    42   1 H        0.925     0.046     2.366     2.405

Wiberg/Mayer (AO) data.
largest (>0.10) Wiberg bond orders for each atom

     #   Z sym  total        # sym  WBO       # sym  WBO       # sym  WBO
 ---------------------------------------------------------------------------
     1   6 C    3.995 --     2 C    1.021    17 H    0.987    16 H    0.986
                            15 H    0.986
     2   6 C    3.997 --     1 C    1.021     3 C    1.008    19 H    0.977
                            18 H    0.976
     3   6 C    3.995 --     2 C    1.008     4 C    1.007    21 H    0.974
                            20 H    0.972
     4   6 C    3.992 --     3 C    1.007     5 C    1.004    22 H    0.974
                            23 H    0.972
     5   6 C    3.985 --     6 C    1.005     4 C    1.004    25 H    0.965
                            24 H    0.963
     6   6 C    3.929 --     5 C    1.005    26 H    0.970    27 H    0.959
                             7 N    0.923
     7   7 N    3.806 --     8 C    0.962     9 C    0.934    13 C    0.933
                             6 C    0.923
     8   6 C    3.931 --    28 H    0.976    29 H    0.976     7 N    0.962
                            30 H    0.960
     9   6 C    3.935 --    10 C    1.008    32 H    0.968    31 H    0.960
                             7 N    0.934
    10   6 C    3.988 --    11 C    1.009     9 C    1.008    34 H    0.969
                            33 H    0.966
    11   6 C    3.992 --    10 C    1.009    12 C    0.996    36 H    0.975
                            35 H    0.972
    12   6 C    3.986 --    14 C    1.008    11 C    0.996    13 C    0.991
                            37 H    0.960
    13   6 C    3.933 --    12 C    0.991    38 H    0.967    39 H    0.962
                             7 N    0.933
    14   6 C    3.990 --    12 C    1.008    41 H    0.984    40 H    0.982
                            42 H    0.976
    15   1 H    0.999 --     1 C    0.986
    16   1 H    0.998 --     1 C    0.986
    17   1 H    0.998 --     1 C    0.987
    18   1 H    0.999 --     2 C    0.976
    19   1 H    0.998 --     2 C    0.977
    20   1 H    1.000 --     3 C    0.972
    21   1 H    0.997 --     3 C    0.974
    22   1 H    0.999 --     4 C    0.974
    23   1 H    0.996 --     4 C    0.972
    24   1 H    0.998 --     5 C    0.963
    25   1 H    0.994 --     5 C    0.965
    26   1 H    0.994 --     6 C    0.970
    27   1 H    0.991 --     6 C    0.959
    28   1 H    0.992 --     8 C    0.976
    29   1 H    0.992 --     8 C    0.976
    30   1 H    0.988 --     8 C    0.960
    31   1 H    0.992 --     9 C    0.960
    32   1 H    0.994 --     9 C    0.968
    33   1 H    0.994 --    10 C    0.966
    34   1 H    0.996 --    10 C    0.969
    35   1 H    0.994 --    11 C    0.972
    36   1 H    0.997 --    11 C    0.975
    37   1 H    0.995 --    12 C    0.960
    38   1 H    0.994 --    13 C    0.967
    39   1 H    0.993 --    13 C    0.962
    40   1 H    0.995 --    14 C    0.982
    41   1 H    0.997 --    14 C    0.984
    42   1 H    0.998 --    14 C    0.976
 ---------------------------------------------------------------------------

molecular dipole:
                 x           y           z       tot (Debye)
 q only:       -0.942      -7.245      -7.313
   full:       -1.004      -7.150      -7.322      26.136

           -------------------------------------------------
          | TOTAL ENERGY              -44.671555124404 Eh   |
          | GRADIENT NORM               0.000206159669 Eh/α |
          | HOMO-LUMO GAP               7.978975634833 eV   |
           -------------------------------------------------

 * finished run on 2024/12/20 at 07:14:04.619
