   * xtb version 6.7.1 (edcfbbe) compiled by 'conda@3ef47c1a292c' on 2024-11-25

   ID    Z sym.   atoms
    1    6 C      1-8, 10-12, 14-20
    2    7 N      9, 13
    3    1 H      21-47

          program call               : xtb C1182.xyz --opt --namespace C1182 --charge +1
          :  Hamiltonian                  GFN2-xTB          :
 * total energy  :   -57.8005126 Eh     change       -0.7237659E-09 Eh
 * total energy  :   -57.8060860 Eh     change       -0.5573425E-02 Eh
 * total energy  :   -57.8074334 Eh     change       -0.1347417E-02 Eh
 * total energy  :   -57.8078463 Eh     change       -0.4128772E-03 Eh
 * total energy  :   -57.8082804 Eh     change       -0.4340969E-03 Eh
 * total energy  :   -57.8084808 Eh     change       -0.2004136E-03 Eh
 * total energy  :   -57.8086294 Eh     change       -0.1485607E-03 Eh
 * total energy  :   -57.8087160 Eh     change       -0.8664561E-04 Eh
 * total energy  :   -57.8087626 Eh     change       -0.4654878E-04 Eh
 * total energy  :   -57.8088014 Eh     change       -0.3882805E-04 Eh
 * total energy  :   -57.8142882 Eh     change       -0.8172287E-05 Eh
 * total energy  :   -57.8142963 Eh     change       -0.8106812E-05 Eh
 * total energy  :   -57.8143026 Eh     change       -0.6346924E-05 Eh
 * total energy  :   -57.8143077 Eh     change       -0.5014719E-05 Eh
 * total energy  :   -57.8143127 Eh     change       -0.5036409E-05 Eh
 * total energy  :   -57.8143184 Eh     change       -0.5737104E-05 Eh
 * total energy  :   -57.8143246 Eh     change       -0.6131255E-05 Eh
 * total energy  :   -57.8143301 Eh     change       -0.5527277E-05 Eh
 * total energy  :   -57.8143348 Eh     change       -0.4696467E-05 Eh
   *** GEOMETRY OPTIMIZATION CONVERGED AFTER 112 ITERATIONS ***

 final structure:
================
47
 xtb: 6.7.1 (edcfbbe)
C            2.52184042077797        1.37293883403535        0.49421134232854
C            1.02368077120408        1.14663940241023        0.65818827171221
C            0.65620882474436        0.42511111065397        1.95582245420356
C            1.06205271976471        1.15398168463575        3.23800359462501
C            0.41100483016128        2.52450033781241        3.43907916978361
C           -1.09643361231493        2.42207311876140        3.65420544617934
C           -1.74604132635969        3.77087263012158        4.02147145847942
C           -1.71202496313984        4.75476235964374        2.91475277432620
N           -0.85737214943743        5.78200298572741        2.80224306119325
C            0.18089751816627        6.14421729517664        3.73254946626486
C           -1.15105704286214        6.47188294257233        1.66249410728295
C           -2.20473206429099        5.85024961345206        1.07526932830857
N           -2.54312226738472        4.78902352747504        1.86416007059520
C           -3.61070738315334        3.86071823360991        1.55952849001468
C           -3.12863646006956        2.65442508252938        0.77939608625062
C           -2.34830059757820        2.81321525994850       -0.35866918976745
C           -1.94527095171671        1.70794247026683       -1.08716774543277
C           -2.31902516004538        0.43670991308834       -0.68558948489827
C           -3.09525797644529        0.27274987889565        0.44886390313522
C           -3.49817758514067        1.37699675803393        1.18035583993555
H            2.90223674542114        2.07403394157358        1.23279494444687
H            2.73533511750457        1.77522130194024       -0.49298843151064
H            3.05944556896100        0.43451815545354        0.60236383212717
H            0.49634353973502        2.10231423165737        0.59668230661647
H            0.66828518855559        0.53484368592211       -0.17311648429919
H           -0.42014030230884        0.23858295287135        1.96037278308884
H            1.15145735085605       -0.54752480305627        1.95895655149972
H            0.80747019622609        0.52017738527782        4.09014976158297
H            2.14487466639503        1.28204218859423        3.24434099663889
H            0.86591057382182        2.98275799732362        4.32145998376226
H            0.62335690627191        3.15801953677338        2.57503459976544
H           -1.56891270177960        2.02220195794818        2.75793081467083
H           -1.28950128934653        1.72897578414616        4.47369104209246
H           -2.78728405307675        3.58919837388140        4.29782045555369
H           -1.23614195965586        4.18788347626023        4.89062061918140
H           -0.24704749085198        6.40158816651570        4.70245398322173
H            0.88550415260709        5.32333742897637        3.86118248747656
H            0.71419938528691        7.00985708093815        3.34689149083681
H           -0.60320201448932        7.33934268912773        1.35757857506120
H           -2.73768761612439        6.09333983267801        0.17924562294202
H           -4.08064133547213        3.53572359000936        2.49018376573779
H           -4.35525647086432        4.40212353560686        0.96825060467547
H           -2.05496830032486        3.80058339477110       -0.68542750899276
H           -1.34340513411610        1.84264474127103       -1.97226061769300
H           -2.00955727197909       -0.42368303376973       -1.25749777325386
H           -3.39151942773194       -0.71483298972563        0.76589715718576
H           -4.11152956839776        1.24375595819714        2.05979999305103

          :  Hamiltonian                  GFN2-xTB          :
         :: total energy             -57.814334791558 Eh    ::
         :: gradient norm              0.000256711964 Eh/a0 ::
         :: HOMO-LUMO gap              3.284541861164 eV    ::
         :: SCC energy               -58.759464235958 Eh    ::
         :: -> dispersion             -0.047213453679 Eh    ::
         :: repulsion energy           0.945129444400 Eh    ::

    * Orbital Energies and Occupations

         #    Occupation            Energy/Eh            Energy/eV
      -------------------------------------------------------------
         1        2.0000           -0.8793787             -23.9291
       ...           ...                  ...                  ...
        42        2.0000           -0.5743301             -15.6283
        43        2.0000           -0.5630634             -15.3217
        44        2.0000           -0.5606197             -15.2552
        45        2.0000           -0.5483824             -14.9222
        46        2.0000           -0.5413067             -14.7297
        47        2.0000           -0.5367138             -14.6047
        48        2.0000           -0.5358142             -14.5802
        49        2.0000           -0.5324688             -14.4892
        50        2.0000           -0.5187205             -14.1151
        51        2.0000           -0.5160906             -14.0435
        52        2.0000           -0.5124507             -13.9445
        53        2.0000           -0.5109501             -13.9037
        54        2.0000           -0.5096129             -13.8673 (HOMO)
        55                         -0.3889082             -10.5827 (LUMO)
        56                         -0.3557302              -9.6799
        57                         -0.3397348              -9.2447
        58                         -0.3350454              -9.1170
        59                         -0.2108174              -5.7366
        60                         -0.1712479              -4.6599
        61                         -0.1187566              -3.2315
        62                         -0.0666518              -1.8137
        63                         -0.0563338              -1.5329
        64                         -0.0439528              -1.1960
        65                         -0.0362295              -0.9859
       ...                                ...                  ...
       107                          0.5515218              15.0077
      -------------------------------------------------------------
                  HL-Gap            0.1207047 Eh            3.2845 eV

     #   Z          covCN         q      C6AA      α(0)
     1   6 C        3.751    -0.106    22.583     6.777
     2   6 C        3.799    -0.051    21.486     6.600
     3   6 C        3.801    -0.063    21.703     6.633
     4   6 C        3.801    -0.064    21.722     6.636
     5   6 C        3.800    -0.060    21.647     6.624
     6   6 C        3.802    -0.066    21.760     6.641
     7   6 C        3.803    -0.075    21.932     6.667
     8   6 C        3.099     0.102    25.619     8.295
     9   7 N        2.871     0.046    20.441     6.715
    10   6 C        3.692    -0.079    22.198     6.742
    11   6 C        3.047    -0.011    28.252     8.718
    12   6 C        3.050    -0.009    28.182     8.707
    13   7 N        2.872     0.041    20.518     6.728
    14   6 C        3.747    -0.022    21.042     6.543
    15   6 C        2.970    -0.000    28.035     8.685
    16   6 C        2.923    -0.037    28.921     8.819
    17   6 C        2.920    -0.021    28.530     8.759
    18   6 C        2.920    -0.020    28.515     8.757
    19   6 C        2.920    -0.022    28.556     8.763
    20   6 C        2.923    -0.036    28.898     8.816
    21   1 H        0.925     0.033     2.539     2.492
    22   1 H        0.925     0.038     2.477     2.461
    23   1 H        0.925     0.045     2.387     2.416
    24   1 H        0.924     0.014     2.826     2.629
    25   1 H        0.924     0.033     2.550     2.497
    26   1 H        0.924     0.025     2.663     2.552
    27   1 H        0.924     0.045     2.377     2.411
    28   1 H        0.924     0.040     2.449     2.448
    29   1 H        0.924     0.050     2.323     2.383
    30   1 H        0.924     0.032     2.556     2.500
    31   1 H        0.924     0.028     2.617     2.530
    32   1 H        0.925     0.055     2.263     2.353
    33   1 H        0.924     0.064     2.155     2.296
    34   1 H        0.924     0.078     2.004     2.214
    35   1 H        0.924     0.078     1.998     2.211
    36   1 H        0.924     0.093     1.854     2.129
    37   1 H        0.925     0.100     1.786     2.090
    38   1 H        0.925     0.100     1.788     2.091
    39   1 H        0.927     0.099     1.792     2.093
    40   1 H        0.926     0.099     1.792     2.093
    41   1 H        0.924     0.080     1.982     2.202
    42   1 H        0.924     0.086     1.914     2.164
    43   1 H        0.926     0.031     2.571     2.508
    44   1 H        0.926     0.053     2.277     2.360
    45   1 H        0.926     0.057     2.237     2.339
    46   1 H        0.926     0.056     2.248     2.344
    47   1 H        0.926     0.041     2.435     2.440

Wiberg/Mayer (AO) data.
largest (>0.10) Wiberg bond orders for each atom

     #   Z sym  total        # sym  WBO       # sym  WBO       # sym  WBO
 ---------------------------------------------------------------------------
     1   6 C    3.996 --     2 C    1.020    22 H    0.987    23 H    0.987
                            21 H    0.986
     2   6 C    3.998 --     1 C    1.020     3 C    1.007    25 H    0.977
                            24 H    0.975
     3   6 C    3.996 --     4 C    1.008     2 C    1.007    27 H    0.975
                            26 H    0.975
     4   6 C    3.994 --     3 C    1.008     5 C    1.004    28 H    0.976
                            29 H    0.973
     5   6 C    3.997 --     6 C    1.009     4 C    1.004    30 H    0.975
                            31 H    0.974
     6   6 C    3.984 --     5 C    1.009    33 H    0.971    32 H    0.967
                             7 C    0.966
     7   6 C    3.981 --     8 C    1.032     6 C    0.966    35 H    0.962
                            34 H    0.950
     8   6 C    3.945 --    13 N    1.326     9 N    1.320     7 C    1.032
     9   7 N    3.694 --     8 C    1.320    11 C    1.212    10 C    0.990
    10   6 C    3.938 --     9 N    0.990    38 H    0.975    36 H    0.964
                            37 H    0.963
    11   6 C    3.948 --    12 C    1.604     9 N    1.212    39 H    0.962
    12   6 C    3.950 --    11 C    1.604    13 N    1.211    40 H    0.961
    13   7 N    3.694 --     8 C    1.326    12 C    1.211    14 C    0.968
    14   6 C    3.940 --    15 C    0.978    13 N    0.968    41 H    0.958
                            42 H    0.956
    15   6 C    3.979 --    16 C    1.414    20 C    1.411    14 C    0.978
                            18 C    0.109
    16   6 C    3.992 --    17 C    1.443    15 C    1.414    43 H    0.967
                            19 C    0.111
    17   6 C    3.991 --    16 C    1.443    18 C    1.437    44 H    0.969
                            20 C    0.110
    18   6 C    3.989 --    19 C    1.440    17 C    1.437    45 H    0.969
                            15 C    0.109
    19   6 C    3.989 --    18 C    1.440    20 C    1.439    46 H    0.969
                            16 C    0.111
    20   6 C    3.990 --    19 C    1.439    15 C    1.411    47 H    0.968
                            17 C    0.110
    21   1 H    0.999 --     1 C    0.986
    22   1 H    0.999 --     1 C    0.987
    23   1 H    0.998 --     1 C    0.987
    24   1 H    1.000 --     2 C    0.975
    25   1 H    0.999 --     2 C    0.977
    26   1 H    0.999 --     3 C    0.975
    27   1 H    0.998 --     3 C    0.975
    28   1 H    0.998 --     4 C    0.976
    29   1 H    0.997 --     4 C    0.973
    30   1 H    0.999 --     5 C    0.975
    31   1 H    0.999 --     5 C    0.974
    32   1 H    0.997 --     6 C    0.967
    33   1 H    0.995 --     6 C    0.971
    34   1 H    0.994 --     7 C    0.950
    35   1 H    0.993 --     7 C    0.962
    36   1 H    0.991 --    10 C    0.964
    37   1 H    0.990 --    10 C    0.963
    38   1 H    0.990 --    10 C    0.975
    39   1 H    0.990 --    11 C    0.962
    40   1 H    0.990 --    12 C    0.961
    41   1 H    0.993 --    14 C    0.958
    42   1 H    0.992 --    14 C    0.956
    43   1 H    0.999 --    16 C    0.967
    44   1 H    0.997 --    17 C    0.969
    45   1 H    0.996 --    18 C    0.969
    46   1 H    0.996 --    19 C    0.969
    47   1 H    0.998 --    20 C    0.968
 ---------------------------------------------------------------------------

molecular dipole:
                 x           y           z       tot (Debye)
 q only:       -2.820       8.417       4.494
   full:       -2.944       8.613       4.499      25.808

           -------------------------------------------------
          | TOTAL ENERGY              -57.814334791558 Eh   |
          | GRADIENT NORM               0.000256711964 Eh/α |
          | HOMO-LUMO GAP               3.284541861164 eV   |
           -------------------------------------------------

 * finished run on 2024/12/20 at 07:13:59.568
