   * xtb version 6.7.1 (edcfbbe) compiled by 'conda@3ef47c1a292c' on 2024-11-25

   ID    Z sym.   atoms
    1    6 C      1-7, 9, 10, 12, 14-26
    2    7 N      8, 11
    3   16 S      13
    4    1 H      27-47

          program call               : xtb C1189.xyz --opt --namespace C1189 --charge +1
          :  Hamiltonian                  GFN2-xTB          :
 * total energy  :   -68.6522342 Eh     change       -0.4106511E-09 Eh
 * total energy  :   -68.6587094 Eh     change       -0.6475219E-02 Eh
 * total energy  :   -68.6599482 Eh     change       -0.1238862E-02 Eh
 * total energy  :   -68.6602563 Eh     change       -0.3081106E-03 Eh
 * total energy  :   -68.6604423 Eh     change       -0.1859524E-03 Eh
 * total energy  :   -68.6605045 Eh     change       -0.6221887E-04 Eh
 * total energy  :   -68.6605613 Eh     change       -0.5679109E-04 Eh
 * total energy  :   -68.6606136 Eh     change       -0.5233495E-04 Eh
 * total energy  :   -68.6606869 Eh     change       -0.7325626E-04 Eh
 * total energy  :   -68.6607381 Eh     change       -0.5122831E-04 Eh
 * total energy  :   -68.6622014 Eh     change       -0.1990183E-04 Eh
 * total energy  :   -68.6622166 Eh     change       -0.1522392E-04 Eh
 * total energy  :   -68.6622322 Eh     change       -0.1555496E-04 Eh
 * total energy  :   -68.6622503 Eh     change       -0.1809889E-04 Eh
 * total energy  :   -68.6622642 Eh     change       -0.1388645E-04 Eh
 * total energy  :   -68.6622727 Eh     change       -0.8573362E-05 Eh
 * total energy  :   -68.6622814 Eh     change       -0.8691328E-05 Eh
 * total energy  :   -68.6622865 Eh     change       -0.5098287E-05 Eh
 * total energy  :   -68.6622912 Eh     change       -0.4658325E-05 Eh
   *** GEOMETRY OPTIMIZATION CONVERGED AFTER 47 ITERATIONS ***

 final structure:
================
47
 xtb: 6.7.1 (edcfbbe)
C            1.11746944827696       -0.71566817148346        0.61529428143373
C            0.65737319460416        0.42460524675365        1.25188663765002
C           -0.54797740258690        0.99095577171383        0.87657835484545
C           -1.30812090909425        0.41154453124839       -0.13143216190055
C           -0.83974153787861       -0.72689595200969       -0.77269741686000
C            0.37106372275779       -1.28567118199173       -0.40196282425934
C           -2.62134434445813        1.02619938244227       -0.56257282254160
N           -3.36688745885455        1.57049131282018        0.55077792651877
C           -3.79527083337652        2.86427663186884        0.64537327887648
C           -4.36838785042087        3.02187398411507        1.86544295056843
N           -4.28913584422219        1.82366067669300        2.51162611482513
C           -3.68811892277837        0.94189365904945        1.69644013061793
S           -3.33009529373877       -0.69487031003769        2.16142493369446
C           -3.84329090236639       -1.60120209197434        0.70412768186944
C           -5.02250126594616       -1.27452920192604        0.05084901820355
C           -5.41392654802112       -2.03145435060159       -1.04044484335840
C           -4.64730709660372       -3.10877245894623       -1.45592810700603
C           -3.48320597286486       -3.43630982525863       -0.77962778260007
C           -3.07174887181152       -2.68019922924760        0.30486615869698
C           -4.87023673447003        1.54316928486364        3.81214832912965
C           -6.36095483484146        1.34073483756258        3.66005733259575
C           -7.24024058143982        2.39509120038940        3.86605376745755
C           -8.60060830285442        2.21152309521017        3.68777691592844
C           -9.08821271357962        0.97693666583351        3.29367850232038
C           -8.21446372272079       -0.07760434366988        3.08614819711259
C           -6.85460555194088        0.10259755829124        3.26771987043346
H            2.05830434559190       -1.15469411231870        0.90755619204793
H            1.23911338625367        0.87922575745893        2.03845936602039
H           -0.89162071412712        1.88923900246289        1.37103080818880
H           -1.42031287378858       -1.17161030842875       -1.56773402370397
H            0.72925582360495       -2.16814573579257       -0.90875400007477
H           -2.43450211140348        1.85146491017473       -1.25600078640506
H           -3.22988943406512        0.27736261336594       -1.08102357229057
H           -3.66053056455939        3.56677666631900       -0.15113231100326
H           -4.81695897089760        3.88314089314110        2.31513714120457
H           -5.63313367127721       -0.44963049015811        0.39022010120123
H           -6.32735430710601       -1.78188662347172       -1.55764241879186
H           -4.96335278586432       -3.69738271291785       -2.30263841062463
H           -2.89025268646979       -4.28035112077384       -1.09458346445394
H           -2.16686015458032       -2.92228283507612        0.83948618582232
H           -4.39525379474463        0.64782580303247        4.21629592058412
H           -4.66007970713716        2.38985542592616        4.46827980674487
H           -6.86578176809522        3.35750221292438        4.18345455266469
H           -9.27889689992570        3.03265351369587        3.85938876732087
H          -10.14849506988741        0.83464242532611        3.15537561267464
H           -8.59143842043532       -1.04386037457646        2.78835379799678
H           -6.17708248986053       -0.72621163205910        3.12112631061426

          :  Hamiltonian                  GFN2-xTB          :
         :: total energy             -68.662291179440 Eh    ::
         :: gradient norm              0.000509390461 Eh/a0 ::
         :: HOMO-LUMO gap              2.869857539497 eV    ::
         :: SCC energy               -69.869784728169 Eh    ::
         :: -> dispersion             -0.061086149202 Eh    ::
         :: repulsion energy           1.207493548729 Eh    ::

    * Orbital Energies and Occupations

         #    Occupation            Energy/Eh            Energy/eV
      -------------------------------------------------------------
         1        2.0000           -0.8776732             -23.8827
       ...           ...                  ...                  ...
        52        2.0000           -0.5477072             -14.9039
        53        2.0000           -0.5466517             -14.8751
        54        2.0000           -0.5409258             -14.7193
        55        2.0000           -0.5347969             -14.5526
        56        2.0000           -0.5322029             -14.4820
        57        2.0000           -0.5313610             -14.4591
        58        2.0000           -0.5291302             -14.3984
        59        2.0000           -0.5280391             -14.3687
        60        2.0000           -0.5142236             -13.9927
        61        2.0000           -0.5125599             -13.9475
        62        2.0000           -0.5120885             -13.9346
        63        2.0000           -0.5114944             -13.9185
        64        2.0000           -0.5049455             -13.7403 (HOMO)
        65                         -0.3994802             -10.8704 (LUMO)
        66                         -0.3637375              -9.8978
        67                         -0.3539558              -9.6316
        68                         -0.3488575              -9.4929
        69                         -0.3364809              -9.1561
        70                         -0.3352200              -9.1218
        71                         -0.3315064              -9.0207
        72                         -0.3303830              -8.9902
        73                         -0.3227409              -8.7822
        74                         -0.2800416              -7.6203
        75                         -0.2238845              -6.0922
       ...                                ...                  ...
       130                          0.5565964              15.1458
      -------------------------------------------------------------
                  HL-Gap            0.1054653 Eh            2.8699 eV

     #   Z          covCN         q      C6AA      α(0)
     1   6 C        2.920    -0.021    28.541     8.761
     2   6 C        2.920    -0.022    28.560     8.764
     3   6 C        2.922    -0.035    28.871     8.811
     4   6 C        2.971    -0.000    28.037     8.685
     5   6 C        2.923    -0.034    28.856     8.809
     6   6 C        2.920    -0.022    28.549     8.762
     7   6 C        3.746    -0.017    20.938     6.527
     8   7 N        2.872     0.028    20.761     6.767
     9   6 C        3.052    -0.007    28.156     8.702
    10   6 C        3.045    -0.006    28.119     8.697
    11   7 N        2.893     0.031    20.706     6.758
    12   6 C        3.099     0.126    25.132     8.216
    13  16 S        2.066    -0.062   143.613    20.170
    14   6 C        2.971     0.041    27.083     8.536
    15   6 C        2.948    -0.037    28.927     8.821
    16   6 C        2.922    -0.023    28.588     8.768
    17   6 C        2.919    -0.021    28.527     8.759
    18   6 C        2.922    -0.019    28.483     8.752
    19   6 C        2.963    -0.028    28.694     8.786
    20   6 C        3.747    -0.023    21.058     6.545
    21   6 C        2.973    -0.000    28.034     8.685
    22   6 C        2.923    -0.035    28.872     8.812
    23   6 C        2.919    -0.022    28.563     8.764
    24   6 C        2.920    -0.021    28.532     8.759
    25   6 C        2.919    -0.024    28.593     8.769
    26   6 C        2.923    -0.037    28.927     8.820
    27   1 H        0.926     0.057     2.229     2.335
    28   1 H        0.926     0.053     2.284     2.363
    29   1 H        0.925     0.025     2.656     2.549
    30   1 H        0.926     0.036     2.502     2.474
    31   1 H        0.926     0.054     2.267     2.355
    32   1 H        0.924     0.086     1.918     2.166
    33   1 H        0.924     0.076     2.018     2.222
    34   1 H        0.926     0.100     1.789     2.091
    35   1 H        0.927     0.103     1.756     2.072
    36   1 H        0.926     0.036     2.502     2.474
    37   1 H        0.926     0.059     2.208     2.324
    38   1 H        0.926     0.064     2.147     2.291
    39   1 H        0.926     0.065     2.144     2.290
    40   1 H        0.926     0.059     2.205     2.322
    41   1 H        0.924     0.089     1.885     2.147
    42   1 H        0.924     0.087     1.911     2.162
    43   1 H        0.926     0.040     2.445     2.445
    44   1 H        0.926     0.055     2.254     2.348
    45   1 H        0.926     0.056     2.241     2.341
    46   1 H        0.926     0.051     2.304     2.374
    47   1 H        0.926     0.039     2.461     2.453

Wiberg/Mayer (AO) data.
largest (>0.10) Wiberg bond orders for each atom

     #   Z sym  total        # sym  WBO       # sym  WBO       # sym  WBO
 ---------------------------------------------------------------------------
     1   6 C    3.990 --     6 C    1.440     2 C    1.438    27 H    0.969
                             4 C    0.109
     2   6 C    3.991 --     3 C    1.444     1 C    1.438    28 H    0.969
                             5 C    0.111
     3   6 C    3.992 --     2 C    1.444     4 C    1.414    29 H    0.970
                             6 C    0.111
     4   6 C    3.979 --     3 C    1.414     5 C    1.413     7 C    0.985
                             1 C    0.109
     5   6 C    3.991 --     6 C    1.441     4 C    1.413    30 H    0.968
                             2 C    0.111
     6   6 C    3.990 --     5 C    1.441     1 C    1.440    31 H    0.969
                             3 C    0.111
     7   6 C    3.939 --     4 C    0.985     8 N    0.969    32 H    0.955
                            33 H    0.949
     8   7 N    3.678 --    12 C    1.293     9 C    1.205     7 C    0.969
     9   6 C    3.946 --    10 C    1.601     8 N    1.205    34 H    0.961
    10   6 C    3.947 --     9 C    1.601    11 N    1.211    35 H    0.961
    11   7 N    3.683 --    12 C    1.303    10 C    1.211    20 C    0.955
    12   6 C    3.948 --    11 N    1.303     8 N    1.293    13 S    1.094
    13  16 S    2.359 --    12 C    1.094    14 C    0.962
    14   6 C    3.943 --    19 C    1.406    15 C    1.400    13 S    0.962
                            17 C    0.102
    15   6 C    3.990 --    16 C    1.440    14 C    1.400    36 H    0.967
                            18 C    0.109
    16   6 C    3.989 --    15 C    1.440    17 C    1.434    37 H    0.967
                            19 C    0.108
    17   6 C    3.987 --    18 C    1.439    16 C    1.434    38 H    0.968
                            14 C    0.102
    18   6 C    3.988 --    17 C    1.439    19 C    1.437    39 H    0.967
                            15 C    0.109
    19   6 C    3.988 --    18 C    1.437    14 C    1.406    40 H    0.966
                            16 C    0.108
    20   6 C    3.934 --    21 C    0.979    42 H    0.960    41 H    0.960
                            11 N    0.955
    21   6 C    3.979 --    22 C    1.417    26 C    1.412    20 C    0.979
                            24 C    0.109
    22   6 C    3.991 --    23 C    1.441    21 C    1.417    43 H    0.968
                            25 C    0.111
    23   6 C    3.990 --    22 C    1.441    24 C    1.440    44 H    0.969
                            26 C    0.112
    24   6 C    3.988 --    23 C    1.440    25 C    1.437    45 H    0.969
                            21 C    0.109
    25   6 C    3.991 --    26 C    1.445    24 C    1.437    46 H    0.969
                            22 C    0.111
    26   6 C    3.991 --    25 C    1.445    21 C    1.412    47 H    0.967
                            23 C    0.112
    27   1 H    0.996 --     1 C    0.969
    28   1 H    0.997 --     2 C    0.969
    29   1 H    0.999 --     3 C    0.970
    30   1 H    0.999 --     5 C    0.968
    31   1 H    0.997 --     6 C    0.969
    32   1 H    0.992 --     7 C    0.955
    33   1 H    0.994 --     7 C    0.949
    34   1 H    0.990 --     9 C    0.961
    35   1 H    0.989 --    10 C    0.961
    36   1 H    0.999 --    15 C    0.967
    37   1 H    0.996 --    16 C    0.967
    38   1 H    0.995 --    17 C    0.968
    39   1 H    0.995 --    18 C    0.967
    40   1 H    0.996 --    19 C    0.966
    41   1 H    0.991 --    20 C    0.960
    42   1 H    0.991 --    20 C    0.960
    43   1 H    0.998 --    22 C    0.968
    44   1 H    0.996 --    23 C    0.969
    45   1 H    0.996 --    24 C    0.969
    46   1 H    0.997 --    25 C    0.969
    47   1 H    0.998 --    26 C    0.967
 ---------------------------------------------------------------------------

molecular dipole:
                 x           y           z       tot (Debye)
 q only:       -7.556       1.507       2.095
   full:       -7.583       1.626       1.903      20.297

           -------------------------------------------------
          | TOTAL ENERGY              -68.662291179440 Eh   |
          | GRADIENT NORM               0.000509390461 Eh/α |
          | HOMO-LUMO GAP               2.869857539497 eV   |
           -------------------------------------------------

 * finished run on 2024/12/20 at 07:14:23.003
