   * xtb version 6.7.1 (edcfbbe) compiled by 'conda@3ef47c1a292c' on 2024-11-25

   ID    Z sym.   atoms
    1    6 C      1, 2, 4-8
    2   15 P      3
    3    1 H      9-26

          program call               : xtb C1181.xyz --opt --namespace C1181 --charge +1
          :  Hamiltonian                  GFN2-xTB          :
 * total energy  :   -26.2892317 Eh     change       -0.2269722E-09 Eh
 * total energy  :   -26.2935164 Eh     change       -0.4284766E-02 Eh
 * total energy  :   -26.2946341 Eh     change       -0.1117651E-02 Eh
 * total energy  :   -26.2947053 Eh     change       -0.7121658E-04 Eh
 * total energy  :   -26.2947162 Eh     change       -0.1086662E-04 Eh
 * total energy  :   -26.2947260 Eh     change       -0.9876289E-05 Eh
 * total energy  :   -26.2947358 Eh     change       -0.9735935E-05 Eh
 * total energy  :   -26.2947496 Eh     change       -0.1384390E-04 Eh
 * total energy  :   -26.2947538 Eh     change       -0.4172568E-05 Eh
   *** GEOMETRY OPTIMIZATION CONVERGED AFTER 9 ITERATIONS ***

 final structure:
================
26
 xtb: 6.7.1 (edcfbbe)
C            0.86040105239011        0.13430683553672       -0.00669304558326
C            0.47297594430019       -1.33968239650859        0.06098354376696
P            1.03671114545313       -2.14508400609993        1.59799555396832
C            0.44536968926001       -1.24724786175174        3.07229871918838
C           -1.07410828865284       -1.12566336575948        3.13299889329725
C            0.41728203450526       -3.86109931482580        1.64794403076593
C            0.98439341541293       -4.73282472294262        0.53137634462463
C            2.84613876873750       -2.14925517142354        1.64814858276005
H            0.40749350491686        0.70337485963577        0.80150975642693
H            0.51297643414671        0.55714039446793       -0.94592850554088
H            1.93940312244665        0.26232542274586        0.03631951619529
H           -0.61215442105247       -1.46020055344435       -0.00226600035406
H            0.92025162798772       -1.88741488621418       -0.77328394498552
H            0.82403376843696       -1.78280834702898        3.94815620431856
H            0.91218901708588       -0.25809195676355        3.06169141387666
H           -1.54830619509409       -2.10213345059984        3.19283667610078
H           -1.35752889208971       -0.56426927610518        4.01965167351574
H           -1.46579416311562       -0.59911310077328        2.26588602384486
H            0.68335704746642       -4.27118777180940        2.62718243072758
H           -0.67360265300163       -3.82420017859672        1.58244223875558
H            2.06797024082864       -4.79935951047081        0.59065556807760
H            0.58443772648491       -5.73954392800834        0.62153773606064
H            0.70786020665939       -4.35311030217784       -0.44914980506713
H            3.24478579868978       -2.53591077366609        0.71112369962072
H            3.21317352046609       -1.13515732045749        1.80028792668392
H            3.18744054733121       -2.77568931695850        2.47184476895454

          :  Hamiltonian                  GFN2-xTB          :
         :: total energy             -26.294753781107 Eh    ::
         :: gradient norm              0.000466071450 Eh/a0 ::
         :: HOMO-LUMO gap              8.095527866616 eV    ::
         :: SCC energy               -26.688106752281 Eh    ::
         :: -> dispersion             -0.018277984936 Eh    ::
         :: repulsion energy           0.393352971174 Eh    ::

    * Orbital Energies and Occupations

         #    Occupation            Energy/Eh            Energy/eV
      -------------------------------------------------------------
         1        2.0000           -0.8593525             -23.3842
       ...           ...                  ...                  ...
        13        2.0000           -0.6528410             -17.7647
        14        2.0000           -0.6472545             -17.6127
        15        2.0000           -0.6411450             -17.4464
        16        2.0000           -0.6373792             -17.3440
        17        2.0000           -0.6286079             -17.1053
        18        2.0000           -0.6234398             -16.9647
        19        2.0000           -0.6195397             -16.8585
        20        2.0000           -0.6038615             -16.4319
        21        2.0000           -0.5997640             -16.3204
        22        2.0000           -0.5936147             -16.1531
        23        2.0000           -0.5917679             -16.1028
        24        2.0000           -0.5823979             -15.8479
        25        2.0000           -0.5814616             -15.8224 (HOMO)
        26                         -0.2839564              -7.7268 (LUMO)
        27                         -0.2829478              -7.6994
        28                         -0.2758662              -7.5067
        29                         -0.1924062              -5.2356
        30                         -0.1170783              -3.1859
        31                         -0.0889648              -2.4209
        32                         -0.0416868              -1.1344
        33                         -0.0283478              -0.7714
        34                         -0.0259234              -0.7054
        35                         -0.0202722              -0.5516
        36                         -0.0076393              -0.2079
       ...                                ...                  ...
        55                          0.7562012              20.5773
      -------------------------------------------------------------
                  HL-Gap            0.2975052 Eh            8.0955 eV

     #   Z          covCN         q      C6AA      α(0)
     1   6 C        3.824    -0.119    22.752     6.788
     2   6 C        3.749    -0.068    21.869     6.670
     3  15 P        3.941     0.186   152.214    22.162
     4   6 C        3.749    -0.071    21.925     6.678
     5   6 C        3.819    -0.118    22.750     6.788
     6   6 C        3.749    -0.071    21.923     6.678
     7   6 C        3.820    -0.120    22.771     6.791
     8   6 C        3.700    -0.137    23.307     6.904
     9   1 H        0.925     0.065     2.146     2.291
    10   1 H        0.925     0.080     1.984     2.203
    11   1 H        0.925     0.064     2.156     2.296
    12   1 H        0.926     0.095     1.834     2.118
    13   1 H        0.927     0.095     1.833     2.117
    14   1 H        0.927     0.093     1.848     2.126
    15   1 H        0.927     0.095     1.829     2.115
    16   1 H        0.925     0.063     2.164     2.301
    17   1 H        0.925     0.080     1.981     2.201
    18   1 H        0.925     0.065     2.142     2.289
    19   1 H        0.927     0.094     1.844     2.123
    20   1 H        0.926     0.095     1.833     2.117
    21   1 H        0.925     0.065     2.143     2.289
    22   1 H        0.925     0.081     1.972     2.196
    23   1 H        0.925     0.063     2.164     2.300
    24   1 H        0.926     0.110     1.693     2.035
    25   1 H        0.927     0.109     1.709     2.044
    26   1 H        0.927     0.108     1.712     2.046

Wiberg/Mayer (AO) data.
largest (>0.10) Wiberg bond orders for each atom

     #   Z sym  total        # sym  WBO       # sym  WBO       # sym  WBO
 ---------------------------------------------------------------------------
     1   6 C    3.984 --     2 C    1.000    11 H    0.979     9 H    0.979
                            10 H    0.977
     2   6 C    3.988 --     3 P    1.009     1 C    1.000    12 H    0.935
                            13 H    0.933
     3  15 P    4.595 --     8 C    1.058     4 C    1.010     6 C    1.010
                             2 C    1.009
     4   6 C    3.988 --     3 P    1.010     5 C    1.002    14 H    0.934
                            15 H    0.934
     5   6 C    3.984 --     4 C    1.002    16 H    0.980    18 H    0.978
                            17 H    0.977
     6   6 C    3.988 --     3 P    1.010     7 C    1.000    20 H    0.935
                            19 H    0.934
     7   6 C    3.984 --     6 C    1.000    23 H    0.979    21 H    0.979
                            22 H    0.977
     8   6 C    3.987 --     3 P    1.058    26 H    0.940    24 H    0.940
                            25 H    0.940
     9   1 H    0.996 --     1 C    0.979
    10   1 H    0.993 --     1 C    0.977
    11   1 H    0.996 --     1 C    0.979
    12   1 H    0.991 --     2 C    0.935
    13   1 H    0.991 --     2 C    0.933
    14   1 H    0.991 --     4 C    0.934
    15   1 H    0.991 --     4 C    0.934
    16   1 H    0.996 --     5 C    0.980
    17   1 H    0.993 --     5 C    0.977
    18   1 H    0.996 --     5 C    0.978
    19   1 H    0.991 --     6 C    0.934
    20   1 H    0.991 --     6 C    0.935
    21   1 H    0.996 --     7 C    0.979
    22   1 H    0.993 --     7 C    0.977
    23   1 H    0.996 --     7 C    0.979
    24   1 H    0.987 --     8 C    0.940
    25   1 H    0.988 --     8 C    0.940
    26   1 H    0.988 --     8 C    0.940
 ---------------------------------------------------------------------------

molecular dipole:
                 x           y           z       tot (Debye)
 q only:        1.848      -3.969       2.892
   full:        1.883      -3.997       2.933      13.480

           -------------------------------------------------
          | TOTAL ENERGY              -26.294753781107 Eh   |
          | GRADIENT NORM               0.000466071450 Eh/α |
          | HOMO-LUMO GAP               8.095527866616 eV   |
           -------------------------------------------------

 * finished run on 2024/12/20 at 07:13:56.076
