   * xtb version 6.7.1 (edcfbbe) compiled by 'conda@3ef47c1a292c' on 2024-11-25

   ID    Z sym.   atoms
    1    6 C      1-8, 10-16
    2    7 N      9
    3    1 H      17-42

          program call               : xtb C1180.xyz --opt --namespace C1180 --charge +1
          :  Hamiltonian                  GFN2-xTB          :
 * total energy  :   -47.9230614 Eh     change       -0.7821654E-10 Eh
 * total energy  :   -47.9260623 Eh     change       -0.3000848E-02 Eh
 * total energy  :   -47.9266064 Eh     change       -0.5441117E-03 Eh
 * total energy  :   -47.9266881 Eh     change       -0.8172723E-04 Eh
 * total energy  :   -47.9267550 Eh     change       -0.6684640E-04 Eh
 * total energy  :   -47.9267857 Eh     change       -0.3074386E-04 Eh
 * total energy  :   -47.9268213 Eh     change       -0.3562498E-04 Eh
 * total energy  :   -47.9268574 Eh     change       -0.3605745E-04 Eh
 * total energy  :   -47.9269084 Eh     change       -0.5101549E-04 Eh
 * total energy  :   -47.9269510 Eh     change       -0.4264044E-04 Eh
 * total energy  :   -47.9275765 Eh     change       -0.1130226E-04 Eh
 * total energy  :   -47.9275828 Eh     change       -0.6313949E-05 Eh
 * total energy  :   -47.9275910 Eh     change       -0.8170969E-05 Eh
 * total energy  :   -47.9275997 Eh     change       -0.8641800E-05 Eh
 * total energy  :   -47.9276059 Eh     change       -0.6211812E-05 Eh
 * total energy  :   -47.9276117 Eh     change       -0.5816600E-05 Eh
 * total energy  :   -47.9276181 Eh     change       -0.6450106E-05 Eh
 * total energy  :   -47.9276240 Eh     change       -0.5831391E-05 Eh
 * total energy  :   -47.9276283 Eh     change       -0.4357800E-05 Eh
   *** GEOMETRY OPTIMIZATION CONVERGED AFTER 33 ITERATIONS ***

 final structure:
================
42
 xtb: 6.7.1 (edcfbbe)
C            1.55405191363808        0.12751654456051       -0.15217266636637
C            0.95967200960597       -0.94484021412768        0.75303586643753
C            1.30156667395312       -0.74576070443249        2.23075839726531
C            0.79254582179058        0.56227502300179        2.84059484335946
C           -0.72004487019044        0.77686093513215        2.74398565147362
C           -1.57047920915817       -0.33189364878532        3.36969051408992
C           -1.33371396018715       -0.56183074294386        4.86205760663301
C           -1.76394744531745        0.61467148733185        5.75011231433374
N           -3.20364487250382        0.79016555868618        5.70509738141197
C           -3.98767672036218        0.00994639875018        6.46150348786006
C           -5.35744183103383        0.09561057473047        6.40013776237951
C           -5.96791629098818        1.00911858332067        5.53452999353468
C           -5.12111989778869        1.79926792797525        4.75287714336347
C           -3.75595647502419        1.66764698840465        4.85855063493810
C           -7.44627320694280        1.09526575589720        5.40972629958384
C           -7.92232487289289        0.15191800323525        4.29428542064734
H            1.10451106307218        1.09977937188718        0.03461288359669
H            1.38286161374264       -0.12660258783594       -1.19517879830628
H            2.62672551713944        0.20705559366549        0.00720122516935
H           -0.12345651672212       -0.97730931948100        0.61745592250990
H            1.35112857952685       -1.91754753774399        0.44801036750473
H            0.91329356064701       -1.59394168960264        2.79962813268049
H            2.38820803137793       -0.75948187418701        2.33792468612748
H            1.10535261830569        0.60009989272752        3.88711008784587
H            1.27944263133546        1.39849998287135        2.33749852059388
H           -0.95453263832479        1.74193714300293        3.20226907699758
H           -0.99895842353932        0.85395732174450        1.69269164198090
H           -2.62847308248772       -0.11242077578305        3.19216377891722
H           -1.35334806863243       -1.26671037251121        2.85336805536837
H           -1.87344927605863       -1.45819763603828        5.17605003253748
H           -0.27354657840953       -0.73742536346636        5.03839105217580
H           -1.46611306315584        0.42163573652874        6.78256993166301
H           -1.28067081547494        1.53186049510202        5.41321159564577
H           -3.49449339739953       -0.68380475286727        7.12631163977659
H           -5.95743969558949       -0.54311257431410        7.02900763078090
H           -5.53131754790466        2.52200177554215        4.06515710328550
H           -3.08617483771817        2.27624095235441        4.26973847077495
H           -7.92107116334426        0.80556576355038        6.34743620258754
H           -7.74337456618158        2.11487061451347        5.16226017526556
H           -7.64898204376456       -0.87655235519401        4.51656380702873
H           -9.00300854096793        0.21086444780421        4.20904042182768
H           -7.48442012606440        0.43149927699057        3.33926570473446

          :  Hamiltonian                  GFN2-xTB          :
         :: total energy             -47.927628330572 Eh    ::
         :: gradient norm              0.000449129362 Eh/a0 ::
         :: HOMO-LUMO gap              1.456799099946 eV    ::
         :: SCC energy               -48.695964500936 Eh    ::
         :: -> dispersion             -0.034085790967 Eh    ::
         :: repulsion energy           0.768336170363 Eh    ::

    * Orbital Energies and Occupations

         #    Occupation            Energy/Eh            Energy/eV
      -------------------------------------------------------------
         1        2.0000           -0.8676749             -23.6106
       ...           ...                  ...                  ...
        33        2.0000           -0.5832093             -15.8699
        34        2.0000           -0.5746469             -15.6369
        35        2.0000           -0.5732955             -15.6002
        36        2.0000           -0.5689355             -15.4815
        37        2.0000           -0.5664657             -15.4143
        38        2.0000           -0.5579328             -15.1821
        39        2.0000           -0.5538851             -15.0720
        40        2.0000           -0.5380075             -14.6399
        41        2.0000           -0.5312922             -14.4572
        42        2.0000           -0.5264139             -14.3245
        43        2.0000           -0.5050787             -13.7439
        44        2.0000           -0.5014119             -13.6441
        45        2.0000           -0.4971104             -13.5271 (HOMO)
        46                         -0.4435740             -12.0703 (LUMO)
        47                         -0.4153542             -11.3024
        48                         -0.2973239              -8.0906
        49                         -0.1595469              -4.3415
        50                         -0.0770191              -2.0958
        51                         -0.0593355              -1.6146
        52                         -0.0449939              -1.2243
        53                         -0.0326948              -0.8897
        54                         -0.0260986              -0.7102
        55                         -0.0197141              -0.5364
        56                         -0.0105094              -0.2860
       ...                                ...                  ...
        90                          0.4477894              12.1850
      -------------------------------------------------------------
                  HL-Gap            0.0535364 Eh            1.4568 eV

     #   Z          covCN         q      C6AA      α(0)
     1   6 C        3.751    -0.105    22.572     6.775
     2   6 C        3.799    -0.054    21.551     6.610
     3   6 C        3.800    -0.061    21.680     6.629
     4   6 C        3.800    -0.062    21.692     6.631
     5   6 C        3.800    -0.061    21.671     6.628
     6   6 C        3.800    -0.065    21.748     6.640
     7   6 C        3.801    -0.069    21.813     6.650
     8   6 C        3.758    -0.033    21.220     6.567
     9   7 N        2.750     0.100    19.519     6.562
    10   6 C        2.891     0.029    27.344     8.573
    11   6 C        2.920    -0.026    28.640     8.776
    12   6 C        2.976     0.066    26.517     8.447
    13   6 C        2.921    -0.026    28.659     8.779
    14   6 C        2.889     0.031    27.305     8.567
    15   6 C        3.807    -0.069    21.816     6.649
    16   6 C        3.755    -0.107    22.605     6.779
    17   1 H        0.925     0.033     2.549     2.497
    18   1 H        0.925     0.039     2.459     2.452
    19   1 H        0.925     0.040     2.445     2.445
    20   1 H        0.924     0.027     2.632     2.537
    21   1 H        0.924     0.036     2.503     2.474
    22   1 H        0.924     0.026     2.643     2.542
    23   1 H        0.924     0.041     2.434     2.440
    24   1 H        0.924     0.026     2.649     2.545
    25   1 H        0.924     0.047     2.355     2.400
    26   1 H        0.924     0.017     2.783     2.609
    27   1 H        0.924     0.050     2.315     2.379
    28   1 H        0.924     0.021     2.717     2.578
    29   1 H        0.925     0.065     2.145     2.290
    30   1 H        0.924     0.049     2.334     2.389
    31   1 H        0.925     0.082     1.960     2.190
    32   1 H        0.924     0.085     1.931     2.173
    33   1 H        0.925     0.092     1.855     2.130
    34   1 H        0.926     0.102     1.767     2.079
    35   1 H        0.926     0.099     1.795     2.095
    36   1 H        0.926     0.099     1.797     2.096
    37   1 H        0.926     0.105     1.744     2.065
    38   1 H        0.924     0.075     2.032     2.229
    39   1 H        0.924     0.076     2.019     2.222
    40   1 H        0.925     0.053     2.281     2.362
    41   1 H        0.925     0.075     2.033     2.230
    42   1 H        0.925     0.053     2.280     2.361

Wiberg/Mayer (AO) data.
largest (>0.10) Wiberg bond orders for each atom

     #   Z sym  total        # sym  WBO       # sym  WBO       # sym  WBO
 ---------------------------------------------------------------------------
     1   6 C    3.996 --     2 C    1.020    19 H    0.987    18 H    0.987
                            17 H    0.986
     2   6 C    3.998 --     1 C    1.020     3 C    1.008    21 H    0.978
                            20 H    0.976
     3   6 C    3.996 --     2 C    1.008     4 C    1.007    23 H    0.976
                            22 H    0.976
     4   6 C    3.996 --     3 C    1.007     5 C    1.007    24 H    0.975
                            25 H    0.974
     5   6 C    3.995 --     4 C    1.007     6 C    1.007    26 H    0.973
                            27 H    0.973
     6   6 C    3.993 --     7 C    1.009     5 C    1.007    28 H    0.973
                            29 H    0.967
     7   6 C    3.981 --     6 C    1.009     8 C    0.975    30 H    0.974
                            31 H    0.961
     8   6 C    3.935 --     7 C    0.975     9 N    0.965    32 H    0.963
                            33 H    0.961
     9   7 N    3.755 --    14 C    1.313    10 C    1.309     8 C    0.965
    10   6 C    3.960 --    11 C    1.494     9 N    1.309    34 H    0.955
    11   6 C    3.984 --    10 C    1.494    12 C    1.362    35 H    0.959
    12   6 C    3.966 --    13 C    1.371    11 C    1.362    15 C    1.041
    13   6 C    3.984 --    14 C    1.483    12 C    1.371    36 H    0.959
    14   6 C    3.958 --    13 C    1.483     9 N    1.313    37 H    0.953
    15   6 C    3.987 --    12 C    1.041    16 C    0.970    38 H    0.965
                            39 H    0.963
    16   6 C    3.984 --    40 H    0.987    42 H    0.987    41 H    0.978
                            15 C    0.970
    17   1 H    0.999 --     1 C    0.986
    18   1 H    0.998 --     1 C    0.987
    19   1 H    0.998 --     1 C    0.987
    20   1 H    0.999 --     2 C    0.976
    21   1 H    0.999 --     2 C    0.978
    22   1 H    0.999 --     3 C    0.976
    23   1 H    0.998 --     3 C    0.976
    24   1 H    0.999 --     4 C    0.975
    25   1 H    0.998 --     4 C    0.974
    26   1 H    1.000 --     5 C    0.973
    27   1 H    0.997 --     5 C    0.973
    28   1 H    1.000 --     6 C    0.973
    29   1 H    0.995 --     6 C    0.967
    30   1 H    0.998 --     7 C    0.974
    31   1 H    0.992 --     7 C    0.961
    32   1 H    0.992 --     8 C    0.963
    33   1 H    0.991 --     8 C    0.961
    34   1 H    0.989 --    10 C    0.955
    35   1 H    0.990 --    11 C    0.959
    36   1 H    0.990 --    13 C    0.959
    37   1 H    0.989 --    14 C    0.953
    38   1 H    0.994 --    15 C    0.965
    39   1 H    0.994 --    15 C    0.963
    40   1 H    0.997 --    16 C    0.987
    41   1 H    0.992 --    16 C    0.978
    42   1 H    0.997 --    16 C    0.987
 ---------------------------------------------------------------------------

molecular dipole:
                 x           y           z       tot (Debye)
 q only:       -7.467       1.248       9.966
   full:       -7.428       1.288      10.084      32.001

           -------------------------------------------------
          | TOTAL ENERGY              -47.927628330572 Eh   |
          | GRADIENT NORM               0.000449129362 Eh/α |
          | HOMO-LUMO GAP               1.456799099946 eV   |
           -------------------------------------------------

 * finished run on 2024/12/20 at 07:13:55.642
