   * xtb version 6.7.1 (edcfbbe) compiled by 'conda@3ef47c1a292c' on 2024-11-25

   ID    Z sym.   atoms
    1    6 C      1-4, 6, 7, 9-13
    2    8 O      5
    3    7 N      8
    4    1 H      14-39

          program call               : xtb C1198.xyz --opt --namespace C1198 --charge +1
          :  Hamiltonian                  GFN2-xTB          :
 * total energy  :   -43.3852702 Eh     change       -0.5003642E-10 Eh
 * total energy  :   -43.3928823 Eh     change       -0.7612078E-02 Eh
 * total energy  :   -43.3949402 Eh     change       -0.2057914E-02 Eh
 * total energy  :   -43.3952844 Eh     change       -0.3441595E-03 Eh
 * total energy  :   -43.3958809 Eh     change       -0.5965752E-03 Eh
 * total energy  :   -43.3963167 Eh     change       -0.4357149E-03 Eh
 * total energy  :   -43.3969499 Eh     change       -0.6332271E-03 Eh
 * total energy  :   -43.3976745 Eh     change       -0.7245925E-03 Eh
 * total energy  :   -43.3983017 Eh     change       -0.6272550E-03 Eh
 * total energy  :   -43.3988371 Eh     change       -0.5354031E-03 Eh
 * total energy  :   -43.4095438 Eh     change       -0.2174806E-04 Eh
 * total energy  :   -43.4095643 Eh     change       -0.2049771E-04 Eh
 * total energy  :   -43.4095853 Eh     change       -0.2098967E-04 Eh
 * total energy  :   -43.4096072 Eh     change       -0.2185545E-04 Eh
 * total energy  :   -43.4096283 Eh     change       -0.2107848E-04 Eh
 * total energy  :   -43.4096474 Eh     change       -0.1914944E-04 Eh
 * total energy  :   -43.4096621 Eh     change       -0.1470872E-04 Eh
 * total energy  :   -43.4096715 Eh     change       -0.9399603E-05 Eh
 * total energy  :   -43.4096762 Eh     change       -0.4644577E-05 Eh
   *** GEOMETRY OPTIMIZATION CONVERGED AFTER 86 ITERATIONS ***

 final structure:
================
39
 xtb: 6.7.1 (edcfbbe)
C            2.41511003915764        2.75331010876119       -1.47216035345368
C            1.85849807526192        2.15738218161262       -2.76058446049217
C            1.51118288421271        0.67358934327168       -2.63730320822688
C            0.29411211951308        0.42946530079942       -1.74979093103870
O            0.02442771114429       -0.97228045132039       -1.76400232567491
C           -0.98608401830456       -1.47120962445318       -0.92014971237073
C           -0.51969857167120       -1.61777593010546        0.55290498962765
N            0.67786670623196       -2.47895571773819        0.79670904909865
C            1.90541475971962       -1.81723691047305        0.31550999386300
C            0.79402211093212       -2.70329373144099        2.25129691297696
C            0.54476587991792       -3.78310717305075        0.12192776966173
C           -2.30346378476010       -0.67788829948976       -0.94200324414225
C           -2.93881690386209       -0.70223749649282       -2.32866818906182
H            1.67266223609640        2.75017550522097       -0.67718953571859
H            2.71638862638970        3.78334444738830       -1.64036773402405
H            3.28807379613849        2.19561823628484       -1.13857422631002
H            0.97146709393734        2.71403868637318       -3.06780050422313
H            2.60561045903538        2.26712105512366       -3.54754620160585
H            1.28898307570380        0.26536234888934       -3.62411479243564
H            2.37302594919234        0.13177720282146       -2.24100209198187
H            0.48764837243405        0.77137695167369       -0.72542801210645
H           -0.55708408695458        0.98928911730856       -2.14864653800074
H           -1.20068237118928       -2.46401229311492       -1.33196575275348
H           -0.30221164997134       -0.62682357876045        0.95673682323171
H           -1.35265760030292       -2.04081747035884        1.11668403670915
H            2.07037742492971       -0.88850398043770        0.85873679844810
H            2.76340773068696       -2.46908317045267        0.46827098261915
H            1.80247811714922       -1.59776724310441       -0.74653092040738
H           -0.05704002053443       -3.27479544944154        2.61716912139207
H            1.70528857009692       -3.25642504665753        2.47225183616503
H            0.82949536972888       -1.75217518253831        2.77967844254495
H           -0.40920719891146       -4.24307335814293        0.37339054565406
H            0.61075602608881       -3.65500084374664       -0.95623081725210
H            1.34761807342914       -4.44553373502950        0.44126903436439
H           -2.99198455221962       -1.12866096846500       -0.22574266526492
H           -2.12500969978954        0.35060111023645       -0.62596532713447
H           -3.24540240266565       -1.71195857593853       -2.58879780573970
H           -3.81554042824210       -0.06196966282945       -2.34791353954291
H           -2.24000791773505       -0.35551570219954       -3.08455744738884

          :  Hamiltonian                  GFN2-xTB          :
         :: total energy             -43.409676164989 Eh    ::
         :: gradient norm              0.000483582736 Eh/a0 ::
         :: HOMO-LUMO gap              7.890519329908 eV    ::
         :: SCC energy               -43.978546807495 Eh    ::
         :: -> dispersion             -0.028674740804 Eh    ::
         :: repulsion energy           0.568870642507 Eh    ::

    * Orbital Energies and Occupations

         #    Occupation            Energy/Eh            Energy/eV
      -------------------------------------------------------------
         1        2.0000           -0.8662475             -23.5718
       ...           ...                  ...                  ...
        28        2.0000           -0.6077943             -16.5389
        29        2.0000           -0.6001508             -16.3309
        30        2.0000           -0.5906243             -16.0717
        31        2.0000           -0.5798885             -15.7796
        32        2.0000           -0.5770857             -15.7033
        33        2.0000           -0.5744193             -15.6307
        34        2.0000           -0.5615050             -15.2793
        35        2.0000           -0.5540013             -15.0751
        36        2.0000           -0.5499609             -14.9652
        37        2.0000           -0.5346129             -14.5476
        38        2.0000           -0.5298851             -14.4189
        39        2.0000           -0.5226564             -14.2222
        40        2.0000           -0.5193869             -14.1332 (HOMO)
        41                         -0.2294157              -6.2427 (LUMO)
        42                         -0.1625486              -4.4232
        43                         -0.1485467              -4.0422
        44                         -0.1431297              -3.8948
        45                         -0.1234938              -3.3604
        46                         -0.0726327              -1.9764
        47                         -0.0607244              -1.6524
        48                         -0.0542028              -1.4749
        49                         -0.0243969              -0.6639
        50                         -0.0083854              -0.2282
        51                         -0.0040003              -0.1089
       ...                                ...                  ...
        78                          0.2064983               5.6191
      -------------------------------------------------------------
                  HL-Gap            0.2899712 Eh            7.8905 eV

     #   Z          covCN         q      C6AA      α(0)
     1   6 C        3.751    -0.109    22.636     6.785
     2   6 C        3.801    -0.062    21.683     6.630
     3   6 C        3.801    -0.067    21.792     6.646
     4   6 C        3.683     0.075    19.520     6.326
     5   8 O        1.699    -0.328    19.496     5.961
     6   6 C        3.733     0.102    18.985     6.219
     7   6 C        3.761    -0.053    21.576     6.622
     8   7 N        3.622     0.148    18.742     6.430
     9   6 C        3.722    -0.101    22.546     6.781
    10   6 C        3.728    -0.098    22.472     6.768
    11   6 C        3.722    -0.100    22.520     6.777
    12   6 C        3.801    -0.071    21.849     6.655
    13   6 C        3.752    -0.111    22.690     6.793
    14   1 H        0.925     0.028     2.608     2.526
    15   1 H        0.925     0.051     2.305     2.374
    16   1 H        0.925     0.037     2.488     2.467
    17   1 H        0.924     0.042     2.421     2.433
    18   1 H        0.924     0.051     2.303     2.373
    19   1 H        0.924     0.057     2.236     2.339
    20   1 H        0.924     0.040     2.450     2.448
    21   1 H        0.924     0.017     2.777     2.606
    22   1 H        0.924     0.045     2.387     2.416
    23   1 H        0.924     0.064     2.152     2.294
    24   1 H        0.924     0.084     1.939     2.177
    25   1 H        0.924     0.082     1.958     2.188
    26   1 H        0.925     0.093     1.854     2.129
    27   1 H        0.925     0.093     1.853     2.129
    28   1 H        0.925     0.128     1.552     1.948
    29   1 H        0.925     0.098     1.808     2.102
    30   1 H        0.925     0.101     1.774     2.083
    31   1 H        0.925     0.098     1.805     2.101
    32   1 H        0.925     0.097     1.816     2.108
    33   1 H        0.925     0.112     1.684     2.029
    34   1 H        0.925     0.100     1.784     2.089
    35   1 H        0.924     0.044     2.396     2.421
    36   1 H        0.924     0.049     2.331     2.388
    37   1 H        0.925     0.049     2.334     2.389
    38   1 H        0.925     0.059     2.211     2.325
    39   1 H        0.925     0.057     2.236     2.339

Wiberg/Mayer (AO) data.
largest (>0.10) Wiberg bond orders for each atom

     #   Z sym  total        # sym  WBO       # sym  WBO       # sym  WBO
 ---------------------------------------------------------------------------
     1   6 C    3.996 --     2 C    1.020    16 H    0.987    14 H    0.987
                            15 H    0.986
     2   6 C    3.994 --     1 C    1.020     3 C    1.005    17 H    0.977
                            18 H    0.976
     3   6 C    3.992 --     2 C    1.005     4 C    1.002    19 H    0.975
                            20 H    0.974
     4   6 C    3.940 --     3 C    1.002    21 H    0.967    22 H    0.967
                             5 O    0.956
     5   8 O    2.088 --     6 C    0.995     4 C    0.956
     6   6 C    3.953 --     5 O    0.995    12 C    0.978     7 C    0.970
                            23 H    0.952
     7   6 C    3.930 --     6 C    0.970    25 H    0.968    24 H    0.965
                             8 N    0.930
     8   7 N    3.817 --    10 C    0.958    11 C    0.957     9 C    0.953
                             7 C    0.930
     9   6 C    3.917 --    26 H    0.976    27 H    0.976    28 H    0.957
                             8 N    0.953
    10   6 C    3.929 --    31 H    0.976    29 H    0.975    30 H    0.974
                             8 N    0.958
    11   6 C    3.925 --    32 H    0.976    34 H    0.974    33 H    0.971
                             8 N    0.957
    12   6 C    3.991 --    13 C    1.017     6 C    0.978    35 H    0.974
                            36 H    0.974
    13   6 C    3.990 --    12 C    1.017    37 H    0.987    38 H    0.984
                            39 H    0.984
    14   1 H    0.999 --     1 C    0.987
    15   1 H    0.997 --     1 C    0.986
    16   1 H    0.999 --     1 C    0.987
    17   1 H    0.998 --     2 C    0.977
    18   1 H    0.997 --     2 C    0.976
    19   1 H    0.997 --     3 C    0.975
    20   1 H    0.998 --     3 C    0.974
    21   1 H    1.000 --     4 C    0.967
    22   1 H    0.998 --     4 C    0.967
    23   1 H    0.995 --     6 C    0.952
    24   1 H    0.993 --     7 C    0.965
    25   1 H    0.993 --     7 C    0.968
    26   1 H    0.991 --     9 C    0.976
    27   1 H    0.991 --     9 C    0.976
    28   1 H    0.984 --     9 C    0.957
    29   1 H    0.990 --    10 C    0.975
    30   1 H    0.989 --    10 C    0.974
    31   1 H    0.990 --    10 C    0.976
    32   1 H    0.991 --    11 C    0.976
    33   1 H    0.988 --    11 C    0.971
    34   1 H    0.990 --    11 C    0.974
    35   1 H    0.998 --    12 C    0.974
    36   1 H    0.998 --    12 C    0.974
    37   1 H    0.998 --    13 C    0.987
    38   1 H    0.996 --    13 C    0.984
    39   1 H    0.997 --    13 C    0.984
 ---------------------------------------------------------------------------

molecular dipole:
                 x           y           z       tot (Debye)
 q only:        0.930      -3.890       1.009
   full:        0.839      -3.850       1.274      10.526

           -------------------------------------------------
          | TOTAL ENERGY              -43.409676164989 Eh   |
          | GRADIENT NORM               0.000483582736 Eh/α |
          | HOMO-LUMO GAP               7.890519329908 eV   |
           -------------------------------------------------

 * finished run on 2024/12/20 at 07:14:42.070
