   * xtb version 6.7.1 (edcfbbe) compiled by 'conda@3ef47c1a292c' on 2024-11-25

   ID    Z sym.   atoms
    1    6 C      1, 2, 4, 5, 7-11
    2    7 N      3, 6
    3    1 H      12-28

          program call               : xtb C1195.xyz --opt --namespace C1195 --charge +1
          :  Hamiltonian                  GFN2-xTB          :
 * total energy  :   -33.4341248 Eh     change       -0.3751033E-08 Eh
 * total energy  :   -33.4379516 Eh     change       -0.3826786E-02 Eh
 * total energy  :   -33.4385864 Eh     change       -0.6348943E-03 Eh
 * total energy  :   -33.4387022 Eh     change       -0.1157865E-03 Eh
 * total energy  :   -33.4387724 Eh     change       -0.7015425E-04 Eh
 * total energy  :   -33.4387890 Eh     change       -0.1663483E-04 Eh
 * total energy  :   -33.4388018 Eh     change       -0.1275321E-04 Eh
 * total energy  :   -33.4388075 Eh     change       -0.5683644E-05 Eh
 * total energy  :   -33.4388092 Eh     change       -0.1734727E-05 Eh
   *** GEOMETRY OPTIMIZATION CONVERGED AFTER 9 ITERATIONS ***

 final structure:
================
28
 xtb: 6.7.1 (edcfbbe)
C            1.20881920588190       -0.12152982022932       -0.08888775708343
C            0.47621031447075       -1.43051547634199        0.17514955289572
N            0.98164404224743       -2.07935894283949        1.38168102188878
C            1.06387352946560       -3.42500059657500        1.56765465808827
C            1.52585190194311       -3.63294277744464        2.83146834219761
N            1.71435704737709       -2.41208238493931        3.40041590266212
C            1.37714340611278       -1.48807073044769        2.50462580896707
C            2.23341417089776       -2.16582366462940        4.74268012834131
C            3.63392523015115       -1.56736727457747        4.64519484558985
C            1.27899787543549       -1.26790164749138        5.52230899709667
C           -1.02979405406490       -1.22041709636229        0.31820609181153
H            0.91689397636048        0.64899943715272        0.61959197079032
H            0.95478354156929        0.23249878818031       -1.08355219854869
H            2.28644094558675       -0.26057427414309       -0.04660460847452
H            0.66869439666889       -2.12722735726994       -0.64703194419287
H            0.79906511982076       -4.12989156749162        0.80644777463176
H            1.72757244914546       -4.54869494415507        3.34835550934499
H            1.42183856517865       -0.43009673963181        2.66368741261077
H            2.28994862997801       -3.14374555272783        5.23012907547170
H            3.60779143882511       -0.58321570189736        4.18431032617312
H            4.05246822869800       -1.46468405540625        5.64166134849240
H            4.29156141361074       -2.21042390290344        4.06520468788579
H            0.26972934489398       -1.67243855619578        5.51320583398422
H            1.60894829192111       -1.20676641520542        6.55498453728065
H            1.26082776319836       -0.26001595055931        5.11661333784554
H           -1.42355184550215       -0.79066029294528       -0.59763834065946
H           -1.54023817209645       -2.16308689550140        0.49960312979040
H           -1.24794675777525       -0.53958560742134        1.13762455511853

          :  Hamiltonian                  GFN2-xTB          :
         :: total energy             -33.438809195271 Eh    ::
         :: gradient norm              0.000264703919 Eh/a0 ::
         :: HOMO-LUMO gap              4.865491223747 eV    ::
         :: SCC energy               -33.953525986634 Eh    ::
         :: -> dispersion             -0.020502411597 Eh    ::
         :: repulsion energy           0.514716791363 Eh    ::

    * Orbital Energies and Occupations

         #    Occupation            Energy/Eh            Energy/eV
      -------------------------------------------------------------
         1        2.0000           -0.8884762             -24.1767
       ...           ...                  ...                  ...
        19        2.0000           -0.6488659             -17.6565
        20        2.0000           -0.6457988             -17.5731
        21        2.0000           -0.6283763             -17.0990
        22        2.0000           -0.6120958             -16.6560
        23        2.0000           -0.6043538             -16.4453
        24        2.0000           -0.6033045             -16.4168
        25        2.0000           -0.6018140             -16.3762
        26        2.0000           -0.5987684             -16.2933
        27        2.0000           -0.5912019             -16.0874
        28        2.0000           -0.5877416             -15.9933
        29        2.0000           -0.5862064             -15.9515
        30        2.0000           -0.5824250             -15.8486
        31        2.0000           -0.5802610             -15.7897 (HOMO)
        32                         -0.4014575             -10.9242 (LUMO)
        33                         -0.3652032              -9.9377
        34                         -0.1920893              -5.2270
        35                         -0.1404099              -3.8207
        36                         -0.0725856              -1.9752
        37                         -0.0584486              -1.5905
        38                         -0.0529642              -1.4412
        39                         -0.0386737              -1.0524
        40                         -0.0353825              -0.9628
        41                         -0.0163440              -0.4447
        42                         -0.0139312              -0.3791
       ...                                ...                  ...
        61                          0.4670675              12.7096
      -------------------------------------------------------------
                  HL-Gap            0.1788035 Eh            4.8655 eV

     #   Z          covCN         q      C6AA      α(0)
     1   6 C        3.755    -0.130    23.055     6.846
     2   6 C        3.789     0.030    20.085     6.383
     3   7 N        2.872     0.056    20.261     6.685
     4   6 C        3.077    -0.007    28.108     8.692
     5   6 C        3.075    -0.006    28.095     8.690
     6   7 N        2.872     0.056    20.269     6.687
     7   6 C        3.103     0.054    26.658     8.460
     8   6 C        3.789     0.029    20.092     6.384
     9   6 C        3.755    -0.127    23.001     6.838
    10   6 C        3.755    -0.128    23.022     6.842
    11   6 C        3.756    -0.126    22.981     6.835
    12   1 H        0.925     0.062     2.175     2.306
    13   1 H        0.925     0.084     1.942     2.179
    14   1 H        0.925     0.060     2.195     2.317
    15   1 H        0.924     0.080     1.980     2.200
    16   1 H        0.926     0.103     1.757     2.073
    17   1 H        0.926     0.103     1.756     2.072
    18   1 H        0.926     0.113     1.673     2.023
    19   1 H        0.924     0.079     1.985     2.203
    20   1 H        0.925     0.061     2.193     2.316
    21   1 H        0.925     0.084     1.943     2.180
    22   1 H        0.925     0.061     2.188     2.313
    23   1 H        0.925     0.061     2.189     2.314
    24   1 H        0.925     0.083     1.945     2.181
    25   1 H        0.925     0.061     2.191     2.315
    26   1 H        0.925     0.084     1.941     2.179
    27   1 H        0.925     0.061     2.182     2.310
    28   1 H        0.925     0.061     2.185     2.312

Wiberg/Mayer (AO) data.
largest (>0.10) Wiberg bond orders for each atom

     #   Z sym  total        # sym  WBO       # sym  WBO       # sym  WBO
 ---------------------------------------------------------------------------
     1   6 C    3.984 --     2 C    1.005    14 H    0.983    12 H    0.982
                            13 H    0.977
     2   6 C    3.939 --     1 C    1.005    11 C    0.991    15 H    0.958
                             3 N    0.941
     3   7 N    3.712 --     7 C    1.367     4 C    1.232     2 C    0.941
     4   6 C    3.951 --     5 C    1.588     3 N    1.232    16 H    0.962
     5   6 C    3.951 --     4 C    1.588     6 N    1.234    17 H    0.961
     6   7 N    3.711 --     7 C    1.362     5 C    1.234     8 C    0.941
     7   6 C    3.948 --     3 N    1.367     6 N    1.362    18 H    0.952
     8   6 C    3.939 --    10 C    1.000     9 C    0.995    19 H    0.960
                             6 N    0.941
     9   6 C    3.984 --     8 C    0.995    22 H    0.984    20 H    0.983
                            21 H    0.977
    10   6 C    3.984 --     8 C    1.000    23 H    0.983    25 H    0.982
                            24 H    0.977
    11   6 C    3.983 --     2 C    0.991    28 H    0.983    27 H    0.983
                            26 H    0.976
    12   1 H    0.996 --     1 C    0.982
    13   1 H    0.993 --     1 C    0.977
    14   1 H    0.996 --     1 C    0.983
    15   1 H    0.993 --     2 C    0.958
    16   1 H    0.989 --     4 C    0.962
    17   1 H    0.989 --     5 C    0.961
    18   1 H    0.987 --     7 C    0.952
    19   1 H    0.993 --     8 C    0.960
    20   1 H    0.996 --     9 C    0.983
    21   1 H    0.993 --     9 C    0.977
    22   1 H    0.996 --     9 C    0.984
    23   1 H    0.996 --    10 C    0.983
    24   1 H    0.993 --    10 C    0.977
    25   1 H    0.996 --    10 C    0.982
    26   1 H    0.992 --    11 C    0.976
    27   1 H    0.996 --    11 C    0.983
    28   1 H    0.996 --    11 C    0.983
 ---------------------------------------------------------------------------

molecular dipole:
                 x           y           z       tot (Debye)
 q only:        2.494      -3.629       4.612
   full:        2.503      -3.703       4.597      16.296

           -------------------------------------------------
          | TOTAL ENERGY              -33.438809195271 Eh   |
          | GRADIENT NORM               0.000264703919 Eh/α |
          | HOMO-LUMO GAP               4.865491223747 eV   |
           -------------------------------------------------

 * finished run on 2024/12/20 at 07:14:35.268
