   * xtb version 6.7.1 (edcfbbe) compiled by 'conda@3ef47c1a292c' on 2024-11-25

   ID    Z sym.   atoms
    1    6 C      1-9, 11-14
    2    7 N      10
    3    1 H      15-36

          program call               : xtb C1194.xyz --opt --namespace C1194 --charge +1
          :  Hamiltonian                  GFN2-xTB          :
 * total energy  :   -41.5854687 Eh     change       -0.2111449E-09 Eh
 * total energy  :   -41.5926023 Eh     change       -0.7133643E-02 Eh
 * total energy  :   -41.5943540 Eh     change       -0.1751722E-02 Eh
 * total energy  :   -41.5945829 Eh     change       -0.2288262E-03 Eh
 * total energy  :   -41.5947947 Eh     change       -0.2118084E-03 Eh
 * total energy  :   -41.5949051 Eh     change       -0.1104689E-03 Eh
 * total energy  :   -41.5950738 Eh     change       -0.1686588E-03 Eh
 * total energy  :   -41.5951734 Eh     change       -0.9964218E-04 Eh
 * total energy  :   -41.5952454 Eh     change       -0.7198792E-04 Eh
 * total energy  :   -41.5953113 Eh     change       -0.6583234E-04 Eh
 * total energy  :   -41.5959034 Eh     change       -0.1052637E-04 Eh
 * total energy  :   -41.5959220 Eh     change       -0.1862615E-04 Eh
 * total energy  :   -41.5959338 Eh     change       -0.1183531E-04 Eh
 * total energy  :   -41.5959447 Eh     change       -0.1090661E-04 Eh
 * total energy  :   -41.5959593 Eh     change       -0.1455358E-04 Eh
 * total energy  :   -41.5959676 Eh     change       -0.8345118E-05 Eh
 * total energy  :   -41.5959716 Eh     change       -0.3967156E-05 Eh
 * total energy  :   -41.5959788 Eh     change       -0.7199753E-05 Eh
 * total energy  :   -41.5959817 Eh     change       -0.2865884E-05 Eh
   *** GEOMETRY OPTIMIZATION CONVERGED AFTER 45 ITERATIONS ***

 final structure:
================
36
 xtb: 6.7.1 (edcfbbe)
C            2.92997851633084        0.40083957731760        0.43127065931156
C            1.49520266843375        0.01193717587660        0.21922898761029
C            0.54119409901152        1.02432868215232        0.26063908082715
C           -0.80846824484339        0.80414601420250        0.04552826368996
C           -1.78135773005003        1.93393112005145        0.10733470909797
C           -1.23792915024699       -0.49431086322024       -0.25922205121453
C           -0.29794002014294       -1.50755522125156       -0.29539230988112
C            1.05649486056012       -1.29032054868805       -0.03445050244399
C            1.98297577591876       -2.47590970509738       -0.09519985986082
N            2.09955624355511       -3.24327979241157        1.19868399554007
C            0.79048679150864       -3.78930723468455        1.59390205102278
C            3.04726483127437       -4.35410716157132        1.00449198276470
C            2.59243704058325       -2.36410505367250        2.27092065213785
C           -2.67553875439064       -0.77965087715348       -0.54805689371024
H            3.62823097923076       -0.26272437047790       -0.07141433974272
H            3.08993804793880        1.40147286496664        0.03867069609861
H            3.17799422083056        0.43124896046424        1.49191280503372
H            0.87552003976385        2.03150144603920        0.46140290400108
H           -1.28353797438389        2.86353976717679        0.36725738457100
H           -2.27561525943465        2.06209041400656       -0.85461030764273
H           -2.55480488979939        1.73281340535454        0.84727198632865
H           -0.62880178030285       -2.50205760454704       -0.56158850192425
H            1.61974114223678       -3.17844019776318       -0.84831730693531
H            2.99005798409400       -2.16484725846009       -0.37442775118227
H            0.41260790103178       -4.45677087961048        0.82186497605177
H            0.88494860714946       -4.34850715138144        2.52293360689509
H            0.07958095939458       -2.97771761805170        1.73846912750653
H            4.02784234059795       -3.97198621166202        0.72603707282631
H            3.14629065746957       -4.92773092274527        1.92466514459210
H            2.69593346310028       -5.01797618505386        0.21649466393118
H            3.57949164966630       -1.98302079509046        2.01850950647151
H            1.90926601496194       -1.52682587468095        2.39973434031931
H            2.65824779828335       -2.91588031230507        3.20694145781910
H           -3.29691151916009       -0.52285919931013        0.30886550396612
H           -3.01901179792094       -0.18133215012636       -1.39019644646613
H           -2.82746551225260       -1.82902623859230       -0.78581528741194

          :  Hamiltonian                  GFN2-xTB          :
         :: total energy             -41.595981674983 Eh    ::
         :: gradient norm              0.000398087764 Eh/a0 ::
         :: HOMO-LUMO gap              4.165398774519 eV    ::
         :: SCC energy               -42.275820948840 Eh    ::
         :: -> dispersion             -0.031527508963 Eh    ::
         :: repulsion energy           0.679839273857 Eh    ::

    * Orbital Energies and Occupations

         #    Occupation            Energy/Eh            Energy/eV
      -------------------------------------------------------------
         1        2.0000           -0.8599268             -23.3998
       ...           ...                  ...                  ...
        27        2.0000           -0.6050323             -16.4638
        28        2.0000           -0.5956012             -16.2071
        29        2.0000           -0.5847909             -15.9130
        30        2.0000           -0.5819745             -15.8363
        31        2.0000           -0.5771001             -15.7037
        32        2.0000           -0.5673066             -15.4372
        33        2.0000           -0.5596571             -15.2290
        34        2.0000           -0.5568486             -15.1526
        35        2.0000           -0.5530903             -15.0504
        36        2.0000           -0.5320403             -14.4776
        37        2.0000           -0.5292523             -14.4017
        38        2.0000           -0.5068303             -13.7916
        39        2.0000           -0.4957781             -13.4908 (HOMO)
        40                         -0.3427026              -9.3254 (LUMO)
        41                         -0.3298487              -8.9756
        42                         -0.2279182              -6.2020
        43                         -0.1953433              -5.3156
        44                         -0.1420966              -3.8666
        45                         -0.1359379              -3.6991
        46                         -0.1343206              -3.6551
        47                         -0.0584662              -1.5909
        48                         -0.0304439              -0.8284
        49                         -0.0242125              -0.6589
        50                          0.0045436               0.1236
       ...                                ...                  ...
        78                          0.5387700              14.6607
      -------------------------------------------------------------
                  HL-Gap            0.1530756 Eh            4.1654 eV

     #   Z          covCN         q      C6AA      α(0)
     1   6 C        3.758    -0.120    22.843     6.814
     2   6 C        2.964     0.005    27.919     8.667
     3   6 C        2.933    -0.050    29.238     8.868
     4   6 C        2.969     0.020    27.561     8.611
     5   6 C        3.759    -0.117    22.797     6.807
     6   6 C        2.968     0.012    27.748     8.640
     7   6 C        2.929    -0.059    29.459     8.901
     8   6 C        2.968    -0.029    28.717     8.790
     9   6 C        3.764    -0.041    21.344     6.585
    10   7 N        3.622     0.141    18.846     6.448
    11   6 C        3.723    -0.095    22.420     6.762
    12   6 C        3.725    -0.095    22.425     6.762
    13   6 C        3.723    -0.095    22.423     6.762
    14   6 C        3.758    -0.117    22.783     6.805
    15   1 H        0.925     0.039     2.467     2.456
    16   1 H        0.925     0.066     2.126     2.280
    17   1 H        0.925     0.051     2.312     2.378
    18   1 H        0.926     0.052     2.295     2.369
    19   1 H        0.925     0.055     2.258     2.350
    20   1 H        0.925     0.065     2.142     2.288
    21   1 H        0.925     0.061     2.183     2.311
    22   1 H        0.925     0.033     2.544     2.494
    23   1 H        0.924     0.081     1.971     2.196
    24   1 H        0.924     0.082     1.959     2.189
    25   1 H        0.925     0.096     1.826     2.113
    26   1 H        0.925     0.094     1.843     2.123
    27   1 H        0.925     0.106     1.731     2.057
    28   1 H        0.925     0.096     1.819     2.109
    29   1 H        0.925     0.097     1.808     2.103
    30   1 H        0.925     0.097     1.813     2.105
    31   1 H        0.925     0.099     1.794     2.095
    32   1 H        0.925     0.104     1.745     2.066
    33   1 H        0.925     0.093     1.848     2.126
    34   1 H        0.925     0.060     2.204     2.321
    35   1 H        0.925     0.064     2.151     2.294
    36   1 H        0.925     0.048     2.350     2.397

Wiberg/Mayer (AO) data.
largest (>0.10) Wiberg bond orders for each atom

     #   Z sym  total        # sym  WBO       # sym  WBO       # sym  WBO
 ---------------------------------------------------------------------------
     1   6 C    3.993 --     2 C    1.026    16 H    0.976    15 H    0.975
                            17 H    0.966
     2   6 C    3.988 --     3 C    1.402     8 C    1.386     1 C    1.026
     3   6 C    3.989 --     4 C    1.433     2 C    1.402    18 H    0.964
     4   6 C    3.988 --     3 C    1.433     6 C    1.343     5 C    1.038
     5   6 C    3.993 --     4 C    1.038    19 H    0.984    21 H    0.964
                            20 H    0.961
     6   6 C    3.989 --     7 C    1.440     4 C    1.343    14 C    1.035
     7   6 C    3.989 --     6 C    1.440     8 C    1.384    22 H    0.965
     8   6 C    3.969 --     2 C    1.386     7 C    1.384     9 C    1.008
     9   6 C    3.922 --     8 C    1.008    23 H    0.965    24 H    0.959
                            10 N    0.899
    10   7 N    3.813 --    12 C    0.962    11 C    0.960    13 C    0.959
                             9 C    0.899
    11   6 C    3.928 --    25 H    0.975    26 H    0.975    27 H    0.969
                            10 N    0.960
    12   6 C    3.931 --    30 H    0.975    28 H    0.975    29 H    0.974
                            10 N    0.962
    13   6 C    3.928 --    33 H    0.975    31 H    0.974    32 H    0.971
                            10 N    0.959
    14   6 C    3.993 --     6 C    1.035    36 H    0.984    34 H    0.965
                            35 H    0.964
    15   1 H    0.998 --     1 C    0.975
    16   1 H    0.995 --     1 C    0.976
    17   1 H    0.997 --     1 C    0.966
    18   1 H    0.997 --     3 C    0.964
    19   1 H    0.997 --     5 C    0.984
    20   1 H    0.995 --     5 C    0.961
    21   1 H    0.996 --     5 C    0.964
    22   1 H    0.998 --     7 C    0.965
    23   1 H    0.993 --     9 C    0.965
    24   1 H    0.993 --     9 C    0.959
    25   1 H    0.991 --    11 C    0.975
    26   1 H    0.991 --    11 C    0.975
    27   1 H    0.989 --    11 C    0.969
    28   1 H    0.991 --    12 C    0.975
    29   1 H    0.990 --    12 C    0.974
    30   1 H    0.991 --    12 C    0.975
    31   1 H    0.990 --    13 C    0.974
    32   1 H    0.989 --    13 C    0.971
    33   1 H    0.991 --    13 C    0.975
    34   1 H    0.996 --    14 C    0.965
    35   1 H    0.995 --    14 C    0.964
    36   1 H    0.997 --    14 C    0.984
 ---------------------------------------------------------------------------

molecular dipole:
                 x           y           z       tot (Debye)
 q only:        3.037      -4.959       2.141
   full:        3.118      -5.049       2.107      16.006

           -------------------------------------------------
          | TOTAL ENERGY              -41.595981674983 Eh   |
          | GRADIENT NORM               0.000398087764 Eh/α |
          | HOMO-LUMO GAP               4.165398774519 eV   |
           -------------------------------------------------

 * finished run on 2024/12/20 at 07:14:34.699
