   * xtb version 6.7.1 (edcfbbe) compiled by 'conda@3ef47c1a292c' on 2024-11-25

   ID    Z sym.   atoms
    1    6 C      1, 3-5
    2    7 N      2
    3    1 H      6-17

          program call               : xtb C1191.xyz --opt --namespace C1191 --charge +1
          :  Hamiltonian                  GFN2-xTB          :
 * total energy  :   -17.1913465 Eh     change       -0.2934541E-11 Eh
 * total energy  :   -17.1961850 Eh     change       -0.4838490E-02 Eh
 * total energy  :   -17.1971391 Eh     change       -0.9540717E-03 Eh
 * total energy  :   -17.1971548 Eh     change       -0.1569413E-04 Eh
 * total energy  :   -17.1971552 Eh     change       -0.4202570E-06 Eh
   *** GEOMETRY OPTIMIZATION CONVERGED AFTER 5 ITERATIONS ***

 final structure:
================
17
 xtb: 6.7.1 (edcfbbe)
C            1.07166547881920        0.01870993144360       -0.07248659630561
N            0.58030167109435        0.00822331374039        1.31725541911950
C            1.07178545758541        1.20652335508268        2.02116316214178
C           -0.89378508026436        0.00810090880023        1.31725196161150
C            1.07154128861642       -1.20058299211321        2.00309003076627
H            0.71621551945386        0.90688492747852       -0.59226324585717
H            0.71636322995962       -0.86160346585063       -0.60556555812339
H            2.16029437270805        0.01892465023390       -0.08839310773650
H            0.71636976468751        2.10833013672134        1.52538853130517
H            0.71644163183539        1.21255608321545        3.05027013649139
H            2.16041272573923        1.22024971913904        2.02917284988931
H           -1.27158666657961       -0.87233487172646        0.80007891481792
H           -1.27166190487900        0.00037094931275        2.33828832069624
H           -1.27173372864421        0.89615337032591        0.81338644475101
H            0.71620523666265       -2.09481889845854        1.49373550770586
H            2.16017174613088       -1.21441219720234        2.01099212720924
H            0.71612925707462       -1.22210492014264        3.03196510151747

          :  Hamiltonian                  GFN2-xTB          :
         :: total energy             -17.197155222357 Eh    ::
         :: gradient norm              0.000257568531 Eh/a0 ::
         :: HOMO-LUMO gap             11.477924130178 eV    ::
         :: SCC energy               -17.440126198868 Eh    ::
         :: -> dispersion             -0.008171712745 Eh    ::
         :: repulsion energy           0.242970976510 Eh    ::

    * Orbital Energies and Occupations

         #    Occupation            Energy/Eh            Energy/eV
      -------------------------------------------------------------
         1        2.0000           -0.8832082             -24.0333
       ...           ...                  ...                  ...
         4        2.0000           -0.8349008             -22.7188
         5        2.0000           -0.7642071             -20.7951
         6        2.0000           -0.7369449             -20.0533
         7        2.0000           -0.7369437             -20.0533
         8        2.0000           -0.7369426             -20.0532
         9        2.0000           -0.6807069             -18.5230
        10        2.0000           -0.6806951             -18.5227
        11        2.0000           -0.6599684             -17.9587
        12        2.0000           -0.6599609             -17.9585
        13        2.0000           -0.6599536             -17.9583
        14        2.0000           -0.6529437             -17.7675
        15        2.0000           -0.6529420             -17.7675
        16        2.0000           -0.6529403             -17.7674 (HOMO)
        17                         -0.2311344              -6.2895 (LUMO)
        18                         -0.1572033              -4.2777
        19                         -0.1571655              -4.2767
        20                         -0.1571277              -4.2757
        21                         -0.0757984              -2.0626
        22                          0.0088337               0.2404
        23                          0.0088440               0.2407
        24                          0.0088543               0.2409
        25                          0.0185259               0.5041
        26                          0.0185459               0.5047
        27                          0.0394918               1.0746
       ...                                ...                  ...
        32                          0.0588000               1.6000
      -------------------------------------------------------------
                  HL-Gap            0.4218060 Eh           11.4779 eV

     #   Z          covCN         q      C6AA      α(0)
     1   6 C        3.725    -0.103    22.575     6.784
     2   7 N        3.624     0.162    18.514     6.391
     3   6 C        3.725    -0.103    22.575     6.784
     4   6 C        3.725    -0.103    22.575     6.784
     5   6 C        3.725    -0.103    22.574     6.784
     6   1 H        0.925     0.104     1.748     2.068
     7   1 H        0.925     0.104     1.748     2.068
     8   1 H        0.925     0.104     1.748     2.068
     9   1 H        0.925     0.104     1.748     2.068
    10   1 H        0.925     0.104     1.748     2.068
    11   1 H        0.925     0.104     1.748     2.068
    12   1 H        0.925     0.104     1.748     2.068
    13   1 H        0.925     0.104     1.748     2.068
    14   1 H        0.925     0.104     1.748     2.068
    15   1 H        0.925     0.104     1.748     2.068
    16   1 H        0.925     0.104     1.748     2.068
    17   1 H        0.925     0.104     1.748     2.068

Wiberg/Mayer (AO) data.
largest (>0.10) Wiberg bond orders for each atom

     #   Z sym  total        # sym  WBO       # sym  WBO       # sym  WBO
 ---------------------------------------------------------------------------
     1   6 C    3.923 --     7 H    0.974     8 H    0.974     6 H    0.974
                             2 N    0.956
     2   7 N    3.824 --     5 C    0.956     1 C    0.956     4 C    0.956
                             3 C    0.956
     3   6 C    3.923 --    10 H    0.974     9 H    0.974    11 H    0.974
                             2 N    0.956
     4   6 C    3.923 --    14 H    0.974    13 H    0.974    12 H    0.974
                             2 N    0.956
     5   6 C    3.923 --    16 H    0.974    15 H    0.974    17 H    0.974
                             2 N    0.956
     6   1 H    0.989 --     1 C    0.974
     7   1 H    0.989 --     1 C    0.974
     8   1 H    0.989 --     1 C    0.974
     9   1 H    0.989 --     3 C    0.974
    10   1 H    0.989 --     3 C    0.974
    11   1 H    0.989 --     3 C    0.974
    12   1 H    0.989 --     4 C    0.974
    13   1 H    0.989 --     4 C    0.974
    14   1 H    0.989 --     4 C    0.974
    15   1 H    0.989 --     5 C    0.974
    16   1 H    0.989 --     5 C    0.974
    17   1 H    0.989 --     5 C    0.974
 ---------------------------------------------------------------------------

molecular dipole:
                 x           y           z       tot (Debye)
 q only:        1.097       0.015       2.489
   full:        1.097       0.015       2.489       6.914

           -------------------------------------------------
          | TOTAL ENERGY              -17.197155222357 Eh   |
          | GRADIENT NORM               0.000257568531 Eh/α |
          | HOMO-LUMO GAP              11.477924130178 eV   |
           -------------------------------------------------

 * finished run on 2024/12/20 at 07:14:25.966
