   * xtb version 6.7.1 (edcfbbe) compiled by 'conda@3ef47c1a292c' on 2024-11-25

   ID    Z sym.   atoms
    1    6 C      1-8, 10-15
    2    7 N      9
    3    1 H      16-45

          program call               : xtb C1196.xyz --opt --namespace C1196 --charge +1
          :  Hamiltonian                  GFN2-xTB          :
 * total energy  :   -47.8274476 Eh     change       -0.9275425E-10 Eh
 * total energy  :   -47.8335697 Eh     change       -0.6122071E-02 Eh
 * total energy  :   -47.8350871 Eh     change       -0.1517382E-02 Eh
 * total energy  :   -47.8351782 Eh     change       -0.9111109E-04 Eh
 * total energy  :   -47.8352648 Eh     change       -0.8665074E-04 Eh
 * total energy  :   -47.8352941 Eh     change       -0.2927952E-04 Eh
 * total energy  :   -47.8353406 Eh     change       -0.4650722E-04 Eh
 * total energy  :   -47.8353762 Eh     change       -0.3556386E-04 Eh
 * total energy  :   -47.8354072 Eh     change       -0.3103772E-04 Eh
 * total energy  :   -47.8354524 Eh     change       -0.4520146E-04 Eh
 * total energy  :   -47.8369017 Eh     change       -0.2086904E-04 Eh
 * total energy  :   -47.8369262 Eh     change       -0.2446345E-04 Eh
 * total energy  :   -47.8369493 Eh     change       -0.2311887E-04 Eh
 * total energy  :   -47.8369683 Eh     change       -0.1901070E-04 Eh
 * total energy  :   -47.8369834 Eh     change       -0.1506543E-04 Eh
 * total energy  :   -47.8369945 Eh     change       -0.1116528E-04 Eh
 * total energy  :   -47.8370019 Eh     change       -0.7384491E-05 Eh
 * total energy  :   -47.8370079 Eh     change       -0.5984570E-05 Eh
 * total energy  :   -47.8370126 Eh     change       -0.4646654E-05 Eh
   *** GEOMETRY OPTIMIZATION CONVERGED AFTER 64 ITERATIONS ***

 final structure:
================
45
 xtb: 6.7.1 (edcfbbe)
C            2.07156684117004       -0.07500736840898        0.20276311070351
C            1.33593788701695       -0.08317933328708        1.53708154545223
C            1.31449478769534        1.28407340591530        2.22269677604537
C            0.59576519090764        2.38408707510040        1.43853747872952
C           -0.87920969058479        2.10545537398840        1.14299231305354
C           -1.75731435830427        1.86882397979791        2.37511295777528
C           -1.70383645323232        2.98032636763706        3.43119843328054
C           -2.11630623508415        4.37095891978372        2.93281440487795
N           -3.51289320414109        4.81671832215027        3.24099668801172
C           -4.47461696663850        3.81528243676623        2.75322310749367
C           -3.66142530435184        5.03396089328258        4.70784998563591
C           -4.98769012948165        5.67643426193851        5.09792587703082
C           -5.16467927240179        7.01088674968783        4.38251893955319
C           -5.04449425073248        6.79805795325944        2.87788292108821
C           -3.72375930529628        6.11716330726408        2.53721358236581
H            1.54841797724360        0.52673624701384       -0.53604416023415
H            2.15219098694674       -1.08689608929306       -0.18574161621236
H            3.07562225143334        0.32394112521048        0.32505876070281
H            0.31712519620629       -0.44673094830379        1.39006230398529
H            1.83477451693132       -0.78552066586586        2.20798185201253
H            0.85795755424700        1.17445003207693        3.20920660297345
H            2.34578050206698        1.60713332131957        2.38009479359300
H            0.69054250111147        3.32379653235421        1.98908447839360
H            1.10591883813262        2.52677502176033        0.48555960395422
H           -1.27335967421339        2.93638953792881        0.55032798214501
H           -0.95265593310328        1.21869733026047        0.51337334751018
H           -2.78217397588905        1.70302693968534        2.03820429190509
H           -1.43122179951357        0.94901300404579        2.86084923178377
H           -2.29982182316272        2.67642459234371        4.29205387658566
H           -0.67535385966757        3.05173565655385        3.78456844979741
H           -1.44783415344512        5.12173675816445        3.35835890222695
H           -1.99875439241890        4.40147991118041        1.84834036010312
H           -4.30332078071177        3.63037197925033        1.69461455559125
H           -4.35672390333559        2.88414507116995        3.30122259797709
H           -5.49388576343231        4.16563806311011        2.88454455678032
H           -2.84612380561565        5.68812966669967        5.02508222755478
H           -3.54901240190116        4.07612076843893        5.21627135730210
H           -4.97620635064981        5.82888392330984        6.17728053186039
H           -5.82491660940173        5.01403399387118        4.87692001636376
H           -6.13583894809477        7.43955970681269        4.62318600165485
H           -4.39963570672762        7.71311345343661        4.71814256474718
H           -5.89296374658752        6.22127199630026        2.50902980059181
H           -5.06294873782101        7.75743126555173        2.36032439298163
H           -3.66154333643167        5.93660278520882        1.46232137775646
H           -2.90410415869602        6.78065667555431        2.82240283654145

          :  Hamiltonian                  GFN2-xTB          :
         :: total energy             -47.837012550643 Eh    ::
         :: gradient norm              0.000284159041 Eh/a0 ::
         :: HOMO-LUMO gap              7.291888764543 eV    ::
         :: SCC energy               -48.525256262836 Eh    ::
         :: -> dispersion             -0.036271475146 Eh    ::
         :: repulsion energy           0.688243712193 Eh    ::

    * Orbital Energies and Occupations

         #    Occupation            Energy/Eh            Energy/eV
      -------------------------------------------------------------
         1        2.0000           -0.8562571             -23.2999
       ...           ...                  ...                  ...
        33        2.0000           -0.5835597             -15.8795
        34        2.0000           -0.5821410             -15.8409
        35        2.0000           -0.5758113             -15.6686
        36        2.0000           -0.5728750             -15.5887
        37        2.0000           -0.5697063             -15.5025
        38        2.0000           -0.5573754             -15.1670
        39        2.0000           -0.5523095             -15.0291
        40        2.0000           -0.5378227             -14.6349
        41        2.0000           -0.5309868             -14.4489
        42        2.0000           -0.5257834             -14.3073
        43        2.0000           -0.5058229             -13.7641
        44        2.0000           -0.5013709             -13.6430
        45        2.0000           -0.4966372             -13.5142 (HOMO)
        46                         -0.2286652              -6.2223 (LUMO)
        47                         -0.1626235              -4.4252
        48                         -0.1554303              -4.2295
        49                         -0.1363265              -3.7096
        50                         -0.0785460              -2.1373
        51                         -0.0705284              -1.9192
        52                         -0.0585756              -1.5939
        53                         -0.0511610              -1.3922
        54                         -0.0368062              -1.0015
        55                         -0.0264668              -0.7202
        56                         -0.0233894              -0.6365
       ...                                ...                  ...
        90                          0.2289051               6.2288
      -------------------------------------------------------------
                  HL-Gap            0.2679720 Eh            7.2919 eV

     #   Z          covCN         q      C6AA      α(0)
     1   6 C        3.752    -0.106    22.579     6.776
     2   6 C        3.800    -0.055    21.558     6.611
     3   6 C        3.801    -0.061    21.666     6.627
     4   6 C        3.800    -0.062    21.698     6.632
     5   6 C        3.800    -0.063    21.702     6.633
     6   6 C        3.799    -0.069    21.828     6.652
     7   6 C        3.799    -0.072    21.878     6.660
     8   6 C        3.763    -0.039    21.321     6.582
     9   7 N        3.621     0.119    19.196     6.507
    10   6 C        3.712    -0.088    22.320     6.751
    11   6 C        3.762    -0.031    21.177     6.560
    12   6 C        3.805    -0.072    21.880     6.659
    13   6 C        3.807    -0.072    21.866     6.657
    14   6 C        3.805    -0.072    21.871     6.658
    15   6 C        3.769    -0.033    21.190     6.560
    16   1 H        0.925     0.034     2.536     2.490
    17   1 H        0.925     0.040     2.448     2.447
    18   1 H        0.925     0.039     2.458     2.452
    19   1 H        0.924     0.029     2.599     2.521
    20   1 H        0.924     0.036     2.505     2.475
    21   1 H        0.924     0.025     2.663     2.552
    22   1 H        0.924     0.039     2.460     2.453
    23   1 H        0.924     0.021     2.717     2.578
    24   1 H        0.924     0.047     2.355     2.400
    25   1 H        0.924     0.018     2.759     2.597
    26   1 H        0.925     0.054     2.268     2.355
    27   1 H        0.924     0.033     2.546     2.495
    28   1 H        0.925     0.060     2.195     2.317
    29   1 H        0.924     0.046     2.367     2.406
    30   1 H        0.925     0.076     2.024     2.225
    31   1 H        0.924     0.072     2.059     2.244
    32   1 H        0.924     0.089     1.886     2.147
    33   1 H        0.925     0.093     1.852     2.128
    34   1 H        0.925     0.098     1.805     2.101
    35   1 H        0.925     0.099     1.795     2.095
    36   1 H        0.924     0.082     1.956     2.187
    37   1 H        0.924     0.081     1.968     2.194
    38   1 H        0.925     0.077     2.014     2.219
    39   1 H        0.924     0.060     2.193     2.316
    40   1 H        0.925     0.070     2.085     2.258
    41   1 H        0.924     0.057     2.240     2.341
    42   1 H        0.924     0.060     2.194     2.317
    43   1 H        0.924     0.077     2.006     2.215
    44   1 H        0.924     0.079     1.990     2.206
    45   1 H        0.924     0.082     1.959     2.189

Wiberg/Mayer (AO) data.
largest (>0.10) Wiberg bond orders for each atom

     #   Z sym  total        # sym  WBO       # sym  WBO       # sym  WBO
 ---------------------------------------------------------------------------
     1   6 C    3.996 --     2 C    1.020    18 H    0.987    17 H    0.987
                            16 H    0.986
     2   6 C    3.997 --     1 C    1.020     3 C    1.008    20 H    0.978
                            19 H    0.976
     3   6 C    3.997 --     2 C    1.008     4 C    1.007    22 H    0.976
                            21 H    0.975
     4   6 C    3.996 --     5 C    1.008     3 C    1.007    23 H    0.976
                            24 H    0.973
     5   6 C    3.995 --     4 C    1.008     6 C    1.007    25 H    0.972
                            26 H    0.971
     6   6 C    3.992 --     5 C    1.007     7 C    1.005    27 H    0.975
                            28 H    0.971
     7   6 C    3.983 --     6 C    1.005     8 C    1.002    30 H    0.966
                            29 H    0.965
     8   6 C    3.928 --     7 C    1.002    31 H    0.970    32 H    0.959
                             9 N    0.925
     9   7 N    3.805 --    10 C    0.962    11 C    0.933    15 C    0.931
                             8 C    0.925
    10   6 C    3.931 --    33 H    0.975    34 H    0.971    35 H    0.967
                             9 N    0.962
    11   6 C    3.936 --    12 C    1.008    36 H    0.967    37 H    0.964
                             9 N    0.933
    12   6 C    3.987 --    13 C    1.009    11 C    1.008    39 H    0.971
                            38 H    0.966
    13   6 C    3.992 --    12 C    1.009    14 C    1.009    41 H    0.975
                            40 H    0.972
    14   6 C    3.987 --    13 C    1.009    15 C    1.008    42 H    0.970
                            43 H    0.965
    15   6 C    3.936 --    14 C    1.008    44 H    0.968    45 H    0.967
                             9 N    0.931
    16   1 H    0.999 --     1 C    0.986
    17   1 H    0.998 --     1 C    0.987
    18   1 H    0.998 --     1 C    0.987
    19   1 H    0.999 --     2 C    0.976
    20   1 H    0.999 --     2 C    0.978
    21   1 H    0.999 --     3 C    0.975
    22   1 H    0.998 --     3 C    0.976
    23   1 H    1.000 --     4 C    0.976
    24   1 H    0.998 --     4 C    0.973
    25   1 H    1.000 --     5 C    0.972
    26   1 H    0.997 --     5 C    0.971
    27   1 H    0.999 --     6 C    0.975
    28   1 H    0.996 --     6 C    0.971
    29   1 H    0.998 --     7 C    0.965
    30   1 H    0.994 --     7 C    0.966
    31   1 H    0.995 --     8 C    0.970
    32   1 H    0.992 --     8 C    0.959
    33   1 H    0.991 --    10 C    0.975
    34   1 H    0.990 --    10 C    0.971
    35   1 H    0.990 --    10 C    0.967
    36   1 H    0.993 --    11 C    0.967
    37   1 H    0.993 --    11 C    0.964
    38   1 H    0.994 --    12 C    0.966
    39   1 H    0.996 --    12 C    0.971
    40   1 H    0.995 --    13 C    0.972
    41   1 H    0.997 --    13 C    0.975
    42   1 H    0.996 --    14 C    0.970
    43   1 H    0.994 --    14 C    0.965
    44   1 H    0.994 --    15 C    0.968
    45   1 H    0.993 --    15 C    0.967
 ---------------------------------------------------------------------------

molecular dipole:
                 x           y           z       tot (Debye)
 q only:       -6.574       8.948       6.147
   full:       -6.515       8.966       6.130      32.193

           -------------------------------------------------
          | TOTAL ENERGY              -47.837012550643 Eh   |
          | GRADIENT NORM               0.000284159041 Eh/α |
          | HOMO-LUMO GAP               7.291888764543 eV   |
           -------------------------------------------------

 * finished run on 2024/12/20 at 07:14:37.285
