   * xtb version 6.7.1 (edcfbbe) compiled by 'conda@3ef47c1a292c' on 2024-11-25

   ID    Z sym.   atoms
    1    6 C      1-7, 10, 12-20
    2    7 N      8, 9, 11
    3    9 F      21-33
    4    1 H      34-54

          program call               : xtb C1190.xyz --opt --namespace C1190 --charge +1
          :  Hamiltonian                  GFN2-xTB          :
 * total energy  :  -116.9627923 Eh     change       -0.1295746E-09 Eh
 * total energy  :  -116.9759160 Eh     change       -0.1312370E-01 Eh
 * total energy  :  -116.9801633 Eh     change       -0.4247274E-02 Eh
 * total energy  :  -116.9809476 Eh     change       -0.7843432E-03 Eh
 * total energy  :  -116.9814421 Eh     change       -0.4944537E-03 Eh
 * total energy  :  -116.9816557 Eh     change       -0.2135547E-03 Eh
 * total energy  :  -116.9818511 Eh     change       -0.1954693E-03 Eh
 * total energy  :  -116.9820062 Eh     change       -0.1550957E-03 Eh
 * total energy  :  -116.9821500 Eh     change       -0.1437817E-03 Eh
 * total energy  :  -116.9823261 Eh     change       -0.1760781E-03 Eh
 * total energy  :  -116.9840205 Eh     change       -0.2211332E-04 Eh
 * total energy  :  -116.9840353 Eh     change       -0.1474313E-04 Eh
 * total energy  :  -116.9840490 Eh     change       -0.1375800E-04 Eh
 * total energy  :  -116.9840669 Eh     change       -0.1785922E-04 Eh
 * total energy  :  -116.9840841 Eh     change       -0.1721657E-04 Eh
 * total energy  :  -116.9840988 Eh     change       -0.1467373E-04 Eh
 * total energy  :  -116.9841084 Eh     change       -0.9617139E-05 Eh
 * total energy  :  -116.9841137 Eh     change       -0.5304772E-05 Eh
 * total energy  :  -116.9841170 Eh     change       -0.3322388E-05 Eh
   *** GEOMETRY OPTIMIZATION CONVERGED AFTER 40 ITERATIONS ***

 final structure:
================
54
 xtb: 6.7.1 (edcfbbe)
C            1.44290644751543        0.76205777042109       -0.58471876700301
C            1.29202666137449        0.65835111087657       -2.09762065871584
C            1.57708917153639       -0.74456093104507       -2.63768579548694
C            0.64881048721069       -1.83860750932435       -2.10467122989421
C           -0.84031599649051       -1.60466889004092       -2.37063525793332
C           -1.20841405028208       -1.41221356276832       -3.84263802883464
C           -0.78044390124557       -2.57787686582669       -4.74352022292342
N           -1.35411946784785       -3.81731546770830       -4.28798850627612
N           -0.61963661454320       -4.71625835937730       -3.64666440344065
C           -1.42322124981352       -5.67307559840423       -3.30810434223134
N           -2.69063157002839       -5.40301262976241       -3.73054866326023
C           -2.61204485525194       -4.21505242660783       -4.34874092792866
C           -3.87327484811841       -6.20382590780558       -3.50187619909093
C           -4.29150467377793       -6.20875956099066       -2.02594597174600
C           -4.60232892640806       -4.83577275020264       -1.42282864524481
C           -5.76710602642869       -3.99320360809909       -2.04121766434723
C           -7.16903870423864       -4.66215422478976       -2.18343373580264
C           -7.88024734513391       -5.22852506531464       -0.91575931431683
C           -8.25235756440274       -4.23706198178826        0.23009106486134
C           -9.22572677123173       -3.07892231035770       -0.17694561436370
F          -10.20439448440289       -3.52008353414957       -0.95414997694443
F           -9.74859378840871       -2.53188477029234        0.90177151468791
F           -8.55394856183023       -2.14371650405977       -0.84413287902236
F           -8.81735000294304       -4.95376492976409        1.20816549593043
F           -7.12714356584130       -3.69337591389487        0.72646064735186
F           -8.99141009859883       -5.84670284535495       -1.33386390511083
F           -7.07595202660114       -6.18869504683298       -0.40848268118887
F           -7.98036517572243       -3.79821115099127       -2.80286545394062
F           -7.00131235440343       -5.71001570212238       -3.02926645451320
F           -5.87234857102874       -2.83845261762526       -1.37932003864984
F           -5.38547549443392       -3.67036120890032       -3.30831409501541
F           -4.82195701237957       -4.96624934721278       -0.10611080168210
F           -3.49840429146552       -4.04005425537635       -1.53879833826427
H            0.68089417702152        0.18386212654182       -0.06821716351628
H            1.34758786755101        1.79802151389839       -0.27038127188545
H            2.42057992810113        0.40099312377435       -0.27461164921395
H            0.28872441378287        0.97824717279296       -2.38607087855478
H            1.99697661951408        1.34670022031684       -2.56817267824546
H            1.53378586220101       -0.71592451272023       -3.72929152250091
H            2.59905822454906       -1.01655613732247       -2.36608204090081
H            0.95547632486562       -2.79811979666968       -2.52798374724572
H            0.78249514414640       -1.91631225700560       -1.02566628076153
H           -1.40535907824496       -2.44275803555921       -1.95404514779672
H           -1.16218546139100       -0.71289311826854       -1.83350426725658
H           -2.28767367655454       -1.26826551988580       -3.92483424419200
H           -0.72432610292418       -0.51531449351664       -4.22647336169161
H           -1.09867048488996       -2.39355630738519       -5.77165602750647
H            0.30181683429834       -2.70568962446470       -4.71074366974700
H           -1.12314053289411       -6.55503221502570       -2.77947492739604
H           -3.42560034791507       -3.68841110499880       -4.80798153023139
H           -4.67522596388732       -5.83257693876026       -4.14205221125790
H           -3.65584053785151       -7.23649615336444       -3.78875836995918
H           -5.15540052328775       -6.86118227832702       -1.89803544456971
H           -3.48411746046902       -6.61084906859153       -1.40613371526795

          :  Hamiltonian                  GFN2-xTB          :
         :: total energy            -116.984117025261 Eh    ::
         :: gradient norm              0.000343070605 Eh/a0 ::
         :: HOMO-LUMO gap              1.783757058045 eV    ::
         :: SCC energy              -117.788253905081 Eh    ::
         :: -> dispersion             -0.053744229115 Eh    ::
         :: repulsion energy           0.804136879820 Eh    ::

    * Orbital Energies and Occupations

         #    Occupation            Energy/Eh            Energy/eV
      -------------------------------------------------------------
         1        2.0000           -1.0408074             -28.3218
       ...           ...                  ...                  ...
        85        2.0000           -0.6108054             -16.6209
        86        2.0000           -0.6039117             -16.4333
        87        2.0000           -0.5992185             -16.3056
        88        2.0000           -0.5884983             -16.0139
        89        2.0000           -0.5816975             -15.8288
        90        2.0000           -0.5666157             -15.4184
        91        2.0000           -0.5625681             -15.3083
        92        2.0000           -0.5454951             -14.8437
        93        2.0000           -0.5366733             -14.6036
        94        2.0000           -0.5318164             -14.4715
        95        2.0000           -0.5106916             -13.8966
        96        2.0000           -0.5057568             -13.7623
        97        2.0000           -0.5009839             -13.6325 (HOMO)
        98                         -0.4354320             -11.8487 (LUMO)
        99                         -0.4118265             -11.2064
       100                         -0.2426839              -6.6038
       101                         -0.2370605              -6.4507
       102                         -0.2233693              -6.0782
       103                         -0.2139109              -5.8208
       104                         -0.2101797              -5.7193
       105                         -0.1892741              -5.1504
       106                         -0.1804979              -4.9116
       107                         -0.1618347              -4.4037
       108                         -0.1349047              -3.6709
       ...                                ...                  ...
       153                          0.3512908               9.5591
      -------------------------------------------------------------
                  HL-Gap            0.0655519 Eh            1.7838 eV

     #   Z          covCN         q      C6AA      α(0)
     1   6 C        3.752    -0.107    22.605     6.780
     2   6 C        3.799    -0.056    21.585     6.615
     3   6 C        3.800    -0.063    21.714     6.635
     4   6 C        3.800    -0.069    21.815     6.650
     5   6 C        3.800    -0.067    21.789     6.646
     6   6 C        3.802    -0.071    21.856     6.656
     7   6 C        3.742    -0.041    21.376     6.596
     8   7 N        3.061     0.172    18.366     6.365
     9   7 N        2.048    -0.130    24.507     7.343
    10   6 C        3.143     0.086    25.855     8.320
    11   7 N        2.856     0.048    20.397     6.708
    12   6 C        3.065     0.051    26.786     8.487
    13   6 C        3.738    -0.029    21.174     6.566
    14   6 C        3.803    -0.098    22.368     6.733
    15   6 C        3.516     0.318    16.952     6.077
    16   6 C        3.518     0.312    17.021     6.087
    17   6 C        3.518     0.310    17.037     6.089
    18   6 C        3.517     0.315    16.986     6.082
    19   6 C        3.515     0.309    17.075     6.101
    20   6 C        3.326     0.487    17.416     6.631
    21   9 F        0.791    -0.158    10.811     3.884
    22   9 F        0.791    -0.136    10.594     3.845
    23   9 F        0.791    -0.167    10.896     3.899
    24   9 F        0.790    -0.144    10.673     3.859
    25   9 F        0.789    -0.169    10.922     3.904
    26   9 F        0.790    -0.149    10.720     3.868
    27   9 F        0.790    -0.176    10.990     3.916
    28   9 F        0.789    -0.156    10.790     3.880
    29   9 F        0.790    -0.182    11.051     3.927
    30   9 F        0.789    -0.158    10.812     3.884
    31   9 F        0.790    -0.194    11.168     3.948
    32   9 F        0.789    -0.181    11.042     3.925
    33   9 F        0.790    -0.205    11.288     3.969
    34   1 H        0.925     0.034     2.531     2.488
    35   1 H        0.925     0.042     2.427     2.436
    36   1 H        0.925     0.041     2.440     2.443
    37   1 H        0.924     0.029     2.604     2.524
    38   1 H        0.924     0.038     2.472     2.459
    39   1 H        0.924     0.024     2.674     2.557
    40   1 H        0.924     0.044     2.395     2.420
    41   1 H        0.924     0.032     2.559     2.502
    42   1 H        0.925     0.053     2.283     2.363
    43   1 H        0.924     0.026     2.639     2.541
    44   1 H        0.925     0.065     2.137     2.286
    45   1 H        0.924     0.050     2.314     2.379
    46   1 H        0.925     0.086     1.915     2.164
    47   1 H        0.924     0.091     1.865     2.135
    48   1 H        0.924     0.122     1.596     1.976
    49   1 H        0.926     0.123     1.590     1.972
    50   1 H        0.926     0.135     1.499     1.914
    51   1 H        0.924     0.109     1.707     2.043
    52   1 H        0.924     0.118     1.627     1.994
    53   1 H        0.925     0.118     1.632     1.998
    54   1 H        0.924     0.117     1.635     2.000

Wiberg/Mayer (AO) data.
largest (>0.10) Wiberg bond orders for each atom

     #   Z sym  total        # sym  WBO       # sym  WBO       # sym  WBO
 ---------------------------------------------------------------------------
     1   6 C    3.996 --     2 C    1.020    36 H    0.987    35 H    0.986
                            34 H    0.986
     2   6 C    3.997 --     1 C    1.020     3 C    1.007    38 H    0.977
                            37 H    0.976
     3   6 C    3.996 --     2 C    1.007     4 C    1.007    39 H    0.976
                            40 H    0.976
     4   6 C    3.994 --     3 C    1.007     5 C    1.006    41 H    0.974
                            42 H    0.973
     5   6 C    3.991 --     6 C    1.007     4 C    1.006    43 H    0.977
                            44 H    0.969
     6   6 C    3.978 --     5 C    1.007    45 H    0.975     7 C    0.972
                            46 H    0.962
     7   6 C    3.917 --     6 C    0.972     8 N    0.961    47 H    0.957
                            48 H    0.956
     8   7 N    3.760 --    12 C    1.424     9 N    1.212     7 C    0.961
     9   7 N    3.034 --    10 C    1.599     8 N    1.212
    10   6 C    3.947 --     9 N    1.599    11 N    1.233    49 H    0.953
    11   7 N    3.704 --    12 C    1.321    10 C    1.233    13 C    0.978
    12   6 C    3.947 --     8 N    1.424    11 N    1.321    50 H    0.948
    13   6 C    3.944 --    14 C    0.997    11 N    0.978    51 H    0.962
                            52 H    0.954
    14   6 C    3.970 --    13 C    0.997    15 C    0.968    54 H    0.957
                            53 H    0.957
    15   6 C    3.868 --    32 F    0.975    14 C    0.968    33 F    0.942
                            16 C    0.906
    16   6 C    3.881 --    30 F    0.992    31 F    0.949    17 C    0.912
                            15 C    0.906
    17   6 C    3.889 --    28 F    0.990    29 F    0.959    16 C    0.912
                            18 C    0.910
    18   6 C    3.895 --    26 F    0.991    27 F    0.966    17 C    0.910
                            19 C    0.908
    19   6 C    3.897 --    24 F    0.993    25 F    0.975    18 C    0.908
                            20 C    0.883
    20   6 C    3.887 --    22 F    0.997    21 F    0.979    23 F    0.969
                            19 C    0.883
    21   9 F    1.116 --    20 C    0.979
    22   9 F    1.139 --    20 C    0.997
    23   9 F    1.106 --    20 C    0.969
    24   9 F    1.117 --    19 C    0.993
    25   9 F    1.092 --    19 C    0.975
    26   9 F    1.114 --    18 C    0.991
    27   9 F    1.085 --    18 C    0.966
    28   9 F    1.111 --    17 C    0.990
    29   9 F    1.077 --    17 C    0.959
    30   9 F    1.113 --    16 C    0.992
    31   9 F    1.066 --    16 C    0.949
    32   9 F    1.090 --    15 C    0.975
    33   9 F    1.057 --    15 C    0.942
    34   1 H    0.999 --     1 C    0.986
    35   1 H    0.998 --     1 C    0.986
    36   1 H    0.998 --     1 C    0.987
    37   1 H    0.999 --     2 C    0.976
    38   1 H    0.999 --     2 C    0.977
    39   1 H    0.999 --     3 C    0.976
    40   1 H    0.998 --     3 C    0.976
    41   1 H    0.999 --     4 C    0.974
    42   1 H    0.997 --     4 C    0.973
    43   1 H    0.999 --     5 C    0.977
    44   1 H    0.996 --     5 C    0.969
    45   1 H    0.997 --     6 C    0.975
    46   1 H    0.992 --     6 C    0.962
    47   1 H    0.991 --     7 C    0.957
    48   1 H    0.985 --     7 C    0.956
    49   1 H    0.985 --    10 C    0.953
    50   1 H    0.982 --    12 C    0.948
    51   1 H    0.988 --    13 C    0.962
    52   1 H    0.985 --    13 C    0.954
    53   1 H    0.985 --    14 C    0.957
    54   1 H    0.986 --    14 C    0.957
 ---------------------------------------------------------------------------

molecular dipole:
                 x           y           z       tot (Debye)
 q only:       -4.024      -8.839      -7.392
   full:       -4.603      -9.067      -7.484      32.091

           -------------------------------------------------
          | TOTAL ENERGY             -116.984117025261 Eh   |
          | GRADIENT NORM               0.000343070605 Eh/α |
          | HOMO-LUMO GAP               1.783757058045 eV   |
           -------------------------------------------------

 * finished run on 2024/12/20 at 07:14:25.904
