   * xtb version 6.7.1 (edcfbbe) compiled by 'conda@3ef47c1a292c' on 2024-11-25

   ID    Z sym.   atoms
    1    6 C      1, 3-9, 11, 13, 14, 16, 17, 19
    2    8 O      2, 10, 18
    3    7 N      12, 15
    4    1 H      20-36

          program call               : xtb C1197.xyz --opt --namespace C1197 --charge +1
          :  Hamiltonian                  GFN2-xTB          :
 * total energy  :   -56.2953976 Eh     change       -0.5129763E-09 Eh
 * total energy  :   -56.3028438 Eh     change       -0.7446186E-02 Eh
 * total energy  :   -56.3048529 Eh     change       -0.2009091E-02 Eh
 * total energy  :   -56.3052596 Eh     change       -0.4066992E-03 Eh
 * total energy  :   -56.3054685 Eh     change       -0.2089620E-03 Eh
 * total energy  :   -56.3055651 Eh     change       -0.9660556E-04 Eh
 * total energy  :   -56.3056255 Eh     change       -0.6040246E-04 Eh
 * total energy  :   -56.3056750 Eh     change       -0.4943034E-04 Eh
 * total energy  :   -56.3057179 Eh     change       -0.4291078E-04 Eh
 * total energy  :   -56.3057647 Eh     change       -0.4680241E-04 Eh
 * total energy  :   -56.3170984 Eh     change       -0.4665218E-04 Eh
 * total energy  :   -56.3171736 Eh     change       -0.7520824E-04 Eh
 * total energy  :   -56.3172129 Eh     change       -0.3934080E-04 Eh
 * total energy  :   -56.3172399 Eh     change       -0.2704113E-04 Eh
 * total energy  :   -56.3172591 Eh     change       -0.1917141E-04 Eh
 * total energy  :   -56.3172707 Eh     change       -0.1159613E-04 Eh
 * total energy  :   -56.3172748 Eh     change       -0.4100581E-05 Eh
 * total energy  :   -56.3172839 Eh     change       -0.9073832E-05 Eh
 * total energy  :   -56.3172880 Eh     change       -0.4139671E-05 Eh
   *** GEOMETRY OPTIMIZATION CONVERGED AFTER 136 ITERATIONS ***

 final structure:
================
36
 xtb: 6.7.1 (edcfbbe)
C            0.97488934341626        2.98251586281876       -1.21128498291479
O            1.09857161277114        2.09279352873409       -0.11562524635148
C            1.48209396006651        2.57970813624739        1.09153279040982
C            1.75597933864017        3.92901172257577        1.32056530415806
C            2.15083299080647        4.38033749489785        2.55807964954396
C            2.29746291526911        3.49865753662066        3.63865771695588
C            2.03635016950539        2.15813821589797        3.42429760831257
C            1.62549306809891        1.67672119775071        2.16730616064766
C            1.39861303139620        0.24265801056025        2.10056009806170
O            1.64089945544433       -0.52535712547391        3.01058842793508
C            0.82105580677587       -0.35346841739624        0.79138097539885
N            0.47127013395056       -1.72169240197947        1.03502737399029
C           -0.78169712019440       -2.25788028996812        1.03223461902753
C           -0.68136101000699       -3.52334572524091        1.52110819497604
N            0.62896569672955       -3.73628255495777        1.83059002307358
C            1.30665685815892       -2.63012115649072        1.53634147119518
C            1.16983592045857       -4.95107391970681        2.37732861789165
O            2.68572334465955        4.04686261489052        4.80525851319611
C            2.83966111986532        3.21365668360763        5.93435939805662
H            1.92639625739339        3.46616293771172       -1.44266875484160
H            0.20895505007482        3.73923081265325       -1.02633537538017
H            0.67250161689579        2.36198779876842       -2.05303979316314
H            1.65959786085834        4.64417924088034        0.52088117837707
H            2.35696945567952        5.42607421097804        2.71992932877176
H            2.13383079728906        1.42842499856736        4.21198930176763
H           -0.05836312144155        0.20299359135843        0.46983281372819
H            1.58641217006599       -0.27283103397467        0.01532708631456
H           -1.63961417835687       -1.71755566002430        0.68803800475083
H           -1.43650141412543       -4.26795187923540        1.66937785785287
H            2.36221788592325       -2.49718928089674        1.66747275535401
H            2.18900141472625       -4.78068958060257        2.71669488476838
H            0.56377957627272       -5.27958646420421        3.22142837791978
H            1.17136959774894       -5.73933121871852        1.62233717554517
H            1.89811777056334        2.72436782689077        6.19963301336108
H            3.61342391177931        2.45835136041888        5.77055304108422
H            3.14449871287416        3.87371292600844        6.74383239020667

          :  Hamiltonian                  GFN2-xTB          :
         :: total energy             -56.317288028925 Eh    ::
         :: gradient norm              0.000454352498 Eh/a0 ::
         :: HOMO-LUMO gap              2.108074305783 eV    ::
         :: SCC energy               -57.080155903954 Eh    ::
         :: -> dispersion             -0.032713471760 Eh    ::
         :: repulsion energy           0.762867875030 Eh    ::

    * Orbital Energies and Occupations

         #    Occupation            Energy/Eh            Energy/eV
      -------------------------------------------------------------
         1        2.0000           -0.8775385             -23.8790
       ...           ...                  ...                  ...
        38        2.0000           -0.5922899             -16.1170
        39        2.0000           -0.5914422             -16.0940
        40        2.0000           -0.5810208             -15.8104
        41        2.0000           -0.5801421             -15.7865
        42        2.0000           -0.5691129             -15.4863
        43        2.0000           -0.5664935             -15.4151
        44        2.0000           -0.5638222             -15.3424
        45        2.0000           -0.5482806             -14.9195
        46        2.0000           -0.5335064             -14.5174
        47        2.0000           -0.5312819             -14.4569
        48        2.0000           -0.5214058             -14.1882
        49        2.0000           -0.5207718             -14.1709
        50        2.0000           -0.4739163             -12.8959 (HOMO)
        51                         -0.3964460             -10.7878 (LUMO)
        52                         -0.3862188             -10.5095
        53                         -0.3547706              -9.6538
        54                         -0.3204181              -8.7190
        55                         -0.3009084              -8.1881
        56                         -0.1923316              -5.2336
        57                         -0.1637481              -4.4558
        58                         -0.1144754              -3.1150
        59                         -0.0940848              -2.5602
        60                         -0.0697298              -1.8974
        61                         -0.0502129              -1.3664
       ...                                ...                  ...
        93                          0.5579022              15.1813
      -------------------------------------------------------------
                  HL-Gap            0.0774703 Eh            2.1081 eV

     #   Z          covCN         q      C6AA      α(0)
     1   6 C        3.641     0.023    20.543     6.517
     2   8 O        1.704    -0.269    18.465     5.802
     3   6 C        2.857     0.139    24.956     8.188
     4   6 C        2.914    -0.059    29.474     8.903
     5   6 C        2.921    -0.036    28.899     8.816
     6   6 C        2.860     0.149    24.757     8.156
     7   6 C        2.930    -0.058    29.448     8.899
     8   6 C        2.967    -0.043    29.064     8.843
     9   6 C        2.827     0.229    23.200     7.893
    10   8 O        0.858    -0.380    21.277     6.184
    11   6 C        3.744    -0.053    21.601     6.630
    12   7 N        2.872     0.076    19.924     6.629
    13   6 C        3.068    -0.008    28.156     8.701
    14   6 C        3.070    -0.010    28.184     8.705
    15   7 N        2.867     0.075    19.928     6.630
    16   6 C        3.095     0.058    26.588     8.451
    17   6 C        3.692    -0.085    22.310     6.758
    18   8 O        1.706    -0.242    18.016     5.731
    19   6 C        3.645     0.024    20.497     6.507
    20   1 H        0.924     0.061     2.186     2.312
    21   1 H        0.924     0.060     2.196     2.317
    22   1 H        0.925     0.075     2.036     2.232
    23   1 H        0.926     0.069     2.102     2.267
    24   1 H        0.926     0.083     1.947     2.182
    25   1 H        0.926     0.080     1.981     2.201
    26   1 H        0.925     0.112     1.681     2.027
    27   1 H        0.924     0.110     1.697     2.037
    28   1 H        0.926     0.102     1.765     2.078
    29   1 H        0.926     0.106     1.735     2.060
    30   1 H        0.926     0.122     1.599     1.978
    31   1 H        0.925     0.100     1.786     2.090
    32   1 H        0.925     0.105     1.737     2.061
    33   1 H        0.924     0.102     1.771     2.081
    34   1 H        0.924     0.051     2.306     2.375
    35   1 H        0.924     0.052     2.297     2.370
    36   1 H        0.925     0.081     1.964     2.192

Wiberg/Mayer (AO) data.
largest (>0.10) Wiberg bond orders for each atom

     #   Z sym  total        # sym  WBO       # sym  WBO       # sym  WBO
 ---------------------------------------------------------------------------
     1   6 C    3.928 --    22 H    0.978    21 H    0.975    20 H    0.975
                             2 O    0.967
     2   8 O    2.253 --     3 C    1.084     1 C    0.967
     3   6 C    3.938 --     4 C    1.350     8 C    1.284     2 O    1.084
     4   6 C    3.987 --     5 C    1.487     3 C    1.350    23 H    0.961
     5   6 C    3.986 --     4 C    1.487     6 C    1.300    24 H    0.964
     6   6 C    3.947 --     7 C    1.404     5 C    1.300    18 O    1.102
     7   6 C    3.984 --     6 C    1.404     8 C    1.323    25 H    0.958
     8   6 C    3.976 --     7 C    1.323     3 C    1.284     9 C    1.113
     9   6 C    3.940 --    10 O    1.762     8 C    1.113    11 C    0.930
    10   8 O    2.081 --     9 C    1.762
    11   6 C    3.941 --    12 N    0.992    26 H    0.951    27 H    0.937
                             9 C    0.930
    12   7 N    3.713 --    16 C    1.347    13 C    1.216    11 C    0.992
    13   6 C    3.948 --    14 C    1.600    12 N    1.216    28 H    0.962
    14   6 C    3.948 --    13 C    1.600    15 N    1.220    29 H    0.962
    15   7 N    3.714 --    16 C    1.358    14 C    1.220    17 C    0.991
    16   6 C    3.946 --    15 N    1.358    12 N    1.347    30 H    0.952
    17   6 C    3.936 --    15 N    0.991    31 H    0.975    32 H    0.966
                            33 H    0.962
    18   8 O    2.267 --     6 C    1.102    19 C    0.973
    19   6 C    3.933 --    36 H    0.978    34 H    0.976    35 H    0.976
                            18 O    0.973
    20   1 H    0.995 --     1 C    0.975
    21   1 H    0.995 --     1 C    0.975
    22   1 H    0.994 --     1 C    0.978
    23   1 H    0.994 --     4 C    0.961
    24   1 H    0.993 --     5 C    0.964
    25   1 H    0.993 --     7 C    0.958
    26   1 H    0.987 --    11 C    0.951
    27   1 H    0.987 --    11 C    0.937
    28   1 H    0.989 --    13 C    0.962
    29   1 H    0.989 --    14 C    0.962
    30   1 H    0.985 --    16 C    0.952
    31   1 H    0.990 --    17 C    0.975
    32   1 H    0.988 --    17 C    0.966
    33   1 H    0.989 --    17 C    0.962
    34   1 H    0.997 --    19 C    0.976
    35   1 H    0.997 --    19 C    0.976
    36   1 H    0.993 --    19 C    0.978
 ---------------------------------------------------------------------------

molecular dipole:
                 x           y           z       tot (Debye)
 q only:        1.483      -2.642       2.517
   full:        1.471      -2.565       2.324       9.560

           -------------------------------------------------
          | TOTAL ENERGY              -56.317288028925 Eh   |
          | GRADIENT NORM               0.000454352498 Eh/α |
          | HOMO-LUMO GAP               2.108074305783 eV   |
           -------------------------------------------------

 * finished run on 2024/12/20 at 07:14:40.158
