   * xtb version 6.7.1 (edcfbbe) compiled by 'conda@3ef47c1a292c' on 2024-11-25

   ID    Z sym.   atoms
    1    8 O      1, 3
    2    6 C      2, 4-10, 12, 13, 15-19
    3    7 N      11, 14
    4    1 H      20-32

          program call               : xtb C1199.xyz --opt --namespace C1199 --charge +1
          :  Hamiltonian                  GFN2-xTB          :
 * total energy  :   -52.3706696 Eh     change       -0.2333422E-09 Eh
 * total energy  :   -52.3776535 Eh     change       -0.6983913E-02 Eh
 * total energy  :   -52.3795763 Eh     change       -0.1922756E-02 Eh
 * total energy  :   -52.3800774 Eh     change       -0.5010728E-03 Eh
 * total energy  :   -52.3805853 Eh     change       -0.5079683E-03 Eh
 * total energy  :   -52.3810552 Eh     change       -0.4699172E-03 Eh
 * total energy  :   -52.3815058 Eh     change       -0.4505484E-03 Eh
 * total energy  :   -52.3819119 Eh     change       -0.4061221E-03 Eh
 * total energy  :   -52.3821828 Eh     change       -0.2709242E-03 Eh
 * total energy  :   -52.3824650 Eh     change       -0.2821261E-03 Eh
 * total energy  :   -52.3830586 Eh     change       -0.2522758E-04 Eh
 * total energy  :   -52.3830689 Eh     change       -0.1027272E-04 Eh
 * total energy  :   -52.3830865 Eh     change       -0.1761531E-04 Eh
 * total energy  :   -52.3830962 Eh     change       -0.9735909E-05 Eh
 * total energy  :   -52.3831106 Eh     change       -0.1440727E-04 Eh
 * total energy  :   -52.3831164 Eh     change       -0.5752992E-05 Eh
 * total energy  :   -52.3831174 Eh     change       -0.1005109E-05 Eh
 * total energy  :   -52.3831232 Eh     change       -0.5830426E-05 Eh
 * total energy  :   -52.3831255 Eh     change       -0.2252868E-05 Eh
   *** GEOMETRY OPTIMIZATION CONVERGED AFTER 33 ITERATIONS ***

 final structure:
================
32
 xtb: 6.7.1 (edcfbbe)
O           -1.94447480259080       -3.54529571282993        1.24879889211181
C           -1.54936398356524       -2.53467292681314        0.49689766283652
O           -0.39044765561566       -2.20872861665857        0.35852232496820
C           -2.65861523088416       -1.81653794691252       -0.18018613133644
C           -3.98679523900131       -2.20225511428549       -0.04341865302205
C           -4.98088542676204       -1.50699039212393       -0.71042520388982
C           -4.65468985633689       -0.42889588848652       -1.51761646353003
C           -3.33330315382188       -0.03376493018904       -1.66150979654726
C           -2.32862441119270       -0.72159739433904       -0.99271929868883
C           -0.92619669867279       -0.30223777450086       -1.14220846077058
N           -0.12848496161975       -0.66638540119105       -2.15410360569346
C            1.09465427010859       -0.04679156017571       -2.00768317991950
C            0.98652962345847        0.75579411548214       -0.85909270704363
N           -0.29435572394645        0.58026465324167       -0.36898117913097
C           -0.80531494043118        1.19287257130089        0.82664521903279
C            2.05117308157936        1.52886182253795       -0.41663870573259
C            3.21366627962628        1.46983418946912       -1.15967735696932
C            3.31839886376958        0.67374829364462       -2.30292845239527
C            2.26457233207304       -0.09856146558181       -2.75041428710291
H           -1.19271654362503       -3.99566193286811        1.66839934330330
H           -4.22537604720343       -3.04603972675683        0.58408853799991
H           -6.01079049926288       -1.80803868487202       -0.60291752215581
H           -5.42907659303728        0.11022753826411       -2.04026935012836
H           -3.08298724231263        0.80821705217724       -2.28900056970211
H           -0.36064821192793       -1.34881996837696       -2.85992156235495
H           -1.87328521304183        1.00071370792822        0.91185259019320
H           -0.29629305878481        0.78170539110209        1.70017689337698
H           -0.63231208663526        2.26849156316071        0.78993575591978
H            1.97947797129454        2.14151399620939        0.46670477575744
H            4.06670294220930        2.05192844966476       -0.84940852908365
H            4.24887270777348        0.66200840425764       -2.84763312615204
H            2.34757950837502       -0.71477631147568       -3.63049785415236

          :  Hamiltonian                  GFN2-xTB          :
         :: total energy             -52.383125469815 Eh    ::
         :: gradient norm              0.000363775394 Eh/a0 ::
         :: HOMO-LUMO gap              3.339433572267 eV    ::
         :: SCC energy               -53.210847587702 Eh    ::
         :: -> dispersion             -0.035061631565 Eh    ::
         :: repulsion energy           0.827722117887 Eh    ::

    * Orbital Energies and Occupations

         #    Occupation            Energy/Eh            Energy/eV
      -------------------------------------------------------------
         1        2.0000           -0.8684307             -23.6312
       ...           ...                  ...                  ...
        35        2.0000           -0.6147378             -16.7279
        36        2.0000           -0.6100774             -16.6010
        37        2.0000           -0.6004204             -16.3383
        38        2.0000           -0.5943568             -16.1733
        39        2.0000           -0.5798299             -15.7780
        40        2.0000           -0.5705611             -15.5258
        41        2.0000           -0.5665823             -15.4175
        42        2.0000           -0.5620866             -15.2952
        43        2.0000           -0.5545191             -15.0892
        44        2.0000           -0.5541871             -15.0802
        45        2.0000           -0.5531684             -15.0525
        46        2.0000           -0.5349560             -14.5569
        47        2.0000           -0.5324117             -14.4877 (HOMO)
        48                         -0.4096898             -11.1482 (LUMO)
        49                         -0.3991068             -10.8602
        50                         -0.3755320             -10.2187
        51                         -0.3514350              -9.5630
        52                         -0.3428861              -9.3304
        53                         -0.3215027              -8.7485
        54                         -0.2334223              -6.3517
        55                         -0.2253266              -6.1314
        56                         -0.1626622              -4.4263
        57                         -0.1049476              -2.8558
        58                         -0.0724835              -1.9724
       ...                                ...                  ...
        89                          0.5554744              15.1152
      -------------------------------------------------------------
                  HL-Gap            0.1227219 Eh            3.3394 eV

     #   Z          covCN         q      C6AA      α(0)
     1   8 O        1.660    -0.344    19.792     6.006
     2   6 C        2.697     0.360    20.899     7.482
     3   8 O        0.857    -0.431    22.302     6.332
     4   6 C        2.975    -0.016    28.408     8.743
     5   6 C        2.919    -0.012    28.310     8.725
     6   6 C        2.918    -0.013    28.336     8.729
     7   6 C        2.919    -0.011    28.283     8.721
     8   6 C        2.921    -0.026    28.650     8.778
     9   6 C        2.977     0.001    27.999     8.680
    10   6 C        3.078     0.141    24.854     8.173
    11   7 N        2.793    -0.064    22.472     7.041
    12   6 C        3.087     0.056    26.650     8.462
    13   6 C        3.109     0.043    26.902     8.498
    14   7 N        2.832     0.038    20.574     6.737
    15   6 C        3.691    -0.071    22.043     6.718
    16   6 C        2.909    -0.032    28.807     8.801
    17   6 C        2.926    -0.019    28.487     8.753
    18   6 C        2.927    -0.018    28.452     8.747
    19   6 C        2.909    -0.034    28.850     8.807
    20   1 H        0.804     0.351     0.587     1.203
    21   1 H        0.926     0.090     1.877     2.142
    22   1 H        0.926     0.080     1.981     2.201
    23   1 H        0.926     0.079     1.992     2.207
    24   1 H        0.926     0.061     2.189     2.314
    25   1 H        0.860     0.212     1.045     1.602
    26   1 H        0.925     0.083     1.946     2.181
    27   1 H        0.924     0.098     1.800     2.098
    28   1 H        0.925     0.096     1.822     2.111
    29   1 H        0.926     0.071     2.071     2.250
    30   1 H        0.926     0.079     1.993     2.208
    31   1 H        0.926     0.079     1.985     2.203
    32   1 H        0.926     0.072     2.065     2.247

Wiberg/Mayer (AO) data.
largest (>0.10) Wiberg bond orders for each atom

     #   Z sym  total        # sym  WBO       # sym  WBO       # sym  WBO
 ---------------------------------------------------------------------------
     1   8 O    2.247 --     2 C    1.179    20 H    0.852     3 O    0.176
     2   6 C    3.920 --     3 O    1.691     1 O    1.179     4 C    1.002
     3   8 O    2.033 --     2 C    1.691     1 O    0.176
     4   6 C    3.983 --     5 C    1.399     9 C    1.339     2 C    1.002
                             7 C    0.101
     5   6 C    3.983 --     6 C    1.442     4 C    1.399    21 H    0.960
                             8 C    0.101
     6   6 C    3.985 --     5 C    1.442     7 C    1.438    22 H    0.966
                             9 C    0.106
     7   6 C    3.985 --     6 C    1.438     8 C    1.426    23 H    0.965
                             4 C    0.101
     8   6 C    3.985 --     7 C    1.426     9 C    1.416    24 H    0.968
                             5 C    0.101
     9   6 C    3.980 --     8 C    1.416     4 C    1.339    10 C    1.008
                             6 C    0.106
    10   6 C    3.953 --    14 N    1.351    11 N    1.320     9 C    1.008
    11   7 N    3.603 --    10 C    1.320    12 C    1.125    25 H    0.927
    12   6 C    3.949 --    19 C    1.348    13 C    1.279    11 N    1.125
    13   6 C    3.951 --    16 C    1.346    12 C    1.279    14 N    1.114
    14   7 N    3.675 --    10 C    1.351    13 C    1.114    15 C    0.993
    15   6 C    3.943 --    14 N    0.993    26 H    0.976    28 H    0.968
                            27 H    0.963
    16   6 C    3.984 --    17 C    1.487    13 C    1.346    29 H    0.964
                            19 C    0.118
    17   6 C    3.984 --    16 C    1.487    18 C    1.386    30 H    0.966
    18   6 C    3.983 --    19 C    1.485    17 C    1.386    31 H    0.966
    19   6 C    3.983 --    18 C    1.485    12 C    1.348    32 H    0.964
                            16 C    0.118
    20   1 H    0.876 --     1 O    0.852
    21   1 H    0.990 --     5 C    0.960
    22   1 H    0.993 --     6 C    0.966
    23   1 H    0.992 --     7 C    0.965
    24   1 H    0.996 --     8 C    0.968
    25   1 H    0.954 --    11 N    0.927
    26   1 H    0.993 --    15 C    0.976
    27   1 H    0.990 --    15 C    0.963
    28   1 H    0.991 --    15 C    0.968
    29   1 H    0.994 --    16 C    0.964
    30   1 H    0.993 --    17 C    0.966
    31   1 H    0.993 --    18 C    0.966
    32   1 H    0.994 --    19 C    0.964
 ---------------------------------------------------------------------------

molecular dipole:
                 x           y           z       tot (Debye)
 q only:       -1.737      -0.256      -1.754
   full:       -1.816      -0.558      -1.764       6.589

           -------------------------------------------------
          | TOTAL ENERGY              -52.383125469815 Eh   |
          | GRADIENT NORM               0.000363775394 Eh/α |
          | HOMO-LUMO GAP               3.339433572267 eV   |
           -------------------------------------------------

 * finished run on 2024/12/20 at 07:14:43.293
