   * xtb version 6.7.1 (edcfbbe) compiled by 'conda@3ef47c1a292c' on 2024-11-25

   ID    Z sym.   atoms
    1   35 Br     1
    2    6 C      2-13, 15-20, 22, 24-30
    3    7 N      14, 21, 23
    4    1 H      31-67

          program call               : xtb C1192.xyz --opt --namespace C1192 --charge +1
          :  Hamiltonian                  GFN2-xTB          :
 * total energy  :   -87.0706152 Eh     change       -0.1272397E-08 Eh
 * total energy  :   -87.0761844 Eh     change       -0.5569283E-02 Eh
 * total energy  :   -87.0773009 Eh     change       -0.1116442E-02 Eh
 * total energy  :   -87.0777631 Eh     change       -0.4622576E-03 Eh
 * total energy  :   -87.0782328 Eh     change       -0.4696992E-03 Eh
 * total energy  :   -87.0785839 Eh     change       -0.3510262E-03 Eh
 * total energy  :   -87.0789045 Eh     change       -0.3205916E-03 Eh
 * total energy  :   -87.0791818 Eh     change       -0.2773071E-03 Eh
 * total energy  :   -87.0794182 Eh     change       -0.2364541E-03 Eh
 * total energy  :   -87.0796464 Eh     change       -0.2281277E-03 Eh
 * total energy  :   -87.0843354 Eh     change       -0.2993818E-04 Eh
 * total energy  :   -87.0843634 Eh     change       -0.2796126E-04 Eh
 * total energy  :   -87.0843834 Eh     change       -0.2003898E-04 Eh
 * total energy  :   -87.0843974 Eh     change       -0.1398281E-04 Eh
 * total energy  :   -87.0844092 Eh     change       -0.1175328E-04 Eh
 * total energy  :   -87.0844201 Eh     change       -0.1092580E-04 Eh
 * total energy  :   -87.0844310 Eh     change       -0.1091407E-04 Eh
 * total energy  :   -87.0844401 Eh     change       -0.9055325E-05 Eh
 * total energy  :   -87.0844426 Eh     change       -0.2513201E-05 Eh
   *** GEOMETRY OPTIMIZATION CONVERGED AFTER 68 ITERATIONS ***

 final structure:
================
67
 xtb: 6.7.1 (edcfbbe)
Br           0.71869814798594       -0.40080102450825        0.18104064887893
C            2.58318781933327       -0.86215152212258       -0.20682672699922
C            2.84727629852526       -0.95895965181555       -1.69871370111388
C            2.53035729730111        0.31768412079719       -2.47913887796743
C            3.29006587322011        1.56445467834769       -2.02354525738310
C            4.81392511632366        1.47011006035951       -2.12254890874055
C            5.35452418937257        1.21799764935084       -3.53227703398285
C            4.92736059968240        2.24398977834946       -4.58478508010913
C            5.27725109284776        3.69657628739004       -4.25563577878696
C            6.77475914774495        3.98956985979318       -4.13581819385384
C            7.54117365394435        3.92022050788413       -5.45939005279633
C            7.23863290394423        5.07795562914179       -6.41458716895657
C            7.84902614012048        6.41121411286274       -5.96744279045881
N            9.28628671243270        6.44190480935575       -6.14242845217799
C           10.24505326968910        6.18412707489913       -5.16889206231584
C           10.13693463461501        5.86232859308955       -3.82617547302247
C           11.31429271008789        5.67107223048324       -3.12618396405238
C           12.55765164047933        5.79723346675315       -3.74014062691875
C           12.67383348496851        6.12271363579241       -5.07938138919280
C           11.49885244440141        6.31528238014503       -5.78623699773719
N           11.25951220204047        6.64554714323936       -7.11446931144869
C            9.92871626732103        6.70784216300670       -7.29225445201491
N            9.33951924478966        7.04684140932402       -8.44419787614156
C           12.25489237947678        6.92008293712952       -8.13430685646047
C           11.99248932475195        6.13043840647062       -9.39433850550729
C           11.86344582781301        6.77395184696606      -10.62046485253911
C           11.62558436869649        6.03978706645696      -11.77120883313953
C           11.50268194158534        4.66249791336041      -11.70181410445342
C           11.62554473747914        4.01701358580552      -10.48152429751193
C           11.87137997400258        4.74626424638265       -9.33202049388615
H            3.18758049666918       -0.09203718510773        0.26894642591826
H            2.76150506372273       -1.81756501631998        0.28508738722590
H            3.89873579417332       -1.22916783557422       -1.82755016815110
H            2.24580569978453       -1.77155691349637       -2.11371753150238
H            2.73278546728922        0.12984305528357       -3.53505832010550
H            1.46148992475621        0.52373335518182       -2.38779841754734
H            2.94039002112248        2.40732832017097       -2.62253538442558
H            3.02625100922164        1.79012644132502       -0.98834334023092
H            5.23924248602089        2.39790173397721       -1.73285017583216
H            5.17128158017771        0.66548395432205       -1.47598936821167
H            6.44546889599716        1.18244197532870       -3.47857032390806
H            5.02494420130610        0.23430328246610       -3.87173348740716
H            5.38120874335343        1.96358154838201       -5.53829707856926
H            3.84655763951968        2.18361712078771       -4.72053641459250
H            4.83949178188053        4.33679217292220       -5.02503966423460
H            4.80202585099821        3.96820780396243       -3.31256013241485
H            6.89085028910913        4.98141475883351       -3.69208108242382
H            7.22067788412891        3.27582164172854       -3.44284846183426
H            8.61448559841798        3.89407261046007       -5.25483745116005
H            7.28764981059142        2.98642533003398       -5.96111418322862
H            7.61518977917005        4.82714031609275       -7.40975458056416
H            6.15972274444889        5.20896539890654       -6.49408773202136
H            7.41394050081723        7.24140015239278       -6.53100628580858
H            7.64319914585538        6.58440058275442       -4.91123885524971
H            9.18174492984514        5.75748091030543       -3.33999397197867
H           11.26781416501625        5.41817617463170       -2.07929530636334
H           13.45105602621567        5.63960750076071       -3.15785964414135
H           13.64207902532132        6.22192982900694       -5.54195305271541
H            8.34229224309688        6.96387166536782       -8.54031133681963
H            9.89799336077315        7.07353687616587       -9.28597403200756
H           12.26650666212985        7.99391033159630       -8.35052575020419
H           13.22628656467593        6.64563421686681       -7.71817605684467
H           11.97195256842598        7.84794868455767      -10.67957702328605
H           11.53957486695008        6.54572017344164      -12.71995708287080
H           11.31920041062484        4.09150883796582      -12.59810653461713
H           11.53942402116427        2.94310223509705      -10.42652183368810
H           11.98005530228176        4.24106856497438       -8.38276627742397

          :  Hamiltonian                  GFN2-xTB          :
         :: total energy             -87.084442569587 Eh    ::
         :: gradient norm              0.000226980046 Eh/a0 ::
         :: HOMO-LUMO gap              1.745355945505 eV    ::
         :: SCC energy               -88.430623981138 Eh    ::
         :: -> dispersion             -0.069702979646 Eh    ::
         :: repulsion energy           1.346181411551 Eh    ::

    * Orbital Energies and Occupations

         #    Occupation            Energy/Eh            Energy/eV
      -------------------------------------------------------------
         1        2.0000           -0.8715584             -23.7163
       ...           ...                  ...                  ...
        69        2.0000           -0.5231967             -14.2369
        70        2.0000           -0.5219689             -14.2035
        71        2.0000           -0.5208473             -14.1730
        72        2.0000           -0.5194552             -14.1351
        73        2.0000           -0.5158601             -14.0373
        74        2.0000           -0.5050572             -13.7433
        75        2.0000           -0.5045667             -13.7300
        76        2.0000           -0.4997812             -13.5997
        77        2.0000           -0.4866238             -13.2417
        78        2.0000           -0.4816724             -13.1070
        79        2.0000           -0.4809300             -13.0868
        80        2.0000           -0.4434963             -12.0681
        81        2.0000           -0.4417693             -12.0212 (HOMO)
        82                         -0.3776287             -10.2758 (LUMO)
        83                         -0.3470828              -9.4446
        84                         -0.3452246              -9.3940
        85                         -0.3415212              -9.2933
        86                         -0.3326426              -9.0517
        87                         -0.2534061              -6.8955
        88                         -0.2201999              -5.9919
        89                         -0.2171689              -5.9095
        90                         -0.1761904              -4.7944
        91                         -0.1293167              -3.5189
        92                         -0.1230929              -3.3495
       ...                                ...                  ...
       162                          0.5613117              15.2741
      -------------------------------------------------------------
                  HL-Gap            0.0641407 Eh            1.7454 eV

     #   Z          covCN         q      C6AA      α(0)
     1  35 Br       0.970    -0.199   190.530    22.256
     2   6 C        3.740     0.025    20.231     6.418
     3   6 C        3.853    -0.053    21.488     6.593
     4   6 C        3.801    -0.059    21.637     6.623
     5   6 C        3.800    -0.058    21.626     6.621
     6   6 C        3.800    -0.057    21.604     6.618
     7   6 C        3.800    -0.058    21.616     6.620
     8   6 C        3.800    -0.059    21.644     6.624
     9   6 C        3.800    -0.061    21.676     6.629
    10   6 C        3.800    -0.061    21.667     6.627
    11   6 C        3.800    -0.064    21.720     6.635
    12   6 C        3.801    -0.068    21.804     6.648
    13   6 C        3.739    -0.015    20.919     6.526
    14   7 N        2.818    -0.028    21.786     6.932
    15   6 C        3.089     0.039    27.022     8.521
    16   6 C        2.911    -0.037    28.920     8.818
    17   6 C        2.926    -0.024    28.610     8.772
    18   6 C        2.926    -0.024    28.591     8.769
    19   6 C        2.910    -0.037    28.920     8.818
    20   6 C        3.087     0.037    27.075     8.529
    21   7 N        2.821    -0.029    21.802     6.935
    22   6 C        3.000     0.196    23.823     8.007
    23   7 N        2.638    -0.249    26.495     7.645
    24   6 C        3.745    -0.018    20.968     6.532
    25   6 C        2.970    -0.008    28.212     8.712
    26   6 C        2.922    -0.045    29.115     8.849
    27   6 C        2.918    -0.025    28.618     8.773
    28   6 C        2.920    -0.023    28.570     8.765
    29   6 C        2.919    -0.024    28.597     8.769
    30   6 C        2.922    -0.038    28.950     8.823
    31   1 H        0.926     0.056     2.243     2.342
    32   1 H        0.926     0.054     2.275     2.359
    33   1 H        0.924     0.039     2.457     2.451
    34   1 H        0.924     0.046     2.365     2.405
    35   1 H        0.924     0.034     2.524     2.484
    36   1 H        0.924     0.052     2.292     2.367
    37   1 H        0.924     0.034     2.526     2.486
    38   1 H        0.924     0.036     2.497     2.471
    39   1 H        0.924     0.027     2.623     2.533
    40   1 H        0.924     0.029     2.604     2.524
    41   1 H        0.924     0.025     2.661     2.551
    42   1 H        0.924     0.035     2.513     2.479
    43   1 H        0.924     0.026     2.646     2.544
    44   1 H        0.924     0.041     2.440     2.443
    45   1 H        0.924     0.027     2.634     2.538
    46   1 H        0.924     0.044     2.396     2.421
    47   1 H        0.924     0.022     2.703     2.571
    48   1 H        0.925     0.046     2.370     2.408
    49   1 H        0.924     0.028     2.608     2.526
    50   1 H        0.925     0.054     2.277     2.360
    51   1 H        0.924     0.034     2.529     2.487
    52   1 H        0.925     0.066     2.130     2.283
    53   1 H        0.924     0.060     2.199     2.319
    54   1 H        0.925     0.087     1.904     2.158
    55   1 H        0.926     0.067     2.122     2.278
    56   1 H        0.926     0.072     2.065     2.247
    57   1 H        0.926     0.072     2.061     2.245
    58   1 H        0.926     0.062     2.177     2.307
    59   1 H        0.860     0.217     1.025     1.586
    60   1 H        0.860     0.223     0.994     1.562
    61   1 H        0.924     0.071     2.075     2.253
    62   1 H        0.924     0.089     1.886     2.148
    63   1 H        0.926     0.041     2.429     2.437
    64   1 H        0.926     0.056     2.243     2.342
    65   1 H        0.926     0.058     2.222     2.331
    66   1 H        0.926     0.054     2.271     2.357
    67   1 H        0.926     0.036     2.497     2.471

Wiberg/Mayer (AO) data.
largest (>0.10) Wiberg bond orders for each atom

     #   Z sym  total        # sym  WBO       # sym  WBO       # sym  WBO
 ---------------------------------------------------------------------------
     1  35 Br   1.016 --     2 C    0.959
     2   6 C    3.954 --     3 C    1.019    32 H    0.979    31 H    0.976
                             1 Br   0.959
     3   6 C    3.995 --     2 C    1.019     4 C    1.008    34 H    0.976
                            33 H    0.964
     4   6 C    3.995 --     5 C    1.008     3 C    1.008    35 H    0.974
                            36 H    0.972
     5   6 C    3.997 --     4 C    1.008     6 C    1.008    38 H    0.974
                            37 H    0.974
     6   6 C    3.998 --     5 C    1.008     7 C    1.007    39 H    0.975
                            40 H    0.975
     7   6 C    3.997 --     8 C    1.008     6 C    1.007    41 H    0.975
                            42 H    0.975
     8   6 C    3.997 --     9 C    1.008     7 C    1.008    44 H    0.974
                            43 H    0.974
     9   6 C    3.996 --     8 C    1.008    10 C    1.007    46 H    0.973
                            45 H    0.973
    10   6 C    3.996 --    11 C    1.008     9 C    1.007    48 H    0.972
                            47 H    0.971
    11   6 C    3.994 --    10 C    1.008    12 C    1.007    49 H    0.976
                            50 H    0.970
    12   6 C    3.988 --    11 C    1.007    13 C    0.991    51 H    0.975
                            52 H    0.966
    13   6 C    3.946 --    12 C    0.991    14 N    0.969    53 H    0.965
                            54 H    0.959
    14   7 N    3.600 --    22 C    1.268    15 C    1.089    13 C    0.969
    15   6 C    3.950 --    16 C    1.366    20 C    1.285    14 N    1.089
    16   6 C    3.986 --    17 C    1.465    15 C    1.366    55 H    0.961
                            19 C    0.114
    17   6 C    3.982 --    16 C    1.465    18 C    1.407    56 H    0.967
    18   6 C    3.981 --    19 C    1.465    17 C    1.407    57 H    0.967
    19   6 C    3.986 --    18 C    1.465    20 C    1.367    58 H    0.962
                            16 C    0.114
    20   6 C    3.949 --    19 C    1.367    15 C    1.285    21 N    1.089
    21   7 N    3.597 --    22 C    1.265    20 C    1.089    24 C    0.963
    22   6 C    3.972 --    23 N    1.270    14 N    1.268    21 N    1.265
    23   7 N    3.354 --    22 C    1.270    59 H    0.929    60 H    0.908
    24   6 C    3.946 --    25 C    0.993    21 N    0.963    61 H    0.960
                            62 H    0.954
    25   6 C    3.983 --    30 C    1.407    26 C    1.407    24 C    0.993
                            28 C    0.109
    26   6 C    3.990 --    27 C    1.436    25 C    1.407    63 H    0.967
                            29 C    0.109
    27   6 C    3.990 --    28 C    1.443    26 C    1.436    64 H    0.969
                            30 C    0.112
    28   6 C    3.989 --    27 C    1.443    29 C    1.434    65 H    0.969
                            25 C    0.109
    29   6 C    3.991 --    30 C    1.449    28 C    1.434    66 H    0.969
                            26 C    0.109
    30   6 C    3.992 --    29 C    1.449    25 C    1.407    67 H    0.970
                            27 C    0.112
    31   1 H    0.997 --     2 C    0.976
    32   1 H    0.997 --     2 C    0.979
    33   1 H    0.998 --     3 C    0.964
    34   1 H    0.998 --     3 C    0.976
    35   1 H    0.999 --     4 C    0.974
    36   1 H    0.997 --     4 C    0.972
    37   1 H    0.999 --     5 C    0.974
    38   1 H    0.999 --     5 C    0.974
    39   1 H    0.999 --     6 C    0.975
    40   1 H    0.999 --     6 C    0.975
    41   1 H    0.999 --     7 C    0.975
    42   1 H    0.999 --     7 C    0.975
    43   1 H    0.999 --     8 C    0.974
    44   1 H    0.998 --     8 C    0.974
    45   1 H    0.999 --     9 C    0.973
    46   1 H    0.998 --     9 C    0.973
    47   1 H    0.999 --    10 C    0.971
    48   1 H    0.998 --    10 C    0.972
    49   1 H    0.999 --    11 C    0.976
    50   1 H    0.997 --    11 C    0.970
    51   1 H    0.999 --    12 C    0.975
    52   1 H    0.995 --    12 C    0.966
    53   1 H    0.996 --    13 C    0.965
    54   1 H    0.992 --    13 C    0.959
    55   1 H    0.995 --    16 C    0.961
    56   1 H    0.994 --    17 C    0.967
    57   1 H    0.994 --    18 C    0.967
    58   1 H    0.996 --    19 C    0.962
    59   1 H    0.952 --    23 N    0.929
    60   1 H    0.949 --    23 N    0.908
    61   1 H    0.994 --    24 C    0.960
    62   1 H    0.992 --    24 C    0.954
    63   1 H    0.998 --    26 C    0.967
    64   1 H    0.997 --    27 C    0.969
    65   1 H    0.996 --    28 C    0.969
    66   1 H    0.997 --    29 C    0.969
    67   1 H    0.999 --    30 C    0.970
 ---------------------------------------------------------------------------

molecular dipole:
                 x           y           z       tot (Debye)
 q only:       19.551      11.517     -13.743
   full:       20.151      11.366     -14.016      68.754

           -------------------------------------------------
          | TOTAL ENERGY              -87.084442569587 Eh   |
          | GRADIENT NORM               0.000226980046 Eh/α |
          | HOMO-LUMO GAP               1.745355945505 eV   |
           -------------------------------------------------

 * finished run on 2024/12/20 at 07:14:31.306
