   * xtb version 6.7.1 (edcfbbe) compiled by 'conda@3ef47c1a292c' on 2024-11-25

   ID    Z sym.   atoms
    1   17 Cl     1
    2    6 C      2-8, 10, 12, 13, 15, 16
    3    8 O      9
    4    7 N      11, 14
    5    1 H      17-28

          program call               : xtb C1193.xyz --opt --namespace C1193 --charge +1
          :  Hamiltonian                  GFN2-xTB          :
 * total energy  :   -45.8730255 Eh     change       -0.1999098E-08 Eh
 * total energy  :   -45.8791025 Eh     change       -0.6076936E-02 Eh
 * total energy  :   -45.8805979 Eh     change       -0.1495402E-02 Eh
 * total energy  :   -45.8794415 Eh     change        0.1156425E-02 Eh
 * total energy  :   -45.8808549 Eh     change       -0.1413409E-02 Eh
 * total energy  :   -45.8809358 Eh     change       -0.8093913E-04 Eh
 * total energy  :   -45.8810044 Eh     change       -0.6855411E-04 Eh
 * total energy  :   -45.8810417 Eh     change       -0.3733284E-04 Eh
 * total energy  :   -45.8811034 Eh     change       -0.6172031E-04 Eh
 * total energy  :   -45.8812121 Eh     change       -0.1087042E-03 Eh
 * total energy  :   -45.8930278 Eh     change       -0.5196761E-04 Eh
 * total energy  :   -45.8930649 Eh     change       -0.3705443E-04 Eh
 * total energy  :   -45.8930866 Eh     change       -0.2174868E-04 Eh
 * total energy  :   -45.8931228 Eh     change       -0.3617421E-04 Eh
 * total energy  :   -45.8931509 Eh     change       -0.2808689E-04 Eh
 * total energy  :   -45.8931640 Eh     change       -0.1309458E-04 Eh
 * total energy  :   -45.8931922 Eh     change       -0.2825105E-04 Eh
 * total energy  :   -45.8932070 Eh     change       -0.1481623E-04 Eh
 * total energy  :   -45.8932098 Eh     change       -0.2822605E-05 Eh
   *** GEOMETRY OPTIMIZATION CONVERGED AFTER 102 ITERATIONS ***

 final structure:
================
28
 xtb: 6.7.1 (edcfbbe)
Cl          -1.33536188425526       -2.26545307024077        1.90013971020541
C           -0.23700848728545       -1.23294911230756        1.09139699175939
C           -0.23677479740956       -1.16919547818963       -0.30017143326008
C            0.64797238665937       -0.33182362794098       -0.93953267434095
C            1.55486474748022        0.45338015527935       -0.21114191517148
C            1.54246014013547        0.37731405153002        1.18773814225023
C            0.65316261513564       -0.45499963383798        1.83071275904034
C            2.44444352705680        1.31992645235969       -0.96876617425543
O            2.39135895882660        1.48747053844866       -2.16661021449982
C            3.53060738110607        2.10265991116291       -0.16910960831182
N            4.43011845183547        2.69378282512892       -1.11462204047073
C            5.73421053111587        2.35864334899284       -1.32958684433755
C            6.13365704899914        2.99733781165879       -2.46210659137278
N            5.06443817702217        3.70060743677026       -2.93158306693459
C            4.04232331020931        3.49470000196838       -2.10802265551401
C            5.05329001869914        4.50132109472929       -4.12542162319219
H           -0.92862824619288       -1.77191122072480       -0.86606724044625
H            0.66189366269897       -0.26656123169028       -2.01683154636734
H            2.21327800755301        0.97475869317936        1.78457179980508
H            0.63867134782088       -0.50941597433209        2.90747173496997
H            3.02893952689900        2.87468959234963        0.42093961135127
H            4.08354459644704        1.43614939828750        0.49205590157236
H            6.27942306026488        1.70889003589663       -0.67601946819707
H            7.08395220602525        2.99678801777735       -2.95579140297213
H            3.06458249918109        3.92136272686065       -2.21539205760355
H            4.09348189680521        5.00285406697180       -4.22423394709596
H            5.84710054337756        5.24742633125959       -4.08443833479876
H            5.21393877379933        3.87012685865025       -5.00047781180470

          :  Hamiltonian                  GFN2-xTB          :
         :: total energy             -45.893209848964 Eh    ::
         :: gradient norm              0.000363245652 Eh/a0 ::
         :: HOMO-LUMO gap              2.502857198163 eV    ::
         :: SCC energy               -46.549210989030 Eh    ::
         :: -> dispersion             -0.026316952388 Eh    ::
         :: repulsion energy           0.656001140066 Eh    ::

    * Orbital Energies and Occupations

         #    Occupation            Energy/Eh            Energy/eV
      -------------------------------------------------------------
         1        2.0000           -1.1497041             -31.2850
       ...           ...                  ...                  ...
        29        2.0000           -0.6246016             -16.9963
        30        2.0000           -0.6137144             -16.7000
        31        2.0000           -0.6097910             -16.5933
        32        2.0000           -0.6027996             -16.4030
        33        2.0000           -0.5999900             -16.3266
        34        2.0000           -0.5794381             -15.7673
        35        2.0000           -0.5703564             -15.5202
        36        2.0000           -0.5626340             -15.3101
        37        2.0000           -0.5516488             -15.0111
        38        2.0000           -0.5375405             -14.6272
        39        2.0000           -0.5357077             -14.5773
        40        2.0000           -0.5152556             -14.0208
        41        2.0000           -0.5066231             -13.7859 (HOMO)
        42                         -0.4146448             -11.2831 (LUMO)
        43                         -0.3960837             -10.7780
        44                         -0.3634202              -9.8892
        45                         -0.3509742              -9.5505
        46                         -0.3225886              -8.7781
        47                         -0.2272431              -6.1836
        48                         -0.2162663              -5.8849
        49                         -0.1733555              -4.7172
        50                         -0.1233006              -3.3552
        51                         -0.0881559              -2.3988
        52                         -0.0843677              -2.2958
       ...                                ...                  ...
        81                          0.5367796              14.6065
      -------------------------------------------------------------
                  HL-Gap            0.0919783 Eh            2.5029 eV

     #   Z          covCN         q      C6AA      α(0)
     1  17 Cl       0.971    -0.094   102.070    15.456
     2   6 C        2.887     0.119    25.392     8.261
     3   6 C        2.952    -0.031    28.762     8.796
     4   6 C        2.928    -0.008    28.219     8.712
     5   6 C        2.969    -0.021    28.517     8.759
     6   6 C        2.919    -0.025    28.632     8.775
     7   6 C        2.955    -0.032    28.794     8.801
     8   6 C        2.823     0.227    23.242     7.899
     9   8 O        0.857    -0.358    20.856     6.123
    10   6 C        3.743    -0.053    21.594     6.629
    11   7 N        2.872     0.074    19.958     6.635
    12   6 C        3.066    -0.007    28.138     8.698
    13   6 C        3.072    -0.009    28.155     8.700
    14   7 N        2.867     0.080    19.858     6.618
    15   6 C        3.095     0.058    26.596     8.452
    16   6 C        3.693    -0.086    22.335     6.762
    17   1 H        0.926     0.087     1.908     2.160
    18   1 H        0.926     0.087     1.904     2.158
    19   1 H        0.926     0.056     2.244     2.343
    20   1 H        0.926     0.083     1.946     2.182
    21   1 H        0.924     0.102     1.768     2.079
    22   1 H        0.925     0.102     1.765     2.078
    23   1 H        0.926     0.104     1.747     2.067
    24   1 H        0.926     0.109     1.704     2.041
    25   1 H        0.926     0.122     1.599     1.977
    26   1 H        0.925     0.100     1.783     2.088
    27   1 H        0.925     0.105     1.742     2.064
    28   1 H        0.924     0.108     1.710     2.045

Wiberg/Mayer (AO) data.
largest (>0.10) Wiberg bond orders for each atom

     #   Z sym  total        # sym  WBO       # sym  WBO       # sym  WBO
 ---------------------------------------------------------------------------
     1  17 Cl   1.203 --     2 C    1.042
     2   6 C    3.929 --     3 C    1.370     7 C    1.362     1 Cl   1.042
     3   6 C    3.985 --     4 C    1.484     2 C    1.370    17 H    0.962
     4   6 C    3.982 --     3 C    1.484     5 C    1.334    18 H    0.961
     5   6 C    3.983 --     6 C    1.341     4 C    1.334     8 C    1.093
     6   6 C    3.990 --     7 C    1.490     5 C    1.341    19 H    0.965
     7   6 C    3.986 --     6 C    1.490     2 C    1.362    20 H    0.964
     8   6 C    3.923 --     9 O    1.794     5 C    1.093    10 C    0.919
     9   8 O    2.091 --     8 C    1.794
    10   6 C    3.946 --    11 N    0.997    22 H    0.957    21 H    0.943
                             8 C    0.919
    11   7 N    3.709 --    15 C    1.341    12 C    1.214    10 C    0.997
    12   6 C    3.947 --    13 C    1.601    11 N    1.214    23 H    0.962
    13   6 C    3.948 --    12 C    1.601    14 N    1.220    24 H    0.961
    14   7 N    3.718 --    15 C    1.364    13 C    1.220    16 C    0.991
    15   6 C    3.945 --    14 N    1.364    11 N    1.341    25 H    0.952
    16   6 C    3.934 --    14 N    0.991    26 H    0.975    27 H    0.965
                            28 H    0.961
    17   1 H    0.992 --     3 C    0.962
    18   1 H    0.992 --     4 C    0.961
    19   1 H    0.997 --     6 C    0.965
    20   1 H    0.993 --     7 C    0.964
    21   1 H    0.989 --    10 C    0.943
    22   1 H    0.989 --    10 C    0.957
    23   1 H    0.989 --    12 C    0.962
    24   1 H    0.988 --    13 C    0.961
    25   1 H    0.985 --    15 C    0.952
    26   1 H    0.990 --    16 C    0.975
    27   1 H    0.988 --    16 C    0.965
    28   1 H    0.987 --    16 C    0.961
 ---------------------------------------------------------------------------

molecular dipole:
                 x           y           z       tot (Debye)
 q only:        7.975       5.191      -2.785
   full:        7.741       5.001      -2.417      24.216

           -------------------------------------------------
          | TOTAL ENERGY              -45.893209848964 Eh   |
          | GRADIENT NORM               0.000363245652 Eh/α |
          | HOMO-LUMO GAP               2.502857198163 eV   |
           -------------------------------------------------

 * finished run on 2024/12/20 at 07:14:33.164
