   * xtb version 6.7.1 (edcfbbe) compiled by 'conda@3ef47c1a292c' on 2024-11-25

   ID    Z sym.   atoms
    1    6 C      1, 3, 4, 6-9
    2    7 N      2, 5
    3    1 H      10-20

          program call               : xtb C1205.xyz --opt --namespace C1205 --charge +1
          :  Hamiltonian                  GFN2-xTB          :
 * total energy  :   -26.0815014 Eh     change       -0.8656542E-10 Eh
 * total energy  :   -26.0842633 Eh     change       -0.2761956E-02 Eh
 * total energy  :   -26.0848382 Eh     change       -0.5748987E-03 Eh
 * total energy  :   -26.0849211 Eh     change       -0.8289060E-04 Eh
 * total energy  :   -26.0849569 Eh     change       -0.3580468E-04 Eh
 * total energy  :   -26.0849660 Eh     change       -0.9140034E-05 Eh
 * total energy  :   -26.0849871 Eh     change       -0.2106051E-04 Eh
 * total energy  :   -26.0850271 Eh     change       -0.4000980E-04 Eh
 * total energy  :   -26.0850709 Eh     change       -0.4381179E-04 Eh
 * total energy  :   -26.0851184 Eh     change       -0.4746424E-04 Eh
 * total energy  :   -26.0852124 Eh     change       -0.9402184E-04 Eh
 * total energy  :   -26.0852386 Eh     change       -0.2615917E-04 Eh
 * total energy  :   -26.0852386 Eh     change       -0.3752601E-07 Eh
 * total energy  :   -26.0852494 Eh     change       -0.1079125E-04 Eh
 * total energy  :   -26.0852514 Eh     change       -0.1999330E-05 Eh
   *** GEOMETRY OPTIMIZATION CONVERGED AFTER 15 ITERATIONS ***

 final structure:
================
20
 xtb: 6.7.1 (edcfbbe)
C            0.64019430404535        0.28408593564038       -0.03321337430591
N            0.30479081175474        1.67837528502345       -0.16078754711849
C            1.12576048088202        2.73494667111231        0.13847994472200
C            0.43668128369664        3.88835378726839       -0.09215196228383
N           -0.79610094425223        3.51138935703953       -0.52086489042562
C           -0.86110109581568        2.18194087762385       -0.55674680473257
C           -2.16892614045383        1.69390488932528       -1.04674550809315
C           -3.01425545352434        2.98934570213918       -1.00402544052650
C           -2.00392097656102        4.15574538586046       -0.97894723211578
H            0.21767354425772       -0.27975825133862       -0.86368556380827
H            0.24675747880883       -0.11905128975318        0.90185833592674
H            1.72198802621524        0.16947753159282       -0.03562195301411
H            2.12735442866085        2.59311860103245        0.48980857327965
H            0.73697700991360        4.90952866826499        0.02127126738451
H           -2.59013391818527        0.90258533715572       -0.42806913727869
H           -2.07321374189497        1.30624998248953       -2.06480916481242
H           -3.61668462548335        3.00319031781650       -0.09638905696274
H           -3.68706632277420        3.06179838606197       -1.85424549902141
H           -1.83815730414076        4.57958518729951       -1.97378754471997
H           -2.30335684514934        4.95861763834553       -0.30470744209336

          :  Hamiltonian                  GFN2-xTB          :
         :: total energy             -26.085251401679 Eh    ::
         :: gradient norm              0.000601689145 Eh/a0 ::
         :: HOMO-LUMO gap              4.668680852793 eV    ::
         :: SCC energy               -26.480037050326 Eh    ::
         :: -> dispersion             -0.014020521974 Eh    ::
         :: repulsion energy           0.394785648648 Eh    ::

    * Orbital Energies and Occupations

         #    Occupation            Energy/Eh            Energy/eV
      -------------------------------------------------------------
         1        2.0000           -0.8947116             -24.3463
       ...           ...                  ...                  ...
        12        2.0000           -0.7017500             -19.0956
        13        2.0000           -0.6901183             -18.7791
        14        2.0000           -0.6764125             -18.4061
        15        2.0000           -0.6715943             -18.2750
        16        2.0000           -0.6655627             -18.1109
        17        2.0000           -0.6560501             -17.8520
        18        2.0000           -0.6527553             -17.7624
        19        2.0000           -0.6377795             -17.3549
        20        2.0000           -0.6318024             -17.1922
        21        2.0000           -0.6261564             -17.0386
        22        2.0000           -0.6115474             -16.6411
        23        2.0000           -0.5930837             -16.1386
        24        2.0000           -0.5693763             -15.4935 (HOMO)
        25                         -0.3978055             -10.8248 (LUMO)
        26                         -0.3681782             -10.0186
        27                         -0.1958601              -5.3296
        28                         -0.1470004              -4.0001
        29                         -0.1177719              -3.2047
        30                         -0.1030999              -2.8055
        31                         -0.0638882              -1.7385
        32                         -0.0387710              -1.0550
        33                         -0.0315238              -0.8578
        34                         -0.0140449              -0.3822
        35                         -0.0018469              -0.0503
       ...                                ...                  ...
        47                          0.4683552              12.7446
      -------------------------------------------------------------
                  HL-Gap            0.1715709 Eh            4.6687 eV

     #   Z          covCN         q      C6AA      α(0)
     1   6 C        3.691    -0.081    22.234     6.748
     2   7 N        2.854     0.052    20.323     6.695
     3   6 C        3.089    -0.010    28.168     8.700
     4   6 C        3.032    -0.007    28.160     8.704
     5   7 N        2.917     0.044    20.462     6.718
     6   6 C        3.203     0.101    25.223     8.182
     7   6 C        3.821    -0.074    21.895     6.659
     8   6 C        3.846    -0.076    21.910     6.658
     9   6 C        3.781    -0.022    20.994     6.527
    10   1 H        0.925     0.097     1.811     2.104
    11   1 H        0.924     0.101     1.778     2.085
    12   1 H        0.925     0.105     1.737     2.061
    13   1 H        0.926     0.106     1.727     2.055
    14   1 H        0.926     0.107     1.723     2.053
    15   1 H        0.925     0.096     1.820     2.110
    16   1 H        0.924     0.098     1.805     2.101
    17   1 H        0.925     0.081     1.965     2.192
    18   1 H        0.925     0.090     1.880     2.144
    19   1 H        0.924     0.094     1.845     2.124
    20   1 H        0.924     0.096     1.822     2.111

Wiberg/Mayer (AO) data.
largest (>0.10) Wiberg bond orders for each atom

     #   Z sym  total        # sym  WBO       # sym  WBO       # sym  WBO
 ---------------------------------------------------------------------------
     1   6 C    3.935 --     2 N    0.989    12 H    0.973    10 H    0.971
                            11 H    0.961
     2   7 N    3.697 --     6 C    1.336     3 C    1.204     1 C    0.989
     3   6 C    3.945 --     4 C    1.602     2 N    1.204    13 H    0.961
     4   6 C    3.949 --     3 C    1.602     5 N    1.220    14 H    0.962
     5   7 N    3.698 --     6 C    1.326     4 C    1.220     9 C    0.971
     6   6 C    3.949 --     2 N    1.336     5 N    1.326     7 C    1.028
     7   6 C    3.983 --     6 C    1.028     8 C    0.995    15 H    0.956
                            16 H    0.942
     8   6 C    3.982 --     9 C    1.000     7 C    0.995    17 H    0.978
                            18 H    0.975
     9   6 C    3.944 --     8 C    1.000     5 N    0.971    20 H    0.964
                            19 H    0.957
    10   1 H    0.990 --     1 C    0.971
    11   1 H    0.990 --     1 C    0.961
    12   1 H    0.989 --     1 C    0.973
    13   1 H    0.988 --     3 C    0.961
    14   1 H    0.989 --     4 C    0.962
    15   1 H    0.991 --     7 C    0.956
    16   1 H    0.990 --     7 C    0.942
    17   1 H    0.993 --     8 C    0.978
    18   1 H    0.992 --     8 C    0.975
    19   1 H    0.991 --     9 C    0.957
    20   1 H    0.990 --     9 C    0.964
 ---------------------------------------------------------------------------

molecular dipole:
                 x           y           z       tot (Debye)
 q only:       -1.280       4.462      -0.916
   full:       -1.182       4.500      -0.899      12.046

           -------------------------------------------------
          | TOTAL ENERGY              -26.085251401679 Eh   |
          | GRADIENT NORM               0.000601689145 Eh/α |
          | HOMO-LUMO GAP               4.668680852793 eV   |
           -------------------------------------------------

 * finished run on 2024/12/20 at 07:14:53.320
