   * xtb version 6.7.1 (edcfbbe) compiled by 'conda@3ef47c1a292c' on 2024-11-25

   ID    Z sym.   atoms
    1    6 C      1-6, 8-13
    2    7 N      7
    3    1 H      14-33

          program call               : xtb C1204.xyz --opt --namespace C1204 --charge +1
          :  Hamiltonian                  GFN2-xTB          :
 * total energy  :   -38.4234977 Eh     change       -0.6065761E-09 Eh
 * total energy  :   -38.4266516 Eh     change       -0.3153923E-02 Eh
 * total energy  :   -38.4272351 Eh     change       -0.5834700E-03 Eh
 * total energy  :   -38.4273968 Eh     change       -0.1616495E-03 Eh
 * total energy  :   -38.4275635 Eh     change       -0.1667808E-03 Eh
 * total energy  :   -38.4276980 Eh     change       -0.1344390E-03 Eh
 * total energy  :   -38.4278701 Eh     change       -0.1720994E-03 Eh
 * total energy  :   -38.4281005 Eh     change       -0.2304465E-03 Eh
 * total energy  :   -38.4283235 Eh     change       -0.2229977E-03 Eh
 * total energy  :   -38.4285154 Eh     change       -0.1918467E-03 Eh
 * total energy  :   -38.4321288 Eh     change       -0.1604548E-04 Eh
 * total energy  :   -38.4321447 Eh     change       -0.1589726E-04 Eh
 * total energy  :   -38.4321626 Eh     change       -0.1793790E-04 Eh
 * total energy  :   -38.4321841 Eh     change       -0.2150165E-04 Eh
 * total energy  :   -38.4322087 Eh     change       -0.2457525E-04 Eh
 * total energy  :   -38.4322290 Eh     change       -0.2029924E-04 Eh
 * total energy  :   -38.4322395 Eh     change       -0.1052195E-04 Eh
 * total energy  :   -38.4322451 Eh     change       -0.5592683E-05 Eh
 * total energy  :   -38.4322491 Eh     change       -0.3948339E-05 Eh
   *** GEOMETRY OPTIMIZATION CONVERGED AFTER 58 ITERATIONS ***

 final structure:
================
33
 xtb: 6.7.1 (edcfbbe)
C            1.08581922670224        0.72443854347194       -1.69051779574061
C           -0.03225723588861        1.08848087036665       -0.70406526385124
C            0.42113469144998        2.14237958279306        0.30706384913389
C            0.79105809597417        3.49986034742091       -0.29412798047575
C           -0.32399777898997        4.18024472333336       -1.09101529599660
C           -1.57312715015808        4.45369884665211       -0.26177944946781
N            0.65172931769859       -0.35072662179069       -2.56314210253600
C            0.76518786195734       -1.61752826469989       -2.14818822621935
C            0.29979362259205       -2.68549147473609       -2.89927937823353
C           -0.30268411184033       -2.39380490087165       -4.12697611084824
C           -0.41295462940706       -1.07752242916824       -4.54107720522739
C            0.07297458548257       -0.06820793039283       -3.73275379265374
C            0.43712271534906       -4.08542298596094       -2.41836244050505
H            1.97188006569475        0.40450556077817       -1.13867417650412
H            1.34375097331651        1.59297974094648       -2.29688194362076
H           -0.89989473509562        1.45226080838520       -1.25570427782353
H           -0.33388008174229        0.18925429927002       -0.16190032217434
H           -0.38674680537095        2.28216482659120        1.02501875875524
H            1.28251514959084        1.75989718337499        0.85849847858311
H            1.06966097918918        4.15643422057001        0.53144182792318
H            1.67451371747111        3.39762334111085       -0.92871571247349
H            0.06500194522406        5.13016905849328       -1.46180986301686
H           -0.59087294966668        3.58169399315952       -1.96572914377136
H           -1.31565568033318        5.00416068885157        0.63907563290240
H           -2.27847081179346        5.05075665155708       -0.83371425810112
H           -2.07125281957302        3.53174849669209        0.02779802055929
H            1.24274559314877       -1.77787977774706       -1.19239793860716
H           -0.67728249801936       -3.19538132760939       -4.74469457241684
H           -0.87211644490666       -0.82930998671308       -5.48426099788847
H            0.00548453001133        0.97058193040028       -4.01816710671282
H           -0.53873551530462       -4.56672996311711       -2.38085608113089
H            1.05128325605637       -4.66001166444649       -3.11029287030813
H            0.88894292118410       -4.12870638697468       -1.43218226153715

          :  Hamiltonian                  GFN2-xTB          :
         :: total energy             -38.432249074840 Eh    ::
         :: gradient norm              0.000302639298 Eh/a0 ::
         :: HOMO-LUMO gap              1.873128385274 eV    ::
         :: SCC energy               -39.060671268796 Eh    ::
         :: -> dispersion             -0.024756629400 Eh    ::
         :: repulsion energy           0.628422193956 Eh    ::

    * Orbital Energies and Occupations

         #    Occupation            Energy/Eh            Energy/eV
      -------------------------------------------------------------
         1        2.0000           -0.8722546             -23.7353
       ...           ...                  ...                  ...
        24        2.0000           -0.6147105             -16.7271
        25        2.0000           -0.6133150             -16.6891
        26        2.0000           -0.6054562             -16.4753
        27        2.0000           -0.6019409             -16.3796
        28        2.0000           -0.5952302             -16.1970
        29        2.0000           -0.5864672             -15.9586
        30        2.0000           -0.5840846             -15.8938
        31        2.0000           -0.5653208             -15.3832
        32        2.0000           -0.5577120             -15.1761
        33        2.0000           -0.5505990             -14.9826
        34        2.0000           -0.5276308             -14.3576
        35        2.0000           -0.5233377             -14.2407
        36        2.0000           -0.5189205             -14.1205 (HOMO)
        37                         -0.4500843             -12.2474 (LUMO)
        38                         -0.4166767             -11.3384
        39                         -0.3001040              -8.1662
        40                         -0.1680023              -4.5716
        41                         -0.0748192              -2.0359
        42                         -0.0510239              -1.3884
        43                         -0.0440747              -1.1993
        44                         -0.0376427              -1.0243
        45                         -0.0216075              -0.5880
        46                         -0.0135185              -0.3679
        47                         -0.0072835              -0.1982
       ...                                ...                  ...
        72                          0.4456128              12.1257
      -------------------------------------------------------------
                  HL-Gap            0.0688362 Eh            1.8731 eV

     #   Z          covCN         q      C6AA      α(0)
     1   6 C        3.761    -0.035    21.238     6.570
     2   6 C        3.801    -0.063    21.704     6.633
     3   6 C        3.801    -0.066    21.762     6.642
     4   6 C        3.801    -0.067    21.778     6.644
     5   6 C        3.799    -0.055    21.560     6.611
     6   6 C        3.752    -0.109    22.641     6.786
     7   7 N        2.749     0.105    19.430     6.547
     8   6 C        2.900     0.017    27.640     8.620
     9   6 C        2.961     0.049    26.895     8.506
    10   6 C        2.930    -0.003    28.106     8.694
    11   6 C        2.913    -0.014    28.369     8.734
    12   6 C        2.893     0.026    27.423     8.586
    13   6 C        3.759    -0.133    23.116     6.854
    14   1 H        0.924     0.089     1.887     2.148
    15   1 H        0.924     0.093     1.850     2.127
    16   1 H        0.924     0.059     2.208     2.324
    17   1 H        0.924     0.048     2.349     2.397
    18   1 H        0.925     0.066     2.127     2.281
    19   1 H        0.924     0.044     2.400     2.423
    20   1 H        0.924     0.054     2.268     2.355
    21   1 H        0.924     0.028     2.613     2.528
    22   1 H        0.924     0.043     2.412     2.429
    23   1 H        0.924     0.019     2.756     2.596
    24   1 H        0.925     0.046     2.374     2.410
    25   1 H        0.925     0.044     2.400     2.423
    26   1 H        0.925     0.033     2.539     2.492
    27   1 H        0.926     0.102     1.764     2.077
    28   1 H        0.926     0.101     1.777     2.085
    29   1 H        0.926     0.103     1.754     2.071
    30   1 H        0.926     0.104     1.747     2.067
    31   1 H        0.925     0.096     1.822     2.111
    32   1 H        0.925     0.097     1.811     2.104
    33   1 H        0.925     0.078     2.004     2.214

Wiberg/Mayer (AO) data.
largest (>0.10) Wiberg bond orders for each atom

     #   Z sym  total        # sym  WBO       # sym  WBO       # sym  WBO
 ---------------------------------------------------------------------------
     1   6 C    3.932 --     2 C    0.973     7 N    0.963    14 H    0.962
                            15 H    0.961
     2   6 C    3.983 --     3 C    1.000    17 H    0.975     1 C    0.973
                            16 H    0.972
     3   6 C    3.988 --     4 C    1.008     2 C    1.000    19 H    0.976
                            18 H    0.967
     4   6 C    3.994 --     3 C    1.008     5 C    1.008    21 H    0.975
                            20 H    0.974
     5   6 C    3.997 --     6 C    1.020     4 C    1.008    22 H    0.977
                            23 H    0.976
     6   6 C    3.995 --     5 C    1.020    24 H    0.987    25 H    0.986
                            26 H    0.986
     7   7 N    3.765 --    12 C    1.332     8 C    1.321     1 C    0.963
     8   6 C    3.958 --     9 C    1.420     7 N    1.321    27 H    0.954
     9   6 C    3.981 --     8 C    1.420    10 C    1.369    13 C    1.046
    10   6 C    3.973 --    11 C    1.447     9 C    1.369    28 H    0.961
    11   6 C    3.982 --    10 C    1.447    12 C    1.442    29 H    0.960
    12   6 C    3.958 --    11 C    1.442     7 N    1.332    30 H    0.955
    13   6 C    3.982 --     9 C    1.046    33 H    0.980    31 H    0.953
                            32 H    0.950
    14   1 H    0.992 --     1 C    0.962
    15   1 H    0.991 --     1 C    0.961
    16   1 H    0.996 --     2 C    0.972
    17   1 H    0.998 --     2 C    0.975
    18   1 H    0.993 --     3 C    0.967
    19   1 H    0.998 --     3 C    0.976
    20   1 H    0.996 --     4 C    0.974
    21   1 H    0.999 --     4 C    0.975
    22   1 H    0.998 --     5 C    0.977
    23   1 H    1.000 --     5 C    0.976
    24   1 H    0.998 --     6 C    0.987
    25   1 H    0.998 --     6 C    0.986
    26   1 H    0.999 --     6 C    0.986
    27   1 H    0.990 --     8 C    0.954
    28   1 H    0.990 --    10 C    0.961
    29   1 H    0.989 --    11 C    0.960
    30   1 H    0.989 --    12 C    0.955
    31   1 H    0.991 --    13 C    0.953
    32   1 H    0.990 --    13 C    0.950
    33   1 H    0.994 --    13 C    0.980
 ---------------------------------------------------------------------------

molecular dipole:
                 x           y           z       tot (Debye)
 q only:        0.639      -1.567      -4.870
   full:        0.678      -1.577      -4.956      13.330

           -------------------------------------------------
          | TOTAL ENERGY              -38.432249074840 Eh   |
          | GRADIENT NORM               0.000302639298 Eh/α |
          | HOMO-LUMO GAP               1.873128385274 eV   |
           -------------------------------------------------

 * finished run on 2024/12/20 at 07:14:52.873
