   * xtb version 6.7.1 (edcfbbe) compiled by 'conda@3ef47c1a292c' on 2024-11-25

   ID    Z sym.   atoms
    1    6 C      1-4, 7, 9-17
    2    7 N      5, 6, 8
    3    9 F      18-30
    4    1 H      31-45

          program call               : xtb C1200.xyz --opt --namespace C1200 --charge +1
          :  Hamiltonian                  GFN2-xTB          :
 * total energy  :  -107.4708640 Eh     change       -0.1244445E-09 Eh
 * total energy  :  -107.4842652 Eh     change       -0.1340123E-01 Eh
 * total energy  :  -107.4885877 Eh     change       -0.4322481E-02 Eh
 * total energy  :  -107.4893855 Eh     change       -0.7978043E-03 Eh
 * total energy  :  -107.4898262 Eh     change       -0.4406957E-03 Eh
 * total energy  :  -107.4899929 Eh     change       -0.1666537E-03 Eh
 * total energy  :  -107.4901317 Eh     change       -0.1387883E-03 Eh
 * total energy  :  -107.4902319 Eh     change       -0.1002242E-03 Eh
 * total energy  :  -107.4903239 Eh     change       -0.9202937E-04 Eh
 * total energy  :  -107.4904282 Eh     change       -0.1042702E-03 Eh
 * total energy  :  -107.4919493 Eh     change       -0.1428772E-04 Eh
 * total energy  :  -107.4919685 Eh     change       -0.1922666E-04 Eh
 * total energy  :  -107.4919843 Eh     change       -0.1575764E-04 Eh
 * total energy  :  -107.4920001 Eh     change       -0.1578592E-04 Eh
 * total energy  :  -107.4920093 Eh     change       -0.9245390E-05 Eh
 * total energy  :  -107.4920216 Eh     change       -0.1228321E-04 Eh
 * total energy  :  -107.4920312 Eh     change       -0.9631483E-05 Eh
 * total energy  :  -107.4920363 Eh     change       -0.5120336E-05 Eh
 * total energy  :  -107.4920399 Eh     change       -0.3581098E-05 Eh
   *** GEOMETRY OPTIMIZATION CONVERGED AFTER 69 ITERATIONS ***

 final structure:
================
45
 xtb: 6.7.1 (edcfbbe)
C            2.26927520292181       -2.18869354545563        0.22333297811441
C            1.46647575918276       -1.12420750716888       -0.51601385515319
C            1.02822601940189       -1.56089247794271       -1.91504306437199
C            0.16652856477051       -2.83021703997998       -1.92243353633335
N           -1.01673592695772       -2.65529498383861       -1.12061442620935
N           -1.13126964741805       -3.23229877452793        0.06801226800621
C           -2.25855329738533       -2.83239072723804        0.56314470371780
N           -2.88818348201413       -1.98994064127177       -0.30420035067329
C           -2.07158034514391       -1.89884238123271       -1.36423960879646
C           -4.13662320173698       -1.29074398042184       -0.09098591758192
C           -4.03180591140611       -0.24807317072494        1.02945438413861
C           -2.94718388559637        0.81720645509207        0.84402601019827
C           -3.01609969638153        1.74805253758681       -0.41201680249344
C           -4.33850006846314        2.52983151646818       -0.68004834840948
C           -4.88862269472016        3.50190457722739        0.40888854695735
C           -4.00764548327053        4.71838557774054        0.83173215920776
C           -3.65272559206692        5.71971661250292       -0.31900921454989
F           -4.70699463093480        5.97615849599618       -1.07973633326237
F           -3.20581565806371        6.84951875625980        0.19084029440813
F           -2.70146148170760        5.19655453250944       -1.08973712569596
F           -4.67200870140763        5.37581494949246        1.78875175640512
F           -2.86155418311387        4.26843674574937        1.37230778257478
F           -6.06933446543398        3.95310142101630       -0.03105647089490
F           -5.14689852843147        2.75673814167061        1.50571984420028
F           -4.20785429233086        3.18356233783978       -1.83916486951992
F           -5.29740377876651        1.58882531355847       -0.87331714209884
F           -1.97774458026581        2.58699512755697       -0.39278484239402
F           -2.83670100785120        0.94974538830907       -1.50136756794928
F           -2.88627909258927        1.58511928140429        1.94196094904070
F           -1.73164831224784        0.20184628646565        0.75191556236953
H            1.64940830767028       -3.03572314122369        0.50749184758322
H            2.68729786189651       -1.76590403564522        1.13240279317494
H            3.09209715387878       -2.54275308449685       -0.39253554258936
H            0.59835230741866       -0.83724186605754        0.08185516041591
H            2.08269541405839       -0.23194322088617       -0.63106086901700
H            0.48181353626306       -0.74687861750517       -2.39523399254961
H            1.91126403445069       -1.77171601086522       -2.51870304320529
H           -0.12766112448621       -3.07728080454004       -2.94449384219643
H            0.71708065735908       -3.66471701617706       -1.48762881043570
H           -2.63906262537594       -3.13434093989605        1.51780844021981
H           -2.24731482731553       -1.31742861748407       -2.24799938286095
H           -4.44383832887145       -0.83269917768001       -1.03268518763898
H           -4.90008085361360       -2.01715000401098        0.20202899671894
H           -4.99740758269761        0.24192030852914        1.15735392740853
H           -3.78516153124469       -0.73513259671826        1.97790174204706

          :  Hamiltonian                  GFN2-xTB          :
         :: total energy            -107.492039921749 Eh    ::
         :: gradient norm              0.000475581488 Eh/a0 ::
         :: HOMO-LUMO gap              2.861917638000 eV    ::
         :: SCC energy              -108.156255908103 Eh    ::
         :: -> dispersion             -0.045316998648 Eh    ::
         :: repulsion energy           0.664215986353 Eh    ::

    * Orbital Energies and Occupations

         #    Occupation            Energy/Eh            Energy/eV
      -------------------------------------------------------------
         1        2.0000           -1.0419717             -28.3535
       ...           ...                  ...                  ...
        76        2.0000           -0.6493264             -17.6691
        77        2.0000           -0.6411696             -17.4471
        78        2.0000           -0.6376117             -17.3503
        79        2.0000           -0.6281780             -17.0936
        80        2.0000           -0.6239986             -16.9799
        81        2.0000           -0.6155271             -16.7493
        82        2.0000           -0.6131556             -16.6848
        83        2.0000           -0.6039193             -16.4335
        84        2.0000           -0.5978235             -16.2676
        85        2.0000           -0.5861449             -15.9498
        86        2.0000           -0.5597092             -15.2305
        87        2.0000           -0.5490528             -14.9405
        88        2.0000           -0.5419092             -14.7461 (HOMO)
        89                         -0.4367356             -11.8842 (LUMO)
        90                         -0.4129361             -11.2366
        91                         -0.2430495              -6.6137
        92                         -0.2379718              -6.4755
        93                         -0.2242705              -6.1027
        94                         -0.2152977              -5.8585
        95                         -0.2110298              -5.7424
        96                         -0.1902383              -5.1766
        97                         -0.1810916              -4.9278
        98                         -0.1634176              -4.4468
        99                         -0.1361253              -3.7042
       ...                                ...                  ...
       135                          0.3496191               9.5136
      -------------------------------------------------------------
                  HL-Gap            0.1051735 Eh            2.8619 eV

     #   Z          covCN         q      C6AA      α(0)
     1   6 C        3.751    -0.119    22.849     6.817
     2   6 C        3.800    -0.063    21.718     6.635
     3   6 C        3.802    -0.072    21.884     6.660
     4   6 C        3.742    -0.042    21.398     6.599
     5   7 N        3.061     0.171    18.369     6.366
     6   7 N        2.047    -0.130    24.495     7.341
     7   6 C        3.143     0.086    25.839     8.317
     8   7 N        2.856     0.049    20.390     6.707
     9   6 C        3.066     0.051    26.791     8.488
    10   6 C        3.738    -0.029    21.176     6.566
    11   6 C        3.803    -0.098    22.370     6.734
    12   6 C        3.516     0.318    16.951     6.077
    13   6 C        3.518     0.312    17.019     6.086
    14   6 C        3.518     0.310    17.034     6.088
    15   6 C        3.517     0.315    16.985     6.081
    16   6 C        3.515     0.309    17.075     6.101
    17   6 C        3.326     0.487    17.415     6.631
    18   9 F        0.791    -0.158    10.806     3.883
    19   9 F        0.791    -0.136    10.592     3.845
    20   9 F        0.791    -0.168    10.906     3.901
    21   9 F        0.790    -0.144    10.671     3.859
    22   9 F        0.789    -0.169    10.923     3.904
    23   9 F        0.790    -0.149    10.719     3.867
    24   9 F        0.790    -0.175    10.984     3.915
    25   9 F        0.789    -0.156    10.787     3.880
    26   9 F        0.790    -0.182    11.054     3.927
    27   9 F        0.789    -0.158    10.813     3.884
    28   9 F        0.790    -0.195    11.179     3.950
    29   9 F        0.790    -0.181    11.042     3.925
    30   9 F        0.790    -0.205    11.288     3.969
    31   1 H        0.925     0.043     2.415     2.430
    32   1 H        0.925     0.057     2.234     2.338
    33   1 H        0.925     0.052     2.301     2.372
    34   1 H        0.924     0.032     2.557     2.501
    35   1 H        0.924     0.062     2.173     2.305
    36   1 H        0.924     0.053     2.285     2.364
    37   1 H        0.924     0.084     1.940     2.178
    38   1 H        0.924     0.094     1.845     2.124
    39   1 H        0.924     0.123     1.587     1.970
    40   1 H        0.926     0.124     1.585     1.969
    41   1 H        0.926     0.135     1.497     1.913
    42   1 H        0.924     0.109     1.706     2.043
    43   1 H        0.924     0.119     1.623     1.992
    44   1 H        0.924     0.118     1.627     1.995
    45   1 H        0.924     0.118     1.632     1.998

Wiberg/Mayer (AO) data.
largest (>0.10) Wiberg bond orders for each atom

     #   Z sym  total        # sym  WBO       # sym  WBO       # sym  WBO
 ---------------------------------------------------------------------------
     1   6 C    3.992 --     2 C    1.020    33 H    0.986    31 H    0.985
                            32 H    0.984
     2   6 C    3.992 --     1 C    1.020     3 C    1.007    34 H    0.978
                            35 H    0.972
     3   6 C    3.979 --     2 C    1.007    36 H    0.975     4 C    0.973
                            37 H    0.965
     4   6 C    3.917 --     3 C    0.973     5 N    0.961    39 H    0.956
                            38 H    0.956
     5   7 N    3.760 --     9 C    1.424     6 N    1.212     4 C    0.961
     6   7 N    3.034 --     7 C    1.600     5 N    1.212
     7   6 C    3.947 --     6 N    1.600     8 N    1.233    40 H    0.953
     8   7 N    3.705 --     9 C    1.322     7 C    1.233    10 C    0.977
     9   6 C    3.948 --     5 N    1.424     8 N    1.322    41 H    0.948
    10   6 C    3.944 --    11 C    0.997     8 N    0.977    42 H    0.962
                            43 H    0.953
    11   6 C    3.969 --    10 C    0.997    12 C    0.968    45 H    0.957
                            44 H    0.957
    12   6 C    3.868 --    29 F    0.975    11 C    0.968    30 F    0.942
                            13 C    0.906
    13   6 C    3.880 --    27 F    0.993    28 F    0.949    14 C    0.912
                            12 C    0.906
    14   6 C    3.889 --    25 F    0.990    26 F    0.958    13 C    0.912
                            15 C    0.910
    15   6 C    3.895 --    23 F    0.991    24 F    0.966    14 C    0.910
                            16 C    0.908
    16   6 C    3.897 --    21 F    0.993    22 F    0.974    15 C    0.908
                            17 C    0.883
    17   6 C    3.887 --    19 F    0.997    18 F    0.980    20 F    0.969
                            16 C    0.883
    18   9 F    1.117 --    17 C    0.980
    19   9 F    1.140 --    17 C    0.997
    20   9 F    1.105 --    17 C    0.969
    21   9 F    1.117 --    16 C    0.993
    22   9 F    1.092 --    16 C    0.974
    23   9 F    1.114 --    15 C    0.991
    24   9 F    1.086 --    15 C    0.966
    25   9 F    1.112 --    14 C    0.990
    26   9 F    1.076 --    14 C    0.958
    27   9 F    1.113 --    13 C    0.993
    28   9 F    1.065 --    13 C    0.949
    29   9 F    1.090 --    12 C    0.975
    30   9 F    1.057 --    12 C    0.942
    31   1 H    0.998 --     1 C    0.985
    32   1 H    0.997 --     1 C    0.984
    33   1 H    0.997 --     1 C    0.986
    34   1 H    0.999 --     2 C    0.978
    35   1 H    0.996 --     2 C    0.972
    36   1 H    0.997 --     3 C    0.975
    37   1 H    0.992 --     3 C    0.965
    38   1 H    0.991 --     4 C    0.956
    39   1 H    0.984 --     4 C    0.956
    40   1 H    0.985 --     7 C    0.953
    41   1 H    0.982 --     9 C    0.948
    42   1 H    0.988 --    10 C    0.962
    43   1 H    0.985 --    10 C    0.953
    44   1 H    0.985 --    11 C    0.957
    45   1 H    0.986 --    11 C    0.957
 ---------------------------------------------------------------------------

molecular dipole:
                 x           y           z       tot (Debye)
 q only:       -4.084      -4.185      -1.285
   full:       -4.591      -3.878      -1.425      15.700

           -------------------------------------------------
          | TOTAL ENERGY             -107.492039921749 Eh   |
          | GRADIENT NORM               0.000475581488 Eh/α |
          | HOMO-LUMO GAP               2.861917638000 eV   |
           -------------------------------------------------

 * finished run on 2024/12/20 at 07:14:46.222
