   * xtb version 6.7.1 (edcfbbe) compiled by 'conda@3ef47c1a292c' on 2024-11-25

   ID    Z sym.   atoms
    1    6 C      1-12, 15, 16, 18-22
    2    8 O      13, 14
    3    7 N      17
    4    1 H      23-54

          program call               : xtb C1206.xyz --opt --namespace C1206 --charge +1
          :  Hamiltonian                  GFN2-xTB          :
 * total energy  :   -67.6661021 Eh     change       -0.2770847E-08 Eh
 * total energy  :   -67.6759939 Eh     change       -0.9891801E-02 Eh
 * total energy  :   -67.6786199 Eh     change       -0.2626017E-02 Eh
 * total energy  :   -67.6791333 Eh     change       -0.5134152E-03 Eh
 * total energy  :   -67.6797648 Eh     change       -0.6315078E-03 Eh
 * total energy  :   -67.6801063 Eh     change       -0.3414433E-03 Eh
 * total energy  :   -67.6804313 Eh     change       -0.3250852E-03 Eh
 * total energy  :   -67.6806617 Eh     change       -0.2303842E-03 Eh
 * total energy  :   -67.6808082 Eh     change       -0.1464543E-03 Eh
 * total energy  :   -67.6809314 Eh     change       -0.1231694E-03 Eh
 * total energy  :   -67.6825271 Eh     change       -0.7037755E-05 Eh
 * total energy  :   -67.6825344 Eh     change       -0.7372566E-05 Eh
 * total energy  :   -67.6825415 Eh     change       -0.7064496E-05 Eh
 * total energy  :   -67.6825467 Eh     change       -0.5156671E-05 Eh
 * total energy  :   -67.6825532 Eh     change       -0.6501110E-05 Eh
 * total energy  :   -67.6825635 Eh     change       -0.1033502E-04 Eh
 * total energy  :   -67.6825747 Eh     change       -0.1116201E-04 Eh
 * total energy  :   -67.6825811 Eh     change       -0.6483949E-05 Eh
 * total energy  :   -67.6825851 Eh     change       -0.3997792E-05 Eh
   *** GEOMETRY OPTIMIZATION CONVERGED AFTER 52 ITERATIONS ***

 final structure:
================
54
 xtb: 6.7.1 (edcfbbe)
C            1.05159103980578       -0.76107700362463        0.84557186866221
C            0.72355433875050       -0.38335436562117        2.28586038266427
C            1.13483026474841        1.04384953036948        2.65094563208673
C            0.49015238914669        2.14132722390712        1.80271600662634
C           -1.03677781078654        2.17277387046665        1.94144651543619
C           -1.49772088909582        2.38127735903898        3.37606967408286
C           -1.06427389693378        3.47698171049938        4.11195069654829
C           -1.48028456382801        3.64896223262752        5.42025550917155
C           -2.34058015477023        2.73372749398528        6.00277046309543
C           -2.78549945742169        1.64700102336954        5.26990711063935
C           -2.37047936529962        1.47403734206109        3.96092739881147
C           -1.68206119527381        3.28609902121641        1.17510245909008
O           -2.75083423124742        3.22165417046685        0.61331521887341
O           -0.95724488645418        4.42697742451759        1.17269055781079
C           -1.59216201769609        5.60362236106786        0.70025553522790
C           -1.07980888438238        6.07380427130851       -0.66560203914708
N           -1.53263784043986        5.33888815103042       -1.88398352579034
C           -3.01945292491577        5.13783830800281       -1.90948997449520
C           -3.86057269937436        6.40204479390291       -1.83487171230628
C           -1.13174248024794        6.12934837671467       -3.09205692855669
C            0.36439128476135        6.28633017801589       -3.31749733153205
C           -0.90931587032651        4.00111264321278       -1.94982829828706
H            0.43394659220961       -0.21212334148575        0.13784129309129
H            0.87460635248915       -1.82179295779660        0.68839686554029
H            2.09700608959544       -0.55525161949618        0.62669864369234
H           -0.34242129722358       -0.52461717809742        2.46983985376190
H            1.25554417515134       -1.06139580607079        2.95535495115691
H            0.89030476192088        1.22094851753135        3.70019244496716
H            2.21814242446639        1.13210751201621        2.54399150552302
H            0.90113166243807        3.10296345886197        2.11096797940176
H            0.74710105876811        1.99053554463156        0.75202108954045
H           -1.46845858376598        1.23889843267742        1.57251389839705
H           -0.39503908598417        4.19802134749877        3.66593071750883
H           -1.13182588233872        4.50040231740304        5.98515455866017
H           -2.66420225324163        2.86881645209454        7.02314691560328
H           -3.45770287924116        0.93061465361459        5.71645548150888
H           -2.72439434035376        0.62492322120689        3.39502767179326
H           -2.67598213241596        5.45767759185178        0.71603681792382
H           -1.33144870489497        6.38708035613064        1.41890332273834
H           -1.37862659574263        7.11698668800195       -0.77842360340157
H            0.01027338496082        6.02747801793968       -0.63722718013444
H           -3.25149886509975        4.60871798984843       -2.83595996833013
H           -3.27852322804945        4.47372564107014       -1.08080866747733
H           -3.73808509788195        7.03925756442492       -2.70617196448105
H           -4.90383842715293        6.09750383823273       -1.80325125318882
H           -3.66567644954698        6.98254422413390       -0.93797606674337
H           -1.56878360587927        5.63103942248422       -3.95998749703233
H           -1.58025198818821        7.11944163709546       -3.00629893666199
H            0.86299725134749        5.33511149441969       -3.47610079425737
H            0.49996630588628        6.87630599047229       -4.22078283249731
H            0.85525608211039        6.81921119478895       -2.50872232198989
H           -1.04388616288406        3.58017591264957       -2.94454111729943
H            0.15320978288789        4.06094325772534       -1.72750531020320
H           -1.37994049312929        3.33167250755099       -1.23509171577066

          :  Hamiltonian                  GFN2-xTB          :
         :: total energy             -67.682585147061 Eh    ::
         :: gradient norm              0.000331777602 Eh/a0 ::
         :: HOMO-LUMO gap              3.441283333390 eV    ::
         :: SCC energy               -68.652289546016 Eh    ::
         :: -> dispersion             -0.050851687315 Eh    ::
         :: repulsion energy           0.969704398955 Eh    ::

    * Orbital Energies and Occupations

         #    Occupation            Energy/Eh            Energy/eV
      -------------------------------------------------------------
         1        2.0000           -0.8701958             -23.6792
       ...           ...                  ...                  ...
        50        2.0000           -0.5601353             -15.2421
        51        2.0000           -0.5561481             -15.1336
        52        2.0000           -0.5542518             -15.0820
        53        2.0000           -0.5426349             -14.7658
        54        2.0000           -0.5375368             -14.6271
        55        2.0000           -0.5292369             -14.4013
        56        2.0000           -0.5111580             -13.9093
        57        2.0000           -0.5075766             -13.8119
        58        2.0000           -0.5052432             -13.7484
        59        2.0000           -0.5002451             -13.6124
        60        2.0000           -0.4991866             -13.5836
        61        2.0000           -0.4858689             -13.2212
        62        2.0000           -0.4814467             -13.1008 (HOMO)
        63                         -0.3549818              -9.6595 (LUMO)
        64                         -0.3045457              -8.2871
        65                         -0.3018409              -8.2135
        66                         -0.2328979              -6.3375
        67                         -0.1756788              -4.7805
        68                         -0.1679491              -4.5701
        69                         -0.1598349              -4.3493
        70                         -0.1439001              -3.9157
        71                         -0.1239406              -3.3726
        72                         -0.0609440              -1.6584
        73                         -0.0538641              -1.4657
       ...                                ...                  ...
       120                          0.5831323              15.8678
      -------------------------------------------------------------
                  HL-Gap            0.1264648 Eh            3.4413 eV

     #   Z          covCN         q      C6AA      α(0)
     1   6 C        3.751    -0.104    22.552     6.772
     2   6 C        3.800    -0.057    21.597     6.617
     3   6 C        3.801    -0.061    21.666     6.627
     4   6 C        3.803    -0.058    21.614     6.619
     5   6 C        3.859    -0.047    21.373     6.575
     6   6 C        2.989     0.014    27.689     8.632
     7   6 C        2.923    -0.038    28.947     8.823
     8   6 C        2.920    -0.027    28.688     8.783
     9   6 C        2.920    -0.025    28.639     8.776
    10   6 C        2.920    -0.024    28.611     8.771
    11   6 C        2.923    -0.032    28.806     8.802
    12   6 C        2.733     0.355    20.967     7.497
    13   8 O        0.856    -0.435    22.394     6.345
    14   8 O        1.704    -0.266    18.414     5.794
    15   6 C        3.697     0.064    19.669     6.344
    16   6 C        3.753    -0.042    21.389     6.595
    17   7 N        3.619     0.119    19.201     6.508
    18   6 C        3.759    -0.045    21.421     6.598
    19   6 C        3.751    -0.130    23.056     6.848
    20   6 C        3.761    -0.035    21.245     6.571
    21   6 C        3.751    -0.131    23.082     6.852
    22   6 C        3.718    -0.088    22.309     6.747
    23   1 H        0.925     0.025     2.656     2.549
    24   1 H        0.925     0.042     2.421     2.433
    25   1 H        0.925     0.038     2.474     2.460
    26   1 H        0.924     0.033     2.546     2.495
    27   1 H        0.924     0.042     2.427     2.436
    28   1 H        0.924     0.040     2.452     2.449
    29   1 H        0.924     0.043     2.411     2.428
    30   1 H        0.924     0.047     2.356     2.400
    31   1 H        0.924     0.034     2.526     2.486
    32   1 H        0.924     0.074     2.040     2.234
    33   1 H        0.926     0.034     2.526     2.485
    34   1 H        0.926     0.042     2.420     2.433
    35   1 H        0.926     0.048     2.347     2.396
    36   1 H        0.926     0.049     2.336     2.390
    37   1 H        0.926     0.041     2.436     2.441
    38   1 H        0.924     0.085     1.929     2.172
    39   1 H        0.924     0.088     1.897     2.154
    40   1 H        0.924     0.092     1.858     2.132
    41   1 H        0.924     0.101     1.772     2.082
    42   1 H        0.924     0.083     1.946     2.181
    43   1 H        0.924     0.118     1.632     1.998
    44   1 H        0.925     0.063     2.168     2.303
    45   1 H        0.925     0.089     1.893     2.151
    46   1 H        0.925     0.061     2.191     2.315
    47   1 H        0.924     0.086     1.917     2.165
    48   1 H        0.924     0.087     1.913     2.163
    49   1 H        0.925     0.069     2.096     2.264
    50   1 H        0.925     0.086     1.917     2.165
    51   1 H        0.925     0.064     2.153     2.295
    52   1 H        0.925     0.092     1.864     2.135
    53   1 H        0.925     0.095     1.836     2.119
    54   1 H        0.925     0.104     1.747     2.067

Wiberg/Mayer (AO) data.
largest (>0.10) Wiberg bond orders for each atom

     #   Z sym  total        # sym  WBO       # sym  WBO       # sym  WBO
 ---------------------------------------------------------------------------
     1   6 C    3.997 --     2 C    1.020    25 H    0.987    23 H    0.987
                            24 H    0.987
     2   6 C    3.997 --     1 C    1.020     3 C    1.008    27 H    0.977
                            26 H    0.976
     3   6 C    3.995 --     2 C    1.008     4 C    1.006    28 H    0.975
                            29 H    0.975
     4   6 C    3.993 --     3 C    1.006     5 C    0.977    31 H    0.974
                            30 H    0.973
     5   6 C    3.984 --     4 C    0.977    12 C    0.976    32 H    0.953
                             6 C    0.944
     6   6 C    3.982 --    11 C    1.412     7 C    1.408     5 C    0.944
                             9 C    0.107
     7   6 C    3.992 --     8 C    1.445     6 C    1.408    33 H    0.966
                            10 C    0.111
     8   6 C    3.992 --     7 C    1.445     9 C    1.437    34 H    0.970
                            11 C    0.111
     9   6 C    3.988 --    10 C    1.440     8 C    1.437    35 H    0.970
                             6 C    0.107
    10   6 C    3.991 --    11 C    1.441     9 C    1.440    36 H    0.969
                             7 C    0.111
    11   6 C    3.991 --    10 C    1.441     6 C    1.412    37 H    0.967
                             8 C    0.111
    12   6 C    3.898 --    13 O    1.715    14 O    1.093     5 C    0.976
    13   8 O    2.023 --    12 C    1.715    14 O    0.154
    14   8 O    2.287 --    12 C    1.093    15 C    0.963    13 O    0.154
    15   6 C    3.936 --    16 C    1.000    14 O    0.963    39 H    0.958
                            38 H    0.956
    16   6 C    3.943 --    15 C    1.000    40 H    0.963    41 H    0.960
                            17 N    0.941
    17   7 N    3.805 --    22 C    0.959    16 C    0.941    20 C    0.926
                            18 C    0.920
    18   6 C    3.921 --    19 C    1.024    42 H    0.967    43 H    0.948
                            17 N    0.920
    19   6 C    3.983 --    18 C    1.024    44 H    0.981    46 H    0.981
                            45 H    0.972
    20   6 C    3.934 --    21 C    1.023    47 H    0.967    48 H    0.965
                            17 N    0.926
    21   6 C    3.982 --    20 C    1.023    49 H    0.981    51 H    0.981
                            50 H    0.972
    22   6 C    3.927 --    52 H    0.976    53 H    0.974    54 H    0.966
                            17 N    0.959
    23   1 H    0.999 --     1 C    0.987
    24   1 H    0.998 --     1 C    0.987
    25   1 H    0.999 --     1 C    0.987
    26   1 H    0.999 --     2 C    0.976
    27   1 H    0.998 --     2 C    0.977
    28   1 H    0.998 --     3 C    0.975
    29   1 H    0.998 --     3 C    0.975
    30   1 H    0.998 --     4 C    0.973
    31   1 H    0.998 --     4 C    0.974
    32   1 H    0.994 --     5 C    0.953
    33   1 H    0.999 --     7 C    0.966
    34   1 H    0.998 --     8 C    0.970
    35   1 H    0.997 --     9 C    0.970
    36   1 H    0.997 --    10 C    0.969
    37   1 H    0.998 --    11 C    0.967
    38   1 H    0.993 --    15 C    0.956
    39   1 H    0.992 --    15 C    0.958
    40   1 H    0.991 --    16 C    0.963
    41   1 H    0.990 --    16 C    0.960
    42   1 H    0.993 --    18 C    0.967
    43   1 H    0.986 --    18 C    0.948
    44   1 H    0.996 --    19 C    0.981
    45   1 H    0.992 --    19 C    0.972
    46   1 H    0.996 --    19 C    0.981
    47   1 H    0.992 --    20 C    0.967
    48   1 H    0.992 --    20 C    0.965
    49   1 H    0.995 --    21 C    0.981
    50   1 H    0.992 --    21 C    0.972
    51   1 H    0.996 --    21 C    0.981
    52   1 H    0.992 --    22 C    0.976
    53   1 H    0.991 --    22 C    0.974
    54   1 H    0.989 --    22 C    0.966
 ---------------------------------------------------------------------------

molecular dipole:
                 x           y           z       tot (Debye)
 q only:       -2.230       9.968      -2.365
   full:       -2.224      10.043      -2.370      26.830

           -------------------------------------------------
          | TOTAL ENERGY              -67.682585147061 Eh   |
          | GRADIENT NORM               0.000331777602 Eh/α |
          | HOMO-LUMO GAP               3.441283333390 eV   |
           -------------------------------------------------

 * finished run on 2024/12/20 at 07:14:55.949
