   * xtb version 6.7.1 (edcfbbe) compiled by 'conda@3ef47c1a292c' on 2024-11-25

   ID    Z sym.   atoms
    1    6 C      1-16, 18, 19, 21, 22, 24
    2    7 N      17
    3    8 O      20, 23
    4    1 H      25-70

          program call               : xtb C1208.xyz --opt --namespace C1208 --charge +1
          :  Hamiltonian                  GFN2-xTB          :
 * total energy  :   -79.0843284 Eh     change       -0.1241318E-09 Eh
 * total energy  :   -79.0945331 Eh     change       -0.1020470E-01 Eh
 * total energy  :   -79.0973243 Eh     change       -0.2791204E-02 Eh
 * total energy  :   -79.0975272 Eh     change       -0.2029391E-03 Eh
 * total energy  :   -79.0977346 Eh     change       -0.2073527E-03 Eh
 * total energy  :   -79.0978299 Eh     change       -0.9527878E-04 Eh
 * total energy  :   -79.0979384 Eh     change       -0.1085298E-03 Eh
 * total energy  :   -79.0980007 Eh     change       -0.6229715E-04 Eh
 * total energy  :   -79.0980597 Eh     change       -0.5899765E-04 Eh
 * total energy  :   -79.0981039 Eh     change       -0.4424275E-04 Eh
 * total energy  :   -79.1020697 Eh     change       -0.1914805E-04 Eh
 * total energy  :   -79.1020906 Eh     change       -0.2090172E-04 Eh
 * total energy  :   -79.1021145 Eh     change       -0.2384128E-04 Eh
 * total energy  :   -79.1021411 Eh     change       -0.2664677E-04 Eh
 * total energy  :   -79.1021673 Eh     change       -0.2616147E-04 Eh
 * total energy  :   -79.1021792 Eh     change       -0.1195985E-04 Eh
 * total energy  :   -79.1021912 Eh     change       -0.1196595E-04 Eh
 * total energy  :   -79.1021988 Eh     change       -0.7634899E-05 Eh
 * total energy  :   -79.1022026 Eh     change       -0.3772251E-05 Eh
   *** GEOMETRY OPTIMIZATION CONVERGED AFTER 71 ITERATIONS ***

 final structure:
================
70
 xtb: 6.7.1 (edcfbbe)
C            1.96348099341987        0.20091142308472        0.30624796818647
C            1.79735319947369        0.33706395152258       -1.20266709497356
C            1.86799393862998       -1.00097163132644       -1.94009056362397
C            0.77111671703778       -2.00051231895346       -1.56822662821934
C           -0.65656235427552       -1.52846542652340       -1.84948193148893
C           -0.95252530770954       -1.19662465306578       -3.31368057636180
C           -0.69641090812855       -2.33809728588038       -4.30008557930909
C           -1.44950892435854       -3.63480939693118       -3.99772878872485
C           -2.97315328572576       -3.50509416086298       -3.96727777518049
C           -3.61108357482559       -3.05691952445374       -5.28362318326068
C           -3.32656002677998       -3.96369469755329       -6.48328756508010
C           -3.70910415336438       -5.43221398316194       -6.28648573252055
C           -5.17565570261428       -5.67595853725192       -5.92632179660839
C           -6.19345194393859       -5.16876227806826       -6.95048241516616
C           -6.05709453407992       -5.78421231015658       -8.34921348938100
C           -6.30206122782988       -7.29928291173335       -8.38156896778155
N           -7.59546430024366       -7.74571493217722       -8.97553803232130
C           -7.78086538923231       -7.27734933680868      -10.38269883868029
C           -6.54810547710264       -7.34009582701491      -11.29002111138273
O           -6.03835969859544       -8.65420730448213      -11.33880623892266
C           -7.65899733759731       -9.24444268697541       -8.98211548384820
C           -7.12012789631211       -9.96596486293656       -7.74281615703063
O           -7.69526956610206       -9.44194374608809       -6.56579080242020
C           -8.72007967248696       -7.22591150296681       -8.17205585181484
H            1.12639240836200       -0.33438496216348        0.74715658444312
H            2.01646996897442        1.18340873688534        0.76975116899336
H            2.87930264585317       -0.33757093929635        0.54088406630995
H            0.85015997270780        0.83309804056120       -1.42159401028699
H            2.59479503927993        0.97739028010238       -1.58778880399404
H            1.83446372446970       -0.81027308476405       -3.01482010866876
H            2.83415497142296       -1.46472319553800       -1.72421834343057
H            0.95768538039431       -2.92911973066969       -2.11211975866368
H            0.84867851002691       -2.23525186874142       -0.50490922717482
H           -1.34587719242330       -2.30472740732891       -1.50900509085679
H           -0.86375981824591       -0.63850308901580       -1.25217929860641
H           -1.99600492033292       -0.88124384649031       -3.38817887080277
H           -0.34213789367782       -0.34409363520453       -3.61781112999440
H           -0.95962622472214       -1.99034631568130       -5.30186757274824
H            0.37152155281233       -2.56420537025112       -4.31370000505003
H           -1.16251544842384       -4.37969432891006       -4.74372966535730
H           -1.12465720890940       -4.01641473090749       -3.02821015831001
H           -3.39304828945145       -4.46890392871332       -3.66948819236824
H           -3.25396265153262       -2.78646998607723       -3.19571537397322
H           -4.69073255295981       -2.98152074679715       -5.13206384632320
H           -3.25573471799683       -2.05479077794753       -5.52892233864195
H           -3.85249530058354       -3.55898270384627       -7.35187653448268
H           -2.26068861197376       -3.92398099518053       -6.71323447279210
H           -3.45486317444175       -5.98321509221956       -7.19594785982969
H           -3.09747432398559       -5.85055569284182       -5.48635471123382
H           -5.31321544446400       -6.74782151754978       -5.76046045904070
H           -5.39170077997777       -5.18416007664768       -4.97789691703728
H           -7.19400712697048       -5.35295069664825       -6.55395799941393
H           -6.07965537730775       -4.08927299860742       -7.05016864400069
H           -6.73060469167639       -5.25838019419804       -9.02589385886681
H           -5.04554566457347       -5.58753453274982       -8.70429743902444
H           -5.51195891191098       -7.80868116635594       -8.93354465823087
H           -6.29665328748868       -7.66260184898638       -7.35462339133383
H           -8.56944821342956       -7.88990953575920      -10.82430416196061
H           -8.12315636237504       -6.24203693131720      -10.36732837532621
H           -6.88116400464255       -7.01279810340840      -12.28282867765956
H           -5.77471240328957       -6.64135699422737      -10.94709404542685
H           -5.42404387103042       -8.73984495531140      -12.07532479108878
H           -8.70818211280042       -9.51495281141764       -9.11188312965298
H           -7.08599959547048       -9.60130010301296       -9.83860254827868
H           -7.38396168631329      -11.02257120682510       -7.87210446788643
H           -6.02497062565747       -9.90060959914035       -7.69651316810547
H           -7.55117351643989      -10.04840272344009       -5.83224442863109
H           -8.67692460606685       -7.66301343202673       -7.17666463701600
H           -8.66286772151454       -6.14341981535188       -8.09822642821287
H           -9.66674340815987       -7.49611144507551       -8.63618758471402

          :  Hamiltonian                  GFN2-xTB          :
         :: total energy             -79.102202593463 Eh    ::
         :: gradient norm              0.000349834776 Eh/a0 ::
         :: HOMO-LUMO gap              6.165245948920 eV    ::
         :: SCC energy               -80.143111708004 Eh    ::
         :: -> dispersion             -0.059828488431 Eh    ::
         :: repulsion energy           1.040909114541 Eh    ::

    * Orbital Energies and Occupations

         #    Occupation            Energy/Eh            Energy/eV
      -------------------------------------------------------------
         1        2.0000           -0.8470311             -23.0489
       ...           ...                  ...                  ...
        61        2.0000           -0.5106504             -13.8955
        62        2.0000           -0.5051496             -13.7458
        63        2.0000           -0.5018027             -13.6547
        64        2.0000           -0.4946238             -13.4594
        65        2.0000           -0.4896588             -13.3243
        66        2.0000           -0.4860899             -13.2272
        67        2.0000           -0.4817533             -13.1092
        68        2.0000           -0.4721685             -12.8484
        69        2.0000           -0.4711070             -12.8195
        70        2.0000           -0.4676388             -12.7251
        71        2.0000           -0.4584654             -12.4755
        72        2.0000           -0.4529220             -12.3246
        73        2.0000           -0.4515721             -12.2879 (HOMO)
        74                         -0.2250035              -6.1227 (LUMO)
        75                         -0.1637509              -4.4559
        76                         -0.1510561              -4.1104
        77                         -0.1339773              -3.6457
        78                         -0.1103527              -3.0028
        79                         -0.0813957              -2.2149
        80                         -0.0569187              -1.5488
        81                         -0.0498102              -1.3554
        82                         -0.0398881              -1.0854
        83                         -0.0359812              -0.9791
        84                         -0.0222457              -0.6053
       ...                                ...                  ...
       142                          0.2696237               7.3368
      -------------------------------------------------------------
                  HL-Gap            0.2265686 Eh            6.1652 eV

     #   Z          covCN         q      C6AA      α(0)
     1   6 C        3.751    -0.102    22.503     6.765
     2   6 C        3.799    -0.052    21.510     6.603
     3   6 C        3.801    -0.057    21.600     6.617
     4   6 C        3.800    -0.057    21.597     6.617
     5   6 C        3.800    -0.056    21.588     6.615
     6   6 C        3.800    -0.057    21.591     6.616
     7   6 C        3.800    -0.057    21.592     6.616
     8   6 C        3.800    -0.057    21.601     6.617
     9   6 C        3.800    -0.058    21.614     6.619
    10   6 C        3.800    -0.058    21.624     6.621
    11   6 C        3.800    -0.059    21.632     6.622
    12   6 C        3.800    -0.061    21.668     6.628
    13   6 C        3.800    -0.064    21.724     6.636
    14   6 C        3.800    -0.069    21.815     6.650
    15   6 C        3.799    -0.072    21.871     6.659
    16   6 C        3.754    -0.047    21.472     6.607
    17   7 N        3.619     0.131    19.007     6.475
    18   6 C        3.762    -0.041    21.356     6.588
    19   6 C        3.672     0.071    19.623     6.349
    20   8 O        1.655    -0.443    21.702     6.289
    21   6 C        3.762    -0.052    21.551     6.618
    22   6 C        3.672     0.071    19.619     6.349
    23   8 O        1.655    -0.441    21.663     6.283
    24   6 C        3.720    -0.102    22.572     6.786
    25   1 H        0.925     0.034     2.534     2.489
    26   1 H        0.925     0.032     2.557     2.500
    27   1 H        0.925     0.034     2.533     2.489
    28   1 H        0.924     0.030     2.584     2.514
    29   1 H        0.924     0.027     2.626     2.534
    30   1 H        0.924     0.028     2.616     2.529
    31   1 H        0.924     0.028     2.608     2.526
    32   1 H        0.924     0.027     2.631     2.537
    33   1 H        0.924     0.032     2.559     2.502
    34   1 H        0.924     0.026     2.649     2.545
    35   1 H        0.924     0.032     2.552     2.498
    36   1 H        0.924     0.025     2.652     2.546
    37   1 H        0.924     0.032     2.551     2.498
    38   1 H        0.924     0.025     2.658     2.549
    39   1 H        0.924     0.033     2.547     2.496
    40   1 H        0.924     0.024     2.669     2.555
    41   1 H        0.924     0.034     2.524     2.485
    42   1 H        0.924     0.024     2.674     2.557
    43   1 H        0.924     0.037     2.492     2.469
    44   1 H        0.924     0.024     2.670     2.555
    45   1 H        0.924     0.038     2.478     2.462
    46   1 H        0.924     0.022     2.700     2.570
    47   1 H        0.924     0.039     2.457     2.451
    48   1 H        0.924     0.020     2.732     2.585
    49   1 H        0.924     0.045     2.388     2.416
    50   1 H        0.924     0.023     2.688     2.564
    51   1 H        0.925     0.052     2.290     2.366
    52   1 H        0.924     0.035     2.523     2.484
    53   1 H        0.925     0.057     2.234     2.337
    54   1 H        0.925     0.043     2.415     2.430
    55   1 H        0.925     0.067     2.115     2.274
    56   1 H        0.925     0.086     1.915     2.164
    57   1 H        0.925     0.110     1.695     2.036
    58   1 H        0.924     0.094     1.839     2.120
    59   1 H        0.924     0.089     1.892     2.151
    60   1 H        0.924     0.061     2.190     2.314
    61   1 H        0.924     0.054     2.267     2.355
    62   1 H        0.805     0.314     0.680     1.295
    63   1 H        0.924     0.092     1.861     2.134
    64   1 H        0.924     0.122     1.597     1.976
    65   1 H        0.924     0.061     2.184     2.311
    66   1 H        0.923     0.049     2.335     2.390
    67   1 H        0.805     0.312     0.687     1.302
    68   1 H        0.925     0.130     1.535     1.938
    69   1 H        0.925     0.095     1.827     2.114
    70   1 H        0.925     0.086     1.920     2.167

Wiberg/Mayer (AO) data.
largest (>0.10) Wiberg bond orders for each atom

     #   Z sym  total        # sym  WBO       # sym  WBO       # sym  WBO
 ---------------------------------------------------------------------------
     1   6 C    3.997 --     2 C    1.020    27 H    0.988    26 H    0.987
                            25 H    0.986
     2   6 C    3.998 --     1 C    1.020     3 C    1.008    29 H    0.978
                            28 H    0.976
     3   6 C    3.998 --     2 C    1.008     4 C    1.008    31 H    0.977
                            30 H    0.975
     4   6 C    3.998 --     5 C    1.008     3 C    1.008    33 H    0.975
                            32 H    0.975
     5   6 C    3.998 --     4 C    1.008     6 C    1.008    34 H    0.975
                            35 H    0.975
     6   6 C    3.997 --     5 C    1.008     7 C    1.008    36 H    0.976
                            37 H    0.975
     7   6 C    3.997 --     8 C    1.008     6 C    1.008    38 H    0.976
                            39 H    0.975
     8   6 C    3.997 --     9 C    1.008     7 C    1.008    40 H    0.975
                            41 H    0.974
     9   6 C    3.997 --     8 C    1.008    10 C    1.008    42 H    0.975
                            43 H    0.974
    10   6 C    3.997 --     9 C    1.008    11 C    1.007    44 H    0.976
                            45 H    0.974
    11   6 C    3.997 --    12 C    1.007    10 C    1.007    46 H    0.976
                            47 H    0.974
    12   6 C    3.996 --    13 C    1.008    11 C    1.007    48 H    0.975
                            49 H    0.973
    13   6 C    3.995 --    14 C    1.008    12 C    1.008    50 H    0.972
                            51 H    0.971
    14   6 C    3.992 --    13 C    1.008    15 C    1.004    52 H    0.974
                            53 H    0.971
    15   6 C    3.987 --    14 C    1.004    16 C    1.002    55 H    0.968
                            54 H    0.968
    16   6 C    3.921 --    15 C    1.002    56 H    0.968    57 H    0.953
                            17 N    0.926
    17   7 N    3.810 --    24 C    0.957    18 C    0.941    21 C    0.933
                            16 C    0.926
    18   6 C    3.947 --    19 C    1.005    58 H    0.966    59 H    0.964
                            17 N    0.941
    19   6 C    3.957 --    18 C    1.005    20 O    1.002    60 H    0.964
                            61 H    0.964
    20   8 O    1.958 --    19 C    1.002    62 H    0.885
    21   6 C    3.933 --    22 C    1.005    63 H    0.967    64 H    0.951
                            17 N    0.933
    22   6 C    3.958 --    21 C    1.005    23 O    1.001    66 H    0.966
                            65 H    0.964
    23   8 O    1.959 --    22 C    1.001    67 H    0.887
    24   6 C    3.920 --    70 H    0.977    69 H    0.971    68 H    0.960
                            17 N    0.957
    25   1 H    0.999 --     1 C    0.986
    26   1 H    0.999 --     1 C    0.987
    27   1 H    0.999 --     1 C    0.988
    28   1 H    0.999 --     2 C    0.976
    29   1 H    0.999 --     2 C    0.978
    30   1 H    0.999 --     3 C    0.975
    31   1 H    0.999 --     3 C    0.977
    32   1 H    0.999 --     4 C    0.975
    33   1 H    0.999 --     4 C    0.975
    34   1 H    0.999 --     5 C    0.975
    35   1 H    0.999 --     5 C    0.975
    36   1 H    0.999 --     6 C    0.976
    37   1 H    0.999 --     6 C    0.975
    38   1 H    0.999 --     7 C    0.976
    39   1 H    0.999 --     7 C    0.975
    40   1 H    0.999 --     8 C    0.975
    41   1 H    0.999 --     8 C    0.974
    42   1 H    0.999 --     9 C    0.975
    43   1 H    0.999 --     9 C    0.974
    44   1 H    0.999 --    10 C    0.976
    45   1 H    0.999 --    10 C    0.974
    46   1 H    0.999 --    11 C    0.976
    47   1 H    0.998 --    11 C    0.974
    48   1 H    1.000 --    12 C    0.975
    49   1 H    0.998 --    12 C    0.973
    50   1 H    0.999 --    13 C    0.972
    51   1 H    0.997 --    13 C    0.971
    52   1 H    0.999 --    14 C    0.974
    53   1 H    0.996 --    14 C    0.971
    54   1 H    0.998 --    15 C    0.968
    55   1 H    0.995 --    15 C    0.968
    56   1 H    0.993 --    16 C    0.968
    57   1 H    0.988 --    16 C    0.953
    58   1 H    0.991 --    18 C    0.966
    59   1 H    0.992 --    18 C    0.964
    60   1 H    0.996 --    19 C    0.964
    61   1 H    0.997 --    19 C    0.964
    62   1 H    0.901 --    20 O    0.885
    63   1 H    0.991 --    21 C    0.967
    64   1 H    0.985 --    21 C    0.951
    65   1 H    0.996 --    22 C    0.964
    66   1 H    0.998 --    22 C    0.966
    67   1 H    0.902 --    23 O    0.887
    68   1 H    0.983 --    24 C    0.960
    69   1 H    0.991 --    24 C    0.971
    70   1 H    0.993 --    24 C    0.977
 ---------------------------------------------------------------------------

molecular dipole:
                 x           y           z       tot (Debye)
 q only:      -13.382     -14.464     -16.829
   full:      -13.288     -14.610     -17.072      66.353

           -------------------------------------------------
          | TOTAL ENERGY              -79.102202593463 Eh   |
          | GRADIENT NORM               0.000349834776 Eh/α |
          | HOMO-LUMO GAP               6.165245948920 eV   |
           -------------------------------------------------

 * finished run on 2024/12/20 at 07:15:01.040
