   * xtb version 6.7.1 (edcfbbe) compiled by 'conda@3ef47c1a292c' on 2024-11-25

   ID    Z sym.   atoms
    1    6 C      1-4, 6, 7, 9-11
    2    7 N      5, 8
    3    1 H      12-28

          program call               : xtb C1207.xyz --opt --namespace C1207 --charge +1
          :  Hamiltonian                  GFN2-xTB          :
 * total energy  :   -33.4335652 Eh     change       -0.3735323E-10 Eh
 * total energy  :   -33.4374335 Eh     change       -0.3868291E-02 Eh
 * total energy  :   -33.4381592 Eh     change       -0.7256646E-03 Eh
 * total energy  :   -33.4382557 Eh     change       -0.9657394E-04 Eh
 * total energy  :   -33.4383118 Eh     change       -0.5603260E-04 Eh
 * total energy  :   -33.4383214 Eh     change       -0.9653236E-05 Eh
 * total energy  :   -33.4383296 Eh     change       -0.8187692E-05 Eh
 * total energy  :   -33.4383358 Eh     change       -0.6172374E-05 Eh
 * total energy  :   -33.4383400 Eh     change       -0.4279425E-05 Eh
   *** GEOMETRY OPTIMIZATION CONVERGED AFTER 9 ITERATIONS ***

 final structure:
================
28
 xtb: 6.7.1 (edcfbbe)
C            1.37706112411683       -0.02743258916701       -0.29230852985245
C            0.56616961205944       -1.22613085261012       -0.77111842100086
C            0.87406767327234       -2.50775675499460        0.00442560882043
C            0.33658186309640       -2.50686419848800        1.43992975041665
N           -1.11046328360362       -2.52976548920051        1.45744378643234
C           -1.84857976862725       -3.62677501839569        1.11440928576584
C           -3.15666106653743       -3.27293214364256        1.17904561774361
N           -3.20273357126726       -1.96277212210106        1.55852968583293
C           -1.94802918600418       -1.52215779580767        1.72774027283414
C           -1.58198773108584       -0.15560974503850        2.15286712524832
C           -4.40714796217260       -1.19668046399746        1.75017648291868
H            1.17105112467924        0.22121414074385        0.74615260832083
H            1.14840915081933        0.84440706245831       -0.89902547826591
H            2.44012299183947       -0.23199243556548       -0.38678049135415
H           -0.50380257456228       -1.00638828579184       -0.71902871541231
H            0.80388877906818       -1.40388176137105       -1.82038764757904
H            0.45586493363314       -3.36337016769820       -0.52872237028595
H            1.95447851524359       -2.64414178093615        0.05369592236734
H            0.69218918765192       -3.39799552753692        1.96261728171505
H            0.68830042728480       -1.62546925282050        1.97422489969070
H           -1.39690290028085       -4.56339643170893        0.86138099485994
H           -4.03898140915518       -3.84693820276202        0.98566550142517
H           -0.72870078285708       -0.17496709516107        2.82722114193407
H           -1.31644680790448        0.46135799080027        1.29315462238416
H           -2.41313483648780        0.31968383822800        2.66613481135870
H           -4.52682071624799       -0.92469228935196        2.80006506988643
H           -4.38386790831804       -0.28876941692810        1.14751075287483
H           -5.26144487765308       -1.79751321115509        1.44769043092038

          :  Hamiltonian                  GFN2-xTB          :
         :: total energy             -33.438340049846 Eh    ::
         :: gradient norm              0.000516089070 Eh/a0 ::
         :: HOMO-LUMO gap              4.200258245995 eV    ::
         :: SCC energy               -33.950775372124 Eh    ::
         :: -> dispersion             -0.021314580789 Eh    ::
         :: repulsion energy           0.512435322278 Eh    ::

    * Orbital Energies and Occupations

         #    Occupation            Energy/Eh            Energy/eV
      -------------------------------------------------------------
         1        2.0000           -0.8874981             -24.1501
       ...           ...                  ...                  ...
        19        2.0000           -0.6489005             -17.6575
        20        2.0000           -0.6439826             -17.5237
        21        2.0000           -0.6383020             -17.3691
        22        2.0000           -0.6343095             -17.2604
        23        2.0000           -0.6325514             -17.2126
        24        2.0000           -0.6141109             -16.7108
        25        2.0000           -0.6079356             -16.5428
        26        2.0000           -0.5937254             -16.1561
        27        2.0000           -0.5872386             -15.9796
        28        2.0000           -0.5692764             -15.4908
        29        2.0000           -0.5621612             -15.2972
        30        2.0000           -0.5549936             -15.1021
        31        2.0000           -0.5488803             -14.9358 (HOMO)
        32                         -0.3945236             -10.7355 (LUMO)
        33                         -0.3614976              -9.8369
        34                         -0.1837790              -5.0009
        35                         -0.1275593              -3.4711
        36                         -0.0655817              -1.7846
        37                         -0.0595297              -1.6199
        38                         -0.0520262              -1.4157
        39                         -0.0334688              -0.9107
        40                         -0.0200392              -0.5453
        41                         -0.0189486              -0.5156
        42                         -0.0026622              -0.0724
       ...                                ...                  ...
        61                          0.4777630              13.0006
      -------------------------------------------------------------
                  HL-Gap            0.1543567 Eh            4.2003 eV

     #   Z          covCN         q      C6AA      α(0)
     1   6 C        3.752    -0.114    22.749     6.802
     2   6 C        3.800    -0.059    21.638     6.623
     3   6 C        3.802    -0.072    21.867     6.658
     4   6 C        3.741    -0.024    21.076     6.550
     5   7 N        2.870     0.043    20.486     6.722
     6   6 C        3.054    -0.009    28.200     8.709
     7   6 C        3.047    -0.010    28.231     8.714
     8   7 N        2.872     0.046    20.445     6.716
     9   6 C        3.101     0.106    25.535     8.281
    10   6 C        3.754    -0.136    23.172     6.864
    11   6 C        3.691    -0.080    22.220     6.745
    12   1 H        0.925     0.032     2.563     2.504
    13   1 H        0.925     0.051     2.304     2.374
    14   1 H        0.925     0.053     2.280     2.361
    15   1 H        0.924     0.023     2.691     2.565
    16   1 H        0.924     0.057     2.229     2.335
    17   1 H        0.924     0.053     2.280     2.361
    18   1 H        0.925     0.075     2.035     2.231
    19   1 H        0.924     0.083     1.944     2.180
    20   1 H        0.925     0.085     1.928     2.172
    21   1 H        0.927     0.103     1.760     2.075
    22   1 H        0.927     0.102     1.765     2.078
    23   1 H        0.925     0.094     1.839     2.121
    24   1 H        0.924     0.107     1.718     2.050
    25   1 H        0.925     0.095     1.834     2.118
    26   1 H        0.924     0.096     1.823     2.111
    27   1 H        0.925     0.097     1.811     2.105
    28   1 H        0.925     0.103     1.760     2.075

Wiberg/Mayer (AO) data.
largest (>0.10) Wiberg bond orders for each atom

     #   Z sym  total        # sym  WBO       # sym  WBO       # sym  WBO
 ---------------------------------------------------------------------------
     1   6 C    3.993 --     2 C    1.021    14 H    0.986    13 H    0.985
                            12 H    0.984
     2   6 C    3.995 --     1 C    1.021     3 C    1.008    15 H    0.977
                            16 H    0.974
     3   6 C    3.985 --     2 C    1.008     4 C    0.986    17 H    0.974
                            18 H    0.967
     4   6 C    3.939 --     3 C    0.986     5 N    0.968    19 H    0.962
                            20 H    0.961
     5   7 N    3.696 --     9 C    1.332     6 C    1.210     4 C    0.968
     6   6 C    3.951 --     7 C    1.610     5 N    1.210    21 H    0.962
     7   6 C    3.949 --     6 C    1.610     8 N    1.210    22 H    0.962
     8   7 N    3.693 --     9 C    1.320     7 C    1.210    11 C    0.991
     9   6 C    3.952 --     5 N    1.332     8 N    1.320    10 C    1.046
    10   6 C    3.977 --     9 C    1.046    25 H    0.968    23 H    0.959
                            24 H    0.942
    11   6 C    3.938 --     8 N    0.991    28 H    0.974    27 H    0.967
                            26 H    0.963
    12   1 H    0.999 --     1 C    0.984
    13   1 H    0.997 --     1 C    0.985
    14   1 H    0.997 --     1 C    0.986
    15   1 H    0.999 --     2 C    0.977
    16   1 H    0.997 --     2 C    0.974
    17   1 H    0.997 --     3 C    0.974
    18   1 H    0.994 --     3 C    0.967
    19   1 H    0.993 --     4 C    0.962
    20   1 H    0.992 --     4 C    0.961
    21   1 H    0.989 --     6 C    0.962
    22   1 H    0.989 --     7 C    0.962
    23   1 H    0.991 --    10 C    0.959
    24   1 H    0.988 --    10 C    0.942
    25   1 H    0.991 --    10 C    0.968
    26   1 H    0.990 --    11 C    0.963
    27   1 H    0.990 --    11 C    0.967
    28   1 H    0.989 --    11 C    0.974
 ---------------------------------------------------------------------------

molecular dipole:
                 x           y           z       tot (Debye)
 q only:       -3.576      -3.446       2.693
   full:       -3.636      -3.513       2.747      14.626

           -------------------------------------------------
          | TOTAL ENERGY              -33.438340049846 Eh   |
          | GRADIENT NORM               0.000516089070 Eh/α |
          | HOMO-LUMO GAP               4.200258245995 eV   |
           -------------------------------------------------

 * finished run on 2024/12/20 at 07:14:56.483
