   * xtb version 6.7.1 (edcfbbe) compiled by 'conda@3ef47c1a292c' on 2024-11-25

   ID    Z sym.   atoms
    1    9 F      1
    2    6 C      2-8, 10-14
    3    7 N      9
    4    1 H      15-25

          program call               : xtb C1202.xyz --opt --namespace C1202 --charge +1
          :  Hamiltonian                  GFN2-xTB          :
 * total energy  :   -38.5335001 Eh     change       -0.2004299E-09 Eh
 * total energy  :   -38.5362073 Eh     change       -0.2707163E-02 Eh
 * total energy  :   -38.5365479 Eh     change       -0.3406312E-03 Eh
 * total energy  :   -38.5365983 Eh     change       -0.5031671E-04 Eh
 * total energy  :   -38.5366292 Eh     change       -0.3094692E-04 Eh
 * total energy  :   -38.5366462 Eh     change       -0.1698712E-04 Eh
 * total energy  :   -38.5366600 Eh     change       -0.1378368E-04 Eh
 * total energy  :   -38.5366722 Eh     change       -0.1225120E-04 Eh
 * total energy  :   -38.5366811 Eh     change       -0.8883084E-05 Eh
 * total energy  :   -38.5366881 Eh     change       -0.6995603E-05 Eh
 * total energy  :   -38.5366944 Eh     change       -0.6257722E-05 Eh
 * total energy  :   -38.5366999 Eh     change       -0.5535234E-05 Eh
 * total energy  :   -38.5367046 Eh     change       -0.4739693E-05 Eh
   *** GEOMETRY OPTIMIZATION CONVERGED AFTER 13 ITERATIONS ***

 final structure:
================
25
 xtb: 6.7.1 (edcfbbe)
F            2.13201813682446        0.46805397696059       -0.02029645571625
C            0.81469717752245        0.26213412918915        0.00282893721095
C            0.33444479473789       -0.99934631152950        0.31643829863961
C           -1.03185171975896       -1.20583460467592        0.33500161084998
C           -1.90686609936861       -0.16375222308021        0.04947543721908
C           -1.40207610114959        1.09321107537607       -0.26339067187946
C           -0.03814852966500        1.31536984461214       -0.28590405603738
C           -3.40298039714407       -0.40203203843023        0.06460440655151
N           -3.84281526310754       -0.86292371038501       -1.24874148142226
C           -3.87013465393737       -2.17178262436605       -1.52123458130986
C           -4.22197151337260       -2.63523897303410       -2.77224460364265
C           -4.55182248345071       -1.72328647190800       -3.76653355934103
C           -4.51161253655897       -0.36775231122721       -3.46550592635828
C           -4.15085101011541        0.03066539821262       -2.19513403510250
H            1.02561037938046       -1.79358330190791        0.54717050460540
H           -1.41159605437042       -2.18254200733045        0.59475401731454
H           -2.07113101182252        1.91502272031738       -0.46996375073839
H            0.36871106325588        2.28690543652596       -0.51468275342965
H           -3.65626517958331       -1.15984396331216        0.80772217320418
H           -3.92840321264013        0.52279126809089        0.30843385633269
H           -3.61297326372508       -2.85056810482438       -0.72178968111460
H           -4.24142376382494       -3.69663959996816       -2.96121711688277
H           -4.83620773138443       -2.06057215650623       -4.75086910312358
H           -4.76179589657636        0.37490896364984       -4.20613200238181
H           -4.11066513016453        1.07462558955072       -1.92234946344798

          :  Hamiltonian                  GFN2-xTB          :
         :: total energy             -38.536704635259 Eh    ::
         :: gradient norm              0.000193768977 Eh/a0 ::
         :: HOMO-LUMO gap              1.850361550822 eV    ::
         :: SCC energy               -39.169455119825 Eh    ::
         :: -> dispersion             -0.022296677352 Eh    ::
         :: repulsion energy           0.632750484566 Eh    ::

    * Orbital Energies and Occupations

         #    Occupation            Energy/Eh            Energy/eV
      -------------------------------------------------------------
         1        2.0000           -0.9233360             -25.1253
       ...           ...                  ...                  ...
        23        2.0000           -0.6349575             -17.2781
        24        2.0000           -0.6315996             -17.1867
        25        2.0000           -0.6287835             -17.1101
        26        2.0000           -0.6276189             -17.0784
        27        2.0000           -0.6218830             -16.9223
        28        2.0000           -0.6204521             -16.8834
        29        2.0000           -0.6154456             -16.7471
        30        2.0000           -0.6014779             -16.3670
        31        2.0000           -0.5895026             -16.0412
        32        2.0000           -0.5854215             -15.9301
        33        2.0000           -0.5527325             -15.0406
        34        2.0000           -0.5458986             -14.8547
        35        2.0000           -0.5319793             -14.4759 (HOMO)
        36                         -0.4639798             -12.6255 (LUMO)
        37                         -0.4336266             -11.7996
        38                         -0.3661934              -9.9646
        39                         -0.3638551              -9.9010
        40                         -0.3123974              -8.5008
        41                         -0.2385353              -6.4909
        42                         -0.1639854              -4.4623
        43                         -0.0832009              -2.2640
        44                         -0.0633518              -1.7239
        45                         -0.0510705              -1.3897
        46                         -0.0388971              -1.0584
       ...                                ...                  ...
        67                          0.5235992              14.2479
      -------------------------------------------------------------
                  HL-Gap            0.0679995 Eh            1.8504 eV

     #   Z          covCN         q      C6AA      α(0)
     1   9 F        0.788    -0.188    11.117     3.939
     2   6 C        2.786     0.186    24.022     8.028
     3   6 C        2.916    -0.041    29.030     8.835
     4   6 C        2.926    -0.035    28.882     8.813
     5   6 C        2.970    -0.006    28.170     8.706
     6   6 C        2.926    -0.035    28.877     8.813
     7   6 C        2.916    -0.041    29.030     8.835
     8   6 C        3.763    -0.039    21.323     6.582
     9   7 N        2.751     0.113    19.297     6.524
    10   6 C        2.892     0.033    27.251     8.559
    11   6 C        2.916    -0.009    28.244     8.715
    12   6 C        2.925     0.014    27.692     8.630
    13   6 C        2.916    -0.009    28.243     8.715
    14   6 C        2.892     0.033    27.253     8.559
    15   1 H        0.926     0.086     1.921     2.168
    16   1 H        0.926     0.054     2.274     2.358
    17   1 H        0.926     0.054     2.266     2.354
    18   1 H        0.926     0.086     1.919     2.166
    19   1 H        0.924     0.097     1.813     2.106
    20   1 H        0.924     0.097     1.810     2.104
    21   1 H        0.926     0.110     1.695     2.036
    22   1 H        0.926     0.111     1.692     2.034
    23   1 H        0.926     0.110     1.698     2.038
    24   1 H        0.926     0.111     1.692     2.034
    25   1 H        0.926     0.110     1.693     2.034

Wiberg/Mayer (AO) data.
largest (>0.10) Wiberg bond orders for each atom

     #   Z sym  total        # sym  WBO       # sym  WBO       # sym  WBO
 ---------------------------------------------------------------------------
     1   9 F    1.139 --     2 C    0.994
     2   6 C    3.895 --     7 C    1.385     3 C    1.384     1 F    0.994
     3   6 C    3.986 --     4 C    1.451     2 C    1.384    15 H    0.963
                             6 C    0.107
     4   6 C    3.989 --     3 C    1.451     5 C    1.408    16 H    0.967
                             7 C    0.107
     5   6 C    3.975 --     6 C    1.408     4 C    1.408     8 C    0.973
     6   6 C    3.989 --     7 C    1.450     5 C    1.408    17 H    0.966
                             3 C    0.107
     7   6 C    3.986 --     6 C    1.450     2 C    1.385    18 H    0.963
                             4 C    0.107
     8   6 C    3.932 --     5 C    0.973    19 H    0.960    20 H    0.960
                             9 N    0.951
     9   7 N    3.768 --    10 C    1.328    14 C    1.327     8 C    0.951
    10   6 C    3.956 --    11 C    1.461     9 N    1.328    21 H    0.953
    11   6 C    3.980 --    10 C    1.461    12 C    1.422    22 H    0.958
    12   6 C    3.966 --    11 C    1.422    13 C    1.421    23 H    0.961
    13   6 C    3.980 --    14 C    1.463    12 C    1.421    24 H    0.958
    14   6 C    3.956 --    13 C    1.463     9 N    1.327    25 H    0.953
    15   1 H    0.992 --     3 C    0.963
    16   1 H    0.997 --     4 C    0.967
    17   1 H    0.997 --     6 C    0.966
    18   1 H    0.992 --     7 C    0.963
    19   1 H    0.990 --     8 C    0.960
    20   1 H    0.990 --     8 C    0.960
    21   1 H    0.988 --    10 C    0.953
    22   1 H    0.987 --    11 C    0.958
    23   1 H    0.988 --    12 C    0.961
    24   1 H    0.987 --    13 C    0.958
    25   1 H    0.988 --    14 C    0.953
 ---------------------------------------------------------------------------

molecular dipole:
                 x           y           z       tot (Debye)
 q only:       -7.380      -1.926      -3.316
   full:       -7.473      -1.933      -3.279      21.318

           -------------------------------------------------
          | TOTAL ENERGY              -38.536704635259 Eh   |
          | GRADIENT NORM               0.000193768977 Eh/α |
          | HOMO-LUMO GAP               1.850361550822 eV   |
           -------------------------------------------------

 * finished run on 2024/12/20 at 07:14:47.903
