   * xtb version 6.7.1 (edcfbbe) compiled by 'conda@3ef47c1a292c' on 2024-11-25

   ID    Z sym.   atoms
    1    6 C      1-3, 5, 6, 9-14
    2    7 N      4
    3    8 O      7, 8
    4    1 H      15-36

          program call               : xtb C1209.xyz --opt --namespace C1209 --charge +1
          :  Hamiltonian                  GFN2-xTB          :
 * total energy  :   -45.3889682 Eh     change       -0.4701377E-09 Eh
 * total energy  :   -45.4000960 Eh     change       -0.1112779E-01 Eh
 * total energy  :   -45.4032355 Eh     change       -0.3139515E-02 Eh
 * total energy  :   -45.4038060 Eh     change       -0.5705120E-03 Eh
 * total energy  :   -45.4040808 Eh     change       -0.2747884E-03 Eh
 * total energy  :   -45.4043643 Eh     change       -0.2834829E-03 Eh
 * total energy  :   -45.4045978 Eh     change       -0.2335301E-03 Eh
 * total energy  :   -45.4048620 Eh     change       -0.2641769E-03 Eh
 * total energy  :   -45.4050987 Eh     change       -0.2367451E-03 Eh
 * total energy  :   -45.4052295 Eh     change       -0.1307695E-03 Eh
 * total energy  :   -45.4099960 Eh     change       -0.2170383E-04 Eh
 * total energy  :   -45.4100052 Eh     change       -0.9149982E-05 Eh
 * total energy  :   -45.4100159 Eh     change       -0.1071051E-04 Eh
 * total energy  :   -45.4100218 Eh     change       -0.5980873E-05 Eh
 * total energy  :   -45.4100275 Eh     change       -0.5698595E-05 Eh
 * total energy  :   -45.4100339 Eh     change       -0.6361775E-05 Eh
 * total energy  :   -45.4100403 Eh     change       -0.6409921E-05 Eh
 * total energy  :   -45.4100459 Eh     change       -0.5619628E-05 Eh
 * total energy  :   -45.4100507 Eh     change       -0.4751370E-05 Eh
   *** GEOMETRY OPTIMIZATION CONVERGED AFTER 79 ITERATIONS ***

 final structure:
================
36
 xtb: 6.7.1 (edcfbbe)
C            0.67537500108176       -0.28047649996840       -0.44626205637973
C           -0.27256441141915        0.44801701775397       -1.00866532964319
C           -1.62670965698180        0.65377921349627       -0.39531212192015
N           -1.85156575487605        2.04682399812284        0.11114316222336
C           -1.51905117464939        3.03261562425748       -0.95082627324109
C           -2.16366298778521        2.75405722132701       -2.32504308362235
O           -3.17169961145988        2.11923487269161       -2.47935885307296
O           -1.45242872621919        3.34018551638875       -3.25680859047522
C           -1.90715285923007        3.22960421989348       -4.62362404681978
C           -1.44329870883730        1.92585679009806       -5.25030393596847
C           -3.29007285181521        2.25564095883832        0.50361733557883
C           -4.03242399250695        1.06072893718023        1.08527293765464
C           -0.91609909123022        2.33604812408797        1.24658089993552
C           -1.18102901977231        1.61336364942051        2.55674496436719
H            0.54449872623548       -0.75615679128450        0.51213571135231
H            1.62159351411865       -0.44558733744211       -0.93009113347612
H           -0.11444641017457        0.88440624232614       -1.98491271255879
H           -2.39807085373619        0.45157679335020       -1.14098975822758
H           -1.75543898827113       -0.03058553975980        0.44154714887212
H           -1.85725041515034        4.02394250163983       -0.63419008725846
H           -0.43822160402662        3.07708246426912       -1.09462757754286
H           -2.99814197919748        3.29815001309781       -4.63584290250494
H           -1.46863504939766        4.09152556889875       -5.12681788840814
H           -1.89640100493874        1.07558304054367       -4.74599867475547
H           -1.74423176132999        1.90754068606019       -6.29289415475025
H           -0.36082771608313        1.84106781620865       -5.19847981175940
H           -3.30619937260279        3.08702543577843        1.21080727852302
H           -3.82834495860471        2.55292121784329       -0.39691909372606
H           -3.54642154774386        0.62079010473471        1.94834807463144
H           -5.00951795802749        1.41654016421914        1.40413534179222
H           -4.20028880484187        0.29072860649544        0.33868771901497
H            0.08658354806863        2.07843927463460        0.89696285976926
H           -0.95134558886586        3.41198421138449        1.43125599510674
H           -1.17111470635010        0.53315789504340        2.44788591534351
H           -0.37689028991757        1.87602880346351        3.24040474990205
H           -2.11280293342078        1.92435918491623        3.01847799202192

          :  Hamiltonian                  GFN2-xTB          :
         :: total energy             -45.410050690763 Eh    ::
         :: gradient norm              0.000328455356 Eh/a0 ::
         :: HOMO-LUMO gap              4.867230653755 eV    ::
         :: SCC energy               -46.004472863482 Eh    ::
         :: -> dispersion             -0.029566270897 Eh    ::
         :: repulsion energy           0.594422172719 Eh    ::

    * Orbital Energies and Occupations

         #    Occupation            Energy/Eh            Energy/eV
      -------------------------------------------------------------
         1        2.0000           -0.8903036             -24.2264
       ...           ...                  ...                  ...
        29        2.0000           -0.6219505             -16.9241
        30        2.0000           -0.6164462             -16.7744
        31        2.0000           -0.6140120             -16.7081
        32        2.0000           -0.6052437             -16.4695
        33        2.0000           -0.6023711             -16.3914
        34        2.0000           -0.5944638             -16.1762
        35        2.0000           -0.5884257             -16.0119
        36        2.0000           -0.5785685             -15.7437
        37        2.0000           -0.5770561             -15.7025
        38        2.0000           -0.5727698             -15.5859
        39        2.0000           -0.5655991             -15.3907
        40        2.0000           -0.5585117             -15.1979
        41        2.0000           -0.5556162             -15.1191 (HOMO)
        42                         -0.3767488             -10.2519 (LUMO)
        43                         -0.3612351              -9.8297
        44                         -0.2344516              -6.3798
        45                         -0.1792180              -4.8768
        46                         -0.1595878              -4.3426
        47                         -0.1493028              -4.0627
        48                         -0.1183307              -3.2199
        49                         -0.0562104              -1.5296
        50                         -0.0445455              -1.2121
        51                         -0.0366691              -0.9978
        52                         -0.0271709              -0.7394
       ...                                ...                  ...
        78                          0.5232267              14.2377
      -------------------------------------------------------------
                  HL-Gap            0.1788674 Eh            4.8672 eV

     #   Z          covCN         q      C6AA      α(0)
     1   6 C        2.838    -0.078    29.931     8.966
     2   6 C        2.884    -0.045    29.106     8.845
     3   6 C        3.757    -0.040    21.347     6.587
     4   7 N        3.618     0.111    19.331     6.530
     5   6 C        3.771    -0.064    21.768     6.648
     6   6 C        2.711     0.363    20.848     7.474
     7   8 O        0.856    -0.394    21.552     6.224
     8   8 O        1.703    -0.240    17.977     5.724
     9   6 C        3.697     0.069    19.579     6.329
    10   6 C        3.751    -0.121    22.879     6.821
    11   6 C        3.750    -0.035    21.262     6.576
    12   6 C        3.751    -0.130    23.064     6.849
    13   6 C        3.761    -0.031    21.172     6.559
    14   6 C        3.751    -0.125    22.970     6.835
    15   1 H        0.926     0.066     2.125     2.280
    16   1 H        0.926     0.079     1.992     2.207
    17   1 H        0.926     0.054     2.270     2.356
    18   1 H        0.924     0.106     1.730     2.057
    19   1 H        0.925     0.097     1.815     2.107
    20   1 H        0.924     0.103     1.759     2.074
    21   1 H        0.924     0.108     1.713     2.047
    22   1 H        0.924     0.074     2.045     2.236
    23   1 H        0.925     0.083     1.947     2.182
    24   1 H        0.925     0.062     2.175     2.306
    25   1 H        0.925     0.075     2.034     2.230
    26   1 H        0.925     0.063     2.165     2.301
    27   1 H        0.924     0.079     1.987     2.204
    28   1 H        0.924     0.104     1.749     2.068
    29   1 H        0.925     0.068     2.107     2.270
    30   1 H        0.925     0.084     1.935     2.175
    31   1 H        0.925     0.071     2.069     2.250
    32   1 H        0.924     0.084     1.943     2.180
    33   1 H        0.924     0.079     1.994     2.208
    34   1 H        0.925     0.065     2.136     2.286
    35   1 H        0.925     0.084     1.941     2.178
    36   1 H        0.925     0.072     2.064     2.247

Wiberg/Mayer (AO) data.
largest (>0.10) Wiberg bond orders for each atom

     #   Z sym  total        # sym  WBO       # sym  WBO       # sym  WBO
 ---------------------------------------------------------------------------
     1   6 C    3.983 --     2 C    1.977    16 H    0.972    15 H    0.971
     2   6 C    3.984 --     1 C    1.977     3 C    1.018    17 H    0.962
     3   6 C    3.927 --     2 C    1.018    19 H    0.959    18 H    0.951
                             4 N    0.917
     4   7 N    3.798 --     5 C    0.958    13 C    0.927    11 C    0.917
                             3 C    0.917
     5   6 C    3.946 --     4 N    0.958    21 H    0.957    20 H    0.949
                             6 C    0.935
     6   6 C    3.937 --     7 O    1.736     8 O    1.208     5 C    0.935
     7   8 O    2.061 --     6 C    1.736     8 O    0.194
     8   8 O    2.360 --     6 C    1.208     9 C    0.901     7 O    0.194
     9   6 C    3.894 --    10 C    1.014    22 H    0.969    23 H    0.969
                             8 O    0.901
    10   6 C    3.986 --     9 C    1.014    26 H    0.984    24 H    0.984
                            25 H    0.977
    11   6 C    3.924 --    12 C    1.023    27 H    0.968    28 H    0.961
                             4 N    0.917
    12   6 C    3.980 --    11 C    1.023    31 H    0.981    29 H    0.978
                            30 H    0.972
    13   6 C    3.934 --    14 C    1.022    33 H    0.969    32 H    0.964
                             4 N    0.927
    14   6 C    3.981 --    13 C    1.022    36 H    0.980    34 H    0.978
                            35 H    0.972
    15   1 H    0.995 --     1 C    0.971
    16   1 H    0.993 --     1 C    0.972
    17   1 H    0.997 --     2 C    0.962
    18   1 H    0.989 --     3 C    0.951
    19   1 H    0.991 --     3 C    0.959
    20   1 H    0.989 --     5 C    0.949
    21   1 H    0.988 --     5 C    0.957
    22   1 H    0.995 --     9 C    0.969
    23   1 H    0.993 --     9 C    0.969
    24   1 H    0.996 --    10 C    0.984
    25   1 H    0.994 --    10 C    0.977
    26   1 H    0.996 --    10 C    0.984
    27   1 H    0.993 --    11 C    0.968
    28   1 H    0.989 --    11 C    0.961
    29   1 H    0.995 --    12 C    0.978
    30   1 H    0.992 --    12 C    0.972
    31   1 H    0.995 --    12 C    0.981
    32   1 H    0.993 --    13 C    0.964
    33   1 H    0.994 --    13 C    0.969
    34   1 H    0.996 --    14 C    0.978
    35   1 H    0.993 --    14 C    0.972
    36   1 H    0.995 --    14 C    0.980
 ---------------------------------------------------------------------------

molecular dipole:
                 x           y           z       tot (Debye)
 q only:       -2.802       3.774      -0.423
   full:       -2.727       4.012      -0.417      12.376

           -------------------------------------------------
          | TOTAL ENERGY              -45.410050690763 Eh   |
          | GRADIENT NORM               0.000328455356 Eh/α |
          | HOMO-LUMO GAP               4.867230653755 eV   |
           -------------------------------------------------

 * finished run on 2024/12/20 at 07:15:03.089
