   * xtb version 6.7.1 (edcfbbe) compiled by 'conda@3ef47c1a292c' on 2024-11-25

   ID    Z sym.   atoms
    1    6 C      1-12, 14-16, 18-24
    2    7 N      13, 17
    3    1 H      25-59

          program call               : xtb C1203.xyz --opt --namespace C1203 --charge +1
          :  Hamiltonian                  GFN2-xTB          :
 * total energy  :   -70.4541675 Eh     change       -0.1034635E-08 Eh
 * total energy  :   -70.4601951 Eh     change       -0.6027604E-02 Eh
 * total energy  :   -70.4615022 Eh     change       -0.1307067E-02 Eh
 * total energy  :   -70.4618082 Eh     change       -0.3059798E-03 Eh
 * total energy  :   -70.4621269 Eh     change       -0.3187439E-03 Eh
 * total energy  :   -70.4622964 Eh     change       -0.1694835E-03 Eh
 * total energy  :   -70.4625009 Eh     change       -0.2045325E-03 Eh
 * total energy  :   -70.4627208 Eh     change       -0.2199335E-03 Eh
 * total energy  :   -70.4629135 Eh     change       -0.1926273E-03 Eh
 * total energy  :   -70.4630748 Eh     change       -0.1613677E-03 Eh
 * total energy  :   -70.4664188 Eh     change       -0.1453310E-04 Eh
 * total energy  :   -70.4664335 Eh     change       -0.1477276E-04 Eh
 * total energy  :   -70.4664508 Eh     change       -0.1729324E-04 Eh
 * total energy  :   -70.4664717 Eh     change       -0.2090859E-04 Eh
 * total energy  :   -70.4664966 Eh     change       -0.2488305E-04 Eh
 * total energy  :   -70.4665093 Eh     change       -0.1267549E-04 Eh
 * total energy  :   -70.4665203 Eh     change       -0.1105495E-04 Eh
 * total energy  :   -70.4665266 Eh     change       -0.6210018E-05 Eh
 * total energy  :   -70.4665311 Eh     change       -0.4516777E-05 Eh
   *** GEOMETRY OPTIMIZATION CONVERGED AFTER 71 ITERATIONS ***

 final structure:
================
59
 xtb: 6.7.1 (edcfbbe)
C            0.17378534693287       -0.32157879241627       -1.50934595130622
C            0.13784612804816       -1.48809914550161       -0.52943831209892
C            0.67860469661962       -1.12911457284928        0.85527683690677
C           -0.11807375492630       -0.05500945015859        1.59891438949797
C           -1.58234826929180       -0.40815686510160        1.86896813466426
C           -1.80223913010597       -1.69705309944216        2.66450252953680
C           -1.09490182128862       -1.75138208144272        4.02008351360844
C           -1.50896628021925       -0.65932903441193        5.00981400270383
C           -2.94242285012928       -0.79999971946139        5.52989089703815
C           -3.11933366576173       -1.92275138886970        6.55297616283043
C           -2.50462920429069       -1.60265341276651        7.93049789231831
C           -3.20425885565049       -0.49685082711514        8.62419972180652
N           -4.40070092374268       -0.58495312548064        9.22246446466775
C           -5.24264739277608       -1.74814037078998        9.31462212659913
C           -4.72001522004084        0.63551112739155        9.74399178479061
C           -3.69398536053713        1.47601555404193        9.45722069510464
N           -2.76499494783745        0.76159206517137        8.75901759418961
C           -1.49121149938269        1.28474770507125        8.31024793321928
C           -0.32467543892389        0.62185819369763        9.01097152585184
C            0.81811094013986        0.28999033339718        8.29522425424499
C            1.89660816709621       -0.29477296598473        8.93635247989084
C            1.83843471867145       -0.55653436557223       10.29457929280966
C            0.70189855755443       -0.22486230472268       11.01305699202271
C           -0.37532562125367        0.36480473758256       10.37546098536067
H           -0.50604060736959        0.47032130353183       -1.20517316607403
H           -0.12083445668665       -0.65506202371703       -2.50141627706733
H            1.17837049113848        0.09105073632898       -1.57224332166557
H           -0.88384508640707       -1.86280584979874       -0.44572717003520
H            0.74874436539232       -2.30102272158983       -0.92885574176185
H            0.71935957834899       -2.03680640852859        1.46135072644149
H            1.70466970700659       -0.76969873030946        0.74348718106624
H            0.38697316880517        0.15185750312664        2.54579895982232
H           -0.09424763468505        0.86988822188102        1.02018112133590
H           -2.04770949380901        0.43013415505510        2.39403848613949
H           -2.10547094420670       -0.50931510799643        0.91696340487932
H           -2.87729231707187       -1.83486763645069        2.80368148354608
H           -1.45108934895020       -2.54294013827996        2.07205616434008
H           -1.27630843781105       -2.73311940472672        4.46360640225383
H           -0.01938414669096       -1.67076458960675        3.85840275684837
H           -0.80789079519581       -0.68248520926079        5.84813439488484
H           -1.40580356797783        0.31122258170226        4.52318055657128
H           -3.27437923357683        0.14583414450707        5.96840619752757
H           -3.59887509714621       -1.00190612650853        4.68366535367988
H           -4.18214350057343       -2.13713158608729        6.67159168247892
H           -2.64329008807569       -2.82817776435592        6.17893833693994
H           -2.55614514175382       -2.49906364894660        8.55326120123808
H           -1.45243827976076       -1.34579252861703        7.81450871860314
H           -5.92866314071235       -1.79406591366500        8.46694095619402
H           -4.63991949481492       -2.65408376290590        9.32914884794109
H           -5.82820826398535       -1.69550515190510       10.23083392822950
H           -5.63432303593193        0.81352220160141       10.27119133214053
H           -3.56326778046184        2.51145079831182        9.69554907347828
H           -1.40300118700035        1.15106688544498        7.22912256966118
H           -1.48841639986461        2.35770146733005        8.52180657185959
H            0.87209444145461        0.50158173872708        7.23715718167316
H            2.78174267236950       -0.54454881939241        8.37276583639350
H            2.67889884485037       -1.01197210129172       10.79381028334513
H            0.65525479112966       -0.41783772328373       12.07345806524072
H           -1.25356889902907        0.63261301534179       10.94662795550773

          :  Hamiltonian                  GFN2-xTB          :
         :: total energy             -70.466531076728 Eh    ::
         :: gradient norm              0.000349964325 Eh/a0 ::
         :: HOMO-LUMO gap              2.319281027578 eV    ::
         :: SCC energy               -71.597813489729 Eh    ::
         :: -> dispersion             -0.056151884943 Eh    ::
         :: repulsion energy           1.131282413001 Eh    ::

    * Orbital Energies and Occupations

         #    Occupation            Energy/Eh            Energy/eV
      -------------------------------------------------------------
         1        2.0000           -0.8786748             -23.9100
       ...           ...                  ...                  ...
        54        2.0000           -0.5364168             -14.5966
        55        2.0000           -0.5324127             -14.4877
        56        2.0000           -0.5259483             -14.3118
        57        2.0000           -0.5215948             -14.1933
        58        2.0000           -0.5168028             -14.0629
        59        2.0000           -0.5145733             -14.0023
        60        2.0000           -0.5138402             -13.9823
        61        2.0000           -0.5030237             -13.6880
        62        2.0000           -0.4987002             -13.5703
        63        2.0000           -0.4945716             -13.4580
        64        2.0000           -0.4801010             -13.0642
        65        2.0000           -0.4759884             -12.9523
        66        2.0000           -0.4730609             -12.8726 (HOMO)
        67                         -0.3878288             -10.5534 (LUMO)
        68                         -0.3550385              -9.6611
        69                         -0.3392875              -9.2325
        70                         -0.3350351              -9.1168
        71                         -0.2101689              -5.7190
        72                         -0.1705546              -4.6410
        73                         -0.1188633              -3.2344
        74                         -0.0613884              -1.6705
        75                         -0.0525604              -1.4302
        76                         -0.0425798              -1.1587
        77                         -0.0345222              -0.9394
       ...                                ...                  ...
       131                          0.5515395              15.0082
      -------------------------------------------------------------
                  HL-Gap            0.0852320 Eh            2.3193 eV

     #   Z          covCN         q      C6AA      α(0)
     1   6 C        3.751    -0.103    22.527     6.769
     2   6 C        3.800    -0.053    21.527     6.606
     3   6 C        3.801    -0.058    21.620     6.620
     4   6 C        3.800    -0.057    21.608     6.618
     5   6 C        3.800    -0.058    21.616     6.620
     6   6 C        3.800    -0.059    21.645     6.624
     7   6 C        3.800    -0.061    21.668     6.628
     8   6 C        3.800    -0.061    21.673     6.628
     9   6 C        3.800    -0.063    21.709     6.634
    10   6 C        3.802    -0.063    21.716     6.635
    11   6 C        3.803    -0.075    21.939     6.668
    12   6 C        3.099     0.105    25.573     8.287
    13   7 N        2.872     0.046    20.436     6.714
    14   6 C        3.692    -0.077    22.156     6.735
    15   6 C        3.048    -0.012    28.276     8.721
    16   6 C        3.050    -0.009    28.193     8.708
    17   7 N        2.873     0.041    20.517     6.727
    18   6 C        3.747    -0.025    21.095     6.551
    19   6 C        2.971    -0.003    28.103     8.696
    20   6 C        2.923    -0.038    28.938     8.822
    21   6 C        2.919    -0.022    28.556     8.763
    22   6 C        2.920    -0.022    28.550     8.762
    23   6 C        2.920    -0.024    28.592     8.769
    24   6 C        2.922    -0.039    28.976     8.827
    25   1 H        0.925     0.033     2.538     2.491
    26   1 H        0.925     0.035     2.512     2.479
    27   1 H        0.925     0.036     2.509     2.477
    28   1 H        0.924     0.030     2.583     2.513
    29   1 H        0.924     0.030     2.581     2.512
    30   1 H        0.924     0.027     2.627     2.535
    31   1 H        0.924     0.032     2.563     2.504
    32   1 H        0.924     0.023     2.696     2.568
    33   1 H        0.924     0.036     2.500     2.472
    34   1 H        0.924     0.022     2.701     2.570
    35   1 H        0.924     0.039     2.459     2.452
    36   1 H        0.924     0.025     2.656     2.549
    37   1 H        0.924     0.042     2.423     2.434
    38   1 H        0.924     0.028     2.622     2.532
    39   1 H        0.924     0.043     2.408     2.427
    40   1 H        0.924     0.021     2.713     2.576
    41   1 H        0.924     0.043     2.413     2.429
    42   1 H        0.924     0.017     2.781     2.608
    43   1 H        0.925     0.058     2.226     2.333
    44   1 H        0.924     0.042     2.419     2.432
    45   1 H        0.925     0.069     2.097     2.264
    46   1 H        0.924     0.075     2.034     2.230
    47   1 H        0.925     0.085     1.928     2.171
    48   1 H        0.924     0.096     1.819     2.109
    49   1 H        0.925     0.095     1.836     2.119
    50   1 H        0.925     0.099     1.796     2.096
    51   1 H        0.927     0.100     1.789     2.092
    52   1 H        0.926     0.099     1.797     2.096
    53   1 H        0.924     0.089     1.888     2.149
    54   1 H        0.924     0.087     1.910     2.161
    55   1 H        0.926     0.043     2.412     2.429
    56   1 H        0.926     0.057     2.235     2.338
    57   1 H        0.926     0.058     2.227     2.334
    58   1 H        0.926     0.052     2.294     2.368
    59   1 H        0.925     0.026     2.638     2.540

Wiberg/Mayer (AO) data.
largest (>0.10) Wiberg bond orders for each atom

     #   Z sym  total        # sym  WBO       # sym  WBO       # sym  WBO
 ---------------------------------------------------------------------------
     1   6 C    3.997 --     2 C    1.020    27 H    0.987    26 H    0.987
                            25 H    0.986
     2   6 C    3.998 --     1 C    1.020     3 C    1.008    29 H    0.978
                            28 H    0.976
     3   6 C    3.997 --     2 C    1.008     4 C    1.008    31 H    0.977
                            30 H    0.975
     4   6 C    3.997 --     5 C    1.008     3 C    1.008    32 H    0.976
                            33 H    0.975
     5   6 C    3.997 --     4 C    1.008     6 C    1.007    34 H    0.975
                            35 H    0.974
     6   6 C    3.996 --     7 C    1.008     5 C    1.007    37 H    0.974
                            36 H    0.974
     7   6 C    3.996 --     6 C    1.008     8 C    1.007    38 H    0.973
                            39 H    0.973
     8   6 C    3.996 --     7 C    1.007     9 C    1.007    41 H    0.973
                            40 H    0.969
     9   6 C    3.994 --    10 C    1.008     8 C    1.007    42 H    0.976
                            43 H    0.969
    10   6 C    3.986 --     9 C    1.008    44 H    0.976    11 C    0.968
                            45 H    0.967
    11   6 C    3.979 --    12 C    1.031    10 C    0.968    47 H    0.955
                            46 H    0.949
    12   6 C    3.945 --    17 N    1.325    13 N    1.322    11 C    1.031
    13   7 N    3.694 --    12 C    1.322    15 C    1.210    14 C    0.993
    14   6 C    3.940 --    13 N    0.993    50 H    0.972    49 H    0.969
                            48 H    0.961
    15   6 C    3.948 --    16 C    1.606    13 N    1.210    51 H    0.962
    16   6 C    3.950 --    15 C    1.606    17 N    1.213    52 H    0.962
    17   7 N    3.695 --    12 C    1.325    16 C    1.213    18 C    0.966
    18   6 C    3.938 --    19 C    0.983    17 N    0.966    54 H    0.956
                            53 H    0.952
    19   6 C    3.980 --    20 C    1.413    24 C    1.413    18 C    0.983
                            22 C    0.109
    20   6 C    3.990 --    21 C    1.441    19 C    1.413    55 H    0.966
                            23 C    0.111
    21   6 C    3.990 --    20 C    1.441    22 C    1.441    56 H    0.969
                            24 C    0.111
    22   6 C    3.989 --    21 C    1.441    23 C    1.438    57 H    0.969
                            19 C    0.109
    23   6 C    3.991 --    24 C    1.445    22 C    1.438    58 H    0.969
                            20 C    0.111
    24   6 C    3.992 --    23 C    1.445    19 C    1.413    59 H    0.970
                            21 C    0.111
    25   1 H    0.999 --     1 C    0.986
    26   1 H    0.999 --     1 C    0.987
    27   1 H    0.999 --     1 C    0.987
    28   1 H    0.999 --     2 C    0.976
    29   1 H    0.999 --     2 C    0.978
    30   1 H    0.999 --     3 C    0.975
    31   1 H    0.999 --     3 C    0.977
    32   1 H    0.999 --     4 C    0.976
    33   1 H    0.999 --     4 C    0.975
    34   1 H    1.000 --     5 C    0.975
    35   1 H    0.998 --     5 C    0.974
    36   1 H    0.999 --     6 C    0.974
    37   1 H    0.998 --     6 C    0.974
    38   1 H    0.999 --     7 C    0.973
    39   1 H    0.998 --     7 C    0.973
    40   1 H    1.000 --     8 C    0.969
    41   1 H    0.998 --     8 C    0.973
    42   1 H    1.000 --     9 C    0.976
    43   1 H    0.996 --     9 C    0.969
    44   1 H    0.998 --    10 C    0.976
    45   1 H    0.994 --    10 C    0.967
    46   1 H    0.994 --    11 C    0.949
    47   1 H    0.992 --    11 C    0.955
    48   1 H    0.990 --    14 C    0.961
    49   1 H    0.991 --    14 C    0.969
    50   1 H    0.990 --    14 C    0.972
    51   1 H    0.990 --    15 C    0.962
    52   1 H    0.990 --    16 C    0.962
    53   1 H    0.992 --    18 C    0.952
    54   1 H    0.992 --    18 C    0.956
    55   1 H    0.998 --    20 C    0.966
    56   1 H    0.996 --    21 C    0.969
    57   1 H    0.996 --    22 C    0.969
    58   1 H    0.997 --    23 C    0.969
    59   1 H    0.999 --    24 C    0.970
 ---------------------------------------------------------------------------

molecular dipole:
                 x           y           z       tot (Debye)
 q only:       -5.632      -0.724      16.176
   full:       -5.760      -0.615      16.298      43.963

           -------------------------------------------------
          | TOTAL ENERGY              -70.466531076728 Eh   |
          | GRADIENT NORM               0.000349964325 Eh/α |
          | HOMO-LUMO GAP               2.319281027578 eV   |
           -------------------------------------------------

 * finished run on 2024/12/20 at 07:14:51.639
