   * xtb version 6.7.1 (edcfbbe) compiled by 'conda@3ef47c1a292c' on 2024-11-25

   ID    Z sym.   atoms
    1    6 C      1, 2, 4, 5, 7-12
    2    8 O      3
    3    7 N      6
    4    1 H      13-36

          program call               : xtb C1201.xyz --opt --namespace C1201 --charge +1
          :  Hamiltonian                  GFN2-xTB          :
 * total energy  :   -40.2317326 Eh     change       -0.6111378E-10 Eh
 * total energy  :   -40.2398868 Eh     change       -0.8154211E-02 Eh
 * total energy  :   -40.2419751 Eh     change       -0.2088317E-02 Eh
 * total energy  :   -40.2421055 Eh     change       -0.1303250E-03 Eh
 * total energy  :   -40.2422315 Eh     change       -0.1260552E-03 Eh
 * total energy  :   -40.2422973 Eh     change       -0.6583770E-04 Eh
 * total energy  :   -40.2423766 Eh     change       -0.7929220E-04 Eh
 * total energy  :   -40.2424144 Eh     change       -0.3779279E-04 Eh
 * total energy  :   -40.2424415 Eh     change       -0.2707676E-04 Eh
 * total energy  :   -40.2424386 Eh     change        0.2930982E-05 Eh
 * total energy  :   -40.2424749 Eh     change       -0.1880562E-04 Eh
 * total energy  :   -40.2424869 Eh     change       -0.1196986E-04 Eh
 * total energy  :   -40.2425053 Eh     change       -0.1844095E-04 Eh
 * total energy  :   -40.2425344 Eh     change       -0.2904552E-04 Eh
 * total energy  :   -40.2425531 Eh     change       -0.1869391E-04 Eh
 * total energy  :   -40.2425627 Eh     change       -0.9604718E-05 Eh
 * total energy  :   -40.2425734 Eh     change       -0.1077005E-04 Eh
 * total energy  :   -40.2425790 Eh     change       -0.5605892E-05 Eh
 * total energy  :   -40.2425830 Eh     change       -0.3952579E-05 Eh
   *** GEOMETRY OPTIMIZATION CONVERGED AFTER 20 ITERATIONS ***

 final structure:
================
36
 xtb: 6.7.1 (edcfbbe)
C            0.75751735274397       -1.02812663860505       -1.64013939217265
C            0.14977432354819        0.36681122657575       -1.55193736145281
O            0.83312497582465        1.23697558696140       -0.65726918313557
C            2.09927278384958        1.66420154892083       -1.09679277749236
C            2.60122345860021        2.82691082270607       -0.23019587796661
N            2.49121375279807        2.63351810960514        1.24362825675484
C            2.91853210775629        1.25140172244282        1.64025142071577
C            4.37322759454128        0.89348094299523        1.36993859545150
C            3.39674041196316        3.60507188251813        1.93566110534286
C            3.04442090559107        5.07885294517602        1.81547902156390
C            1.07486803961215        2.78849506047438        1.73963989635735
C            0.16488584728300        3.76291368121044        1.00567138623474
H            0.10636131851304       -1.65865765498931       -2.23746688040491
H            0.84800931227489       -1.46802884398058       -0.64907041182760
H            1.73728343404597       -1.01005236540209       -2.11265861240020
H            0.10722752114019        0.82655568488022       -2.54785322681533
H           -0.86219351871497        0.30986485413787       -1.14524000657843
H            2.81685613505824        0.83289928184221       -1.08577847657304
H            2.04045672416197        2.03346502579077       -2.13170205429944
H            3.64985507512853        2.99458007321553       -0.48066729498401
H            2.04215187905809        3.72472775025928       -0.48510477521927
H            2.72342604873872        1.14863391143519        2.71003917437384
H            2.26518090105803        0.55642969799920        1.11277169622795
H            5.05931731516118        1.41442595807992        2.03126362235282
H            4.49109954418733       -0.17069188381818        1.55933816213868
H            4.66603430387864        1.07634971904466        0.34047290119431
H            3.41144217721083        3.33289105014154        2.99355117973953
H            4.39959376574973        3.45734019599060        1.53353540133450
H            2.12290015944894        5.32616220388268        2.33266899123829
H            3.84256708981197        5.64500379684019        2.29035771553105
H            2.98398478806319        5.40756096247521        0.78228875367286
H            0.59923290776952        1.81067278052953        1.66805197090705
H            1.14403745313355        3.06579142142270        2.79278743948295
H           -0.09310479417164        3.38411438759304        0.02138713709731
H           -0.75757517992871        3.82627016634771        1.57856111066779
H            0.56653408511241        4.76664493529979        0.92072139294080

          :  Hamiltonian                  GFN2-xTB          :
         :: total energy             -40.242582999257 Eh    ::
         :: gradient norm              0.000865993931 Eh/a0 ::
         :: HOMO-LUMO gap              8.004509337609 eV    ::
         :: SCC energy               -40.764141177294 Eh    ::
         :: -> dispersion             -0.027729898986 Eh    ::
         :: repulsion energy           0.521558178037 Eh    ::

    * Orbital Energies and Occupations

         #    Occupation            Energy/Eh            Energy/eV
      -------------------------------------------------------------
         1        2.0000           -0.8483321             -23.0843
       ...           ...                  ...                  ...
        25        2.0000           -0.6175369             -16.8040
        26        2.0000           -0.6135668             -16.6960
        27        2.0000           -0.6113031             -16.6344
        28        2.0000           -0.6064202             -16.5015
        29        2.0000           -0.6020741             -16.3833
        30        2.0000           -0.5989683             -16.2988
        31        2.0000           -0.5957729             -16.2118
        32        2.0000           -0.5902629             -16.0619
        33        2.0000           -0.5860450             -15.9471
        34        2.0000           -0.5791238             -15.7588
        35        2.0000           -0.5677525             -15.4493
        36        2.0000           -0.5495094             -14.9529
        37        2.0000           -0.5282834             -14.3753 (HOMO)
        38                         -0.2341231              -6.3708 (LUMO)
        39                         -0.1693030              -4.6070
        40                         -0.1590706              -4.3285
        41                         -0.1552560              -4.2247
        42                         -0.1148088              -3.1241
        43                         -0.0606077              -1.6492
        44                         -0.0491133              -1.3364
        45                         -0.0371388              -1.0106
        46                         -0.0289274              -0.7872
        47                         -0.0223383              -0.6079
        48                         -0.0175104              -0.4765
       ...                                ...                  ...
        72                          0.1780261               4.8443
      -------------------------------------------------------------
                  HL-Gap            0.2941603 Eh            8.0045 eV

     #   Z          covCN         q      C6AA      α(0)
     1   6 C        3.750    -0.123    22.914     6.827
     2   6 C        3.692     0.073    19.538     6.325
     3   8 O        1.699    -0.328    19.497     5.962
     4   6 C        3.691     0.075    19.501     6.319
     5   6 C        3.750    -0.038    21.320     6.585
     6   7 N        3.616     0.107    19.391     6.540
     7   6 C        3.763    -0.036    21.259     6.572
     8   6 C        3.750    -0.128    23.020     6.843
     9   6 C        3.758    -0.031    21.186     6.562
    10   6 C        3.751    -0.128    23.017     6.842
    11   6 C        3.754    -0.032    21.207     6.567
    12   6 C        3.751    -0.130    23.062     6.849
    13   1 H        0.925     0.063     2.169     2.303
    14   1 H        0.925     0.051     2.305     2.374
    15   1 H        0.925     0.046     2.371     2.408
    16   1 H        0.924     0.036     2.510     2.477
    17   1 H        0.924     0.065     2.144     2.290
    18   1 H        0.923     0.046     2.368     2.406
    19   1 H        0.923     0.054     2.267     2.355
    20   1 H        0.924     0.083     1.946     2.181
    21   1 H        0.925     0.103     1.760     2.075
    22   1 H        0.924     0.079     1.991     2.207
    23   1 H        0.925     0.101     1.775     2.084
    24   1 H        0.925     0.065     2.142     2.288
    25   1 H        0.925     0.084     1.939     2.177
    26   1 H        0.925     0.061     2.184     2.311
    27   1 H        0.924     0.081     1.966     2.193
    28   1 H        0.924     0.084     1.936     2.176
    29   1 H        0.925     0.071     2.073     2.252
    30   1 H        0.925     0.082     1.956     2.187
    31   1 H        0.925     0.063     2.170     2.303
    32   1 H        0.925     0.100     1.787     2.091
    33   1 H        0.924     0.078     2.002     2.213
    34   1 H        0.925     0.079     1.984     2.203
    35   1 H        0.925     0.080     1.977     2.199
    36   1 H        0.925     0.064     2.149     2.292

Wiberg/Mayer (AO) data.
largest (>0.10) Wiberg bond orders for each atom

     #   Z sym  total        # sym  WBO       # sym  WBO       # sym  WBO
 ---------------------------------------------------------------------------
     1   6 C    3.993 --     2 C    1.014    14 H    0.986    15 H    0.985
                            13 H    0.981
     2   6 C    3.937 --     1 C    1.014    16 H    0.969    17 H    0.969
                             3 O    0.959
     3   8 O    2.070 --     4 C    0.996     2 C    0.959
     4   6 C    3.960 --     5 C    0.999     3 O    0.996    18 H    0.962
                            19 H    0.959
     5   6 C    3.943 --     4 C    0.999    20 H    0.965    21 H    0.959
                             6 N    0.945
     6   7 N    3.800 --     5 C    0.945     9 C    0.932     7 C    0.928
                            11 C    0.919
     7   6 C    3.933 --     8 C    1.022    22 H    0.969    23 H    0.960
                             6 N    0.928
     8   6 C    3.984 --     7 C    1.022    24 H    0.982    26 H    0.979
                            25 H    0.973
     9   6 C    3.937 --    10 C    1.022    27 H    0.967    28 H    0.964
                             6 N    0.932
    10   6 C    3.983 --     9 C    1.022    31 H    0.981    29 H    0.979
                            30 H    0.973
    11   6 C    3.928 --    12 C    1.023    33 H    0.969    32 H    0.964
                             6 N    0.919
    12   6 C    3.981 --    11 C    1.023    34 H    0.977    36 H    0.977
                            35 H    0.971
    13   1 H    0.996 --     1 C    0.981
    14   1 H    0.997 --     1 C    0.986
    15   1 H    0.998 --     1 C    0.985
    16   1 H    0.999 --     2 C    0.969
    17   1 H    0.996 --     2 C    0.969
    18   1 H    0.998 --     4 C    0.962
    19   1 H    0.997 --     4 C    0.959
    20   1 H    0.993 --     5 C    0.965
    21   1 H    0.989 --     5 C    0.959
    22   1 H    0.994 --     7 C    0.969
    23   1 H    0.989 --     7 C    0.960
    24   1 H    0.996 --     8 C    0.982
    25   1 H    0.993 --     8 C    0.973
    26   1 H    0.996 --     8 C    0.979
    27   1 H    0.993 --     9 C    0.967
    28   1 H    0.993 --     9 C    0.964
    29   1 H    0.995 --    10 C    0.979
    30   1 H    0.993 --    10 C    0.973
    31   1 H    0.996 --    10 C    0.981
    32   1 H    0.990 --    11 C    0.964
    33   1 H    0.994 --    11 C    0.969
    34   1 H    0.994 --    12 C    0.977
    35   1 H    0.993 --    12 C    0.971
    36   1 H    0.996 --    12 C    0.977
 ---------------------------------------------------------------------------

molecular dipole:
                 x           y           z       tot (Debye)
 q only:        4.611       4.696       1.730
   full:        4.724       4.629       1.612      17.303

           -------------------------------------------------
          | TOTAL ENERGY              -40.242582999257 Eh   |
          | GRADIENT NORM               0.000865993931 Eh/α |
          | HOMO-LUMO GAP               8.004509337609 eV   |
           -------------------------------------------------

 * finished run on 2024/12/20 at 07:14:47.140
