   * xtb version 6.7.1 (edcfbbe) compiled by 'conda@3ef47c1a292c' on 2024-11-25

   ID    Z sym.   atoms
    1    6 C      1, 2, 4-6, 8-10, 12-22, 24
    2    7 N      3, 11
    3   17 Cl     7, 25
    4    8 O      23
    5    1 H      26-46

          program call               : xtb C1217.xyz --opt --namespace C1217 --charge +1
          :  Hamiltonian                  GFN2-xTB          :
 * total energy  :   -72.1935020 Eh     change       -0.9627570E-09 Eh
 * total energy  :   -72.2040950 Eh     change       -0.1059302E-01 Eh
 * total energy  :   -72.2072942 Eh     change       -0.3199191E-02 Eh
 * total energy  :   -72.2081259 Eh     change       -0.8316701E-03 Eh
 * total energy  :   -72.2089635 Eh     change       -0.8376454E-03 Eh
 * total energy  :   -72.2096625 Eh     change       -0.6990090E-03 Eh
 * total energy  :   -72.2104300 Eh     change       -0.7674569E-03 Eh
 * total energy  :   -72.2112599 Eh     change       -0.8299667E-03 Eh
 * total energy  :   -72.2120884 Eh     change       -0.8284255E-03 Eh
 * total energy  :   -72.2129155 Eh     change       -0.8270984E-03 Eh
 * total energy  :   -72.2173500 Eh     change       -0.3087227E-04 Eh
 * total energy  :   -72.2173696 Eh     change       -0.1955617E-04 Eh
 * total energy  :   -72.2173823 Eh     change       -0.1277294E-04 Eh
 * total energy  :   -72.2173943 Eh     change       -0.1191429E-04 Eh
 * total energy  :   -72.2174065 Eh     change       -0.1220923E-04 Eh
 * total energy  :   -72.2174200 Eh     change       -0.1357872E-04 Eh
 * total energy  :   -72.2174308 Eh     change       -0.1079280E-04 Eh
 * total energy  :   -72.2174380 Eh     change       -0.7144380E-05 Eh
 * total energy  :   -72.2174425 Eh     change       -0.4525736E-05 Eh
   *** GEOMETRY OPTIMIZATION CONVERGED AFTER 37 ITERATIONS ***

 final structure:
================
46
 xtb: 6.7.1 (edcfbbe)
C           -1.06796489492206       -0.40271276754437        0.30601419140631
C            0.12131648747523       -0.85480498755738       -0.53431064448495
N            0.63274768364222       -2.12916464650508       -0.07305085347122
C            0.12081875339934       -3.35476605447245       -0.44023881103399
C           -0.92079410598846       -3.70918878922206       -1.28635711964863
C           -1.17046177647410       -5.05987414035383       -1.45675058828517
Cl          -2.44464895511669       -5.55541497588168       -2.48830373447478
C           -0.39193169447885       -6.03733387160556       -0.79575692911703
C            0.64617068191739       -5.68050638149963        0.04755586073007
C            0.89168014216993       -4.32534938594882        0.22155394907996
N            1.82587785141656       -3.64390546134304        0.97687398106544
C            1.64581153251069       -2.32891114065708        0.78090751538095
C            2.47780056399500       -1.24843402995632        1.34466530718298
C            3.56417963479247       -0.78178123991006        0.38156924119709
C            3.71167867234977       -1.30458038588691       -0.89455912597402
C            4.73091675263120       -0.85419567162208       -1.71981440124246
C            5.60967200732595        0.11689793110198       -1.27554227345358
C            5.46551875183741        0.64008789396312       -0.00057399707785
C            4.44873079925513        0.19399170098300        0.82291073375147
C            2.81327701213650       -4.29520490248946        1.80923029219244
C            4.14863823587598       -4.50649537673390        1.08514620822272
C            5.16783238782492       -3.42123064844147        1.42788125816004
O            4.97962160266619       -2.65382993353189        2.33618954723952
C            6.38746679214728       -3.41314639963833        0.56326641857942
Cl          -0.73701894997424       -7.69667945226769       -1.04531932318413
H           -1.86762215711912       -1.13812061559150        0.26991550130207
H           -1.44643435241845        0.53816247889339       -0.08100560546000
H           -0.78026368380663       -0.25535227051580        1.34403136259815
H           -0.17936037686060       -0.97933884105707       -1.57629768786220
H            0.92602673028316       -0.11934037977183       -0.49756829732075
H           -1.52415218703201       -2.97878825922851       -1.79831303055088
H            1.22868922684346       -6.44407387991796        0.53460224254608
H            1.84996148947106       -0.39454921373076        1.60990553687953
H            2.97758022823513       -1.58931299711161        2.25384690222566
H            3.04039900298457       -2.06819384483608       -1.26456840284129
H            4.83340898987441       -1.26756586134637       -2.71189509771122
H            6.40294824097145        0.46388345317663       -1.91856319928178
H            6.14731081424144        1.39657033489887        0.35447516474661
H            4.34426884934529        0.59685073741901        1.81823094596598
H            3.00198671477021       -3.68510109791441        2.69814851728228
H            2.38639520931594       -5.24638850174483        2.12669782727294
H            4.58827253230300       -5.45296818512002        1.40569171155311
H            4.01221576491017       -4.56037525696902        0.00486610504772
H            6.74576239759714       -4.42239367145873        0.37958312755657
H            6.13244828614385       -2.96313210757236       -0.39595221182720
H            7.16876231153104       -2.81536890348243        1.02425188513641

          :  Hamiltonian                  GFN2-xTB          :
         :: total energy             -72.217442507895 Eh    ::
         :: gradient norm              0.000543526083 Eh/a0 ::
         :: HOMO-LUMO gap              2.705867463616 eV    ::
         :: SCC energy               -73.240908835308 Eh    ::
         :: -> dispersion             -0.056708237855 Eh    ::
         :: repulsion energy           1.023466327413 Eh    ::

    * Orbital Energies and Occupations

         #    Occupation            Energy/Eh            Energy/eV
      -------------------------------------------------------------
         1        2.0000           -1.1651672             -31.7058
       ...           ...                  ...                  ...
        53        2.0000           -0.5785657             -15.7436
        54        2.0000           -0.5747404             -15.6395
        55        2.0000           -0.5723882             -15.5755
        56        2.0000           -0.5696915             -15.5021
        57        2.0000           -0.5355698             -14.5736
        58        2.0000           -0.5342273             -14.5371
        59        2.0000           -0.5306188             -14.4389
        60        2.0000           -0.5301399             -14.4258
        61        2.0000           -0.5296464             -14.4124
        62        2.0000           -0.5182210             -14.1015
        63        2.0000           -0.5148411             -14.0095
        64        2.0000           -0.5134265             -13.9710
        65        2.0000           -0.5098904             -13.8748 (HOMO)
        66                         -0.4104516             -11.1690 (LUMO)
        67                         -0.3701858             -10.0733
        68                         -0.3659138              -9.9570
        69                         -0.3585996              -9.7580
        70                         -0.3341557              -9.0928
        71                         -0.3327953              -9.0558
        72                         -0.2575404              -7.0080
        73                         -0.2510639              -6.8318
        74                         -0.2433468              -6.6218
        75                         -0.2038416              -5.5468
        76                         -0.1797085              -4.8901
       ...                                ...                  ...
       131                          0.5537572              15.0685
      -------------------------------------------------------------
                  HL-Gap            0.0994388 Eh            2.7059 eV

     #   Z          covCN         q      C6AA      α(0)
     1   6 C        3.753    -0.123    22.913     6.826
     2   6 C        3.739    -0.015    20.929     6.528
     3   7 N        2.832     0.016    20.967     6.801
     4   6 C        3.096     0.036    27.074     8.528
     5   6 C        2.952    -0.051    29.258     8.872
     6   6 C        2.922     0.094    25.912     8.348
     7  17 Cl       1.005    -0.076   101.548    15.417
     8   6 C        2.922     0.094    25.916     8.348
     9   6 C        2.953    -0.051    29.275     8.874
    10   6 C        3.099     0.034    27.124     8.535
    11   7 N        2.827     0.015    20.993     6.805
    12   6 C        3.079     0.124    25.212     8.232
    13   6 C        3.810    -0.085    22.111     6.693
    14   6 C        2.971     0.011    27.774     8.645
    15   6 C        2.921    -0.047    29.167     8.856
    16   6 C        2.920    -0.030    28.749     8.793
    17   6 C        2.919    -0.026    28.642     8.776
    18   6 C        2.920    -0.020    28.509     8.756
    19   6 C        2.925    -0.031    28.774     8.797
    20   6 C        3.740    -0.020    21.006     6.539
    21   6 C        3.802    -0.101    22.421     6.741
    22   6 C        2.810     0.243    22.928     7.845
    23   8 O        0.857    -0.355    20.802     6.115
    24   6 C        3.754    -0.150    23.451     6.905
    25  17 Cl       1.005    -0.077   101.571    15.419
    26   1 H        0.925     0.064     2.151     2.294
    27   1 H        0.925     0.079     1.988     2.205
    28   1 H        0.925     0.059     2.215     2.327
    29   1 H        0.924     0.084     1.942     2.179
    30   1 H        0.924     0.083     1.943     2.180
    31   1 H        0.926     0.099     1.796     2.096
    32   1 H        0.926     0.096     1.818     2.109
    33   1 H        0.924     0.087     1.910     2.161
    34   1 H        0.924     0.110     1.697     2.037
    35   1 H        0.925     0.010     2.883     2.655
    36   1 H        0.926     0.045     2.389     2.417
    37   1 H        0.926     0.055     2.258     2.350
    38   1 H        0.926     0.059     2.213     2.326
    39   1 H        0.926     0.054     2.272     2.357
    40   1 H        0.924     0.105     1.737     2.061
    41   1 H        0.925     0.085     1.926     2.170
    42   1 H        0.924     0.093     1.850     2.127
    43   1 H        0.925     0.073     2.057     2.243
    44   1 H        0.925     0.079     1.988     2.205
    45   1 H        0.925     0.083     1.944     2.180
    46   1 H        0.925     0.088     1.895     2.153

Wiberg/Mayer (AO) data.
largest (>0.10) Wiberg bond orders for each atom

     #   Z sym  total        # sym  WBO       # sym  WBO       # sym  WBO
 ---------------------------------------------------------------------------
     1   6 C    3.983 --     2 C    1.004    28 H    0.985    26 H    0.984
                            27 H    0.978
     2   6 C    3.942 --     1 C    1.004     3 N    0.966    30 H    0.965
                            29 H    0.963
     3   7 N    3.661 --    12 C    1.324     4 C    1.134     2 C    0.966
     4   6 C    3.961 --     5 C    1.340    10 C    1.268     3 N    1.134
     5   6 C    3.979 --     6 C    1.441     4 C    1.340    31 H    0.956
                             9 C    0.103
     6   6 C    3.937 --     5 C    1.441     8 C    1.287     7 Cl   1.043
     7  17 Cl   1.209 --     6 C    1.043
     8   6 C    3.936 --     9 C    1.440     6 C    1.287    25 Cl   1.042
     9   6 C    3.979 --     8 C    1.440    10 C    1.341    32 H    0.956
                             5 C    0.103
    10   6 C    3.960 --     9 C    1.341     4 C    1.268    11 N    1.129
    11   7 N    3.658 --    12 C    1.319    10 C    1.129    20 C    0.973
    12   6 C    3.936 --     3 N    1.324    11 N    1.319    13 C    1.038
    13   6 C    3.975 --    12 C    1.038    14 C    0.954    33 H    0.944
                            34 H    0.936
    14   6 C    3.973 --    15 C    1.425    19 C    1.407    13 C    0.954
                            17 C    0.109
    15   6 C    3.991 --    16 C    1.430    14 C    1.425    35 H    0.968
                            18 C    0.110
    16   6 C    3.992 --    17 C    1.447    15 C    1.430    36 H    0.970
                            19 C    0.113
    17   6 C    3.990 --    16 C    1.447    18 C    1.431    37 H    0.969
                            14 C    0.109
    18   6 C    3.988 --    19 C    1.450    17 C    1.431    38 H    0.968
                            15 C    0.110
    19   6 C    3.989 --    18 C    1.450    14 C    1.407    39 H    0.968
                            16 C    0.113
    20   6 C    3.941 --    21 C    0.992    11 N    0.973    41 H    0.964
                            40 H    0.949
    21   6 C    3.990 --    20 C    0.992    22 C    0.975    43 H    0.960
                            42 H    0.944
    22   6 C    3.919 --    23 O    1.859    24 C    1.022    21 C    0.975
    23   8 O    2.086 --    22 C    1.859
    24   6 C    3.989 --    22 C    1.022    46 H    0.976    44 H    0.965
                            45 H    0.942
    25  17 Cl   1.208 --     8 C    1.042
    26   1 H    0.996 --     1 C    0.984
    27   1 H    0.993 --     1 C    0.978
    28   1 H    0.997 --     1 C    0.985
    29   1 H    0.992 --     2 C    0.963
    30   1 H    0.992 --     2 C    0.965
    31   1 H    0.990 --     5 C    0.956
    32   1 H    0.990 --     9 C    0.956
    33   1 H    0.991 --    13 C    0.944
    34   1 H    0.987 --    13 C    0.936
    35   1 H    1.000 --    15 C    0.968
    36   1 H    0.998 --    16 C    0.970
    37   1 H    0.996 --    17 C    0.969
    38   1 H    0.995 --    18 C    0.968
    39   1 H    0.997 --    19 C    0.968
    40   1 H    0.988 --    20 C    0.949
    41   1 H    0.992 --    20 C    0.964
    42   1 H    0.991 --    21 C    0.944
    43   1 H    0.995 --    21 C    0.960
    44   1 H    0.994 --    24 C    0.965
    45   1 H    0.993 --    24 C    0.942
    46   1 H    0.992 --    24 C    0.976
 ---------------------------------------------------------------------------

molecular dipole:
                 x           y           z       tot (Debye)
 q only:        3.866      -4.768       0.406
   full:        3.451      -5.454       0.006      16.405

           -------------------------------------------------
          | TOTAL ENERGY              -72.217442507895 Eh   |
          | GRADIENT NORM               0.000543526083 Eh/α |
          | HOMO-LUMO GAP               2.705867463616 eV   |
           -------------------------------------------------

 * finished run on 2024/12/20 at 07:15:13.283
