   * xtb version 6.7.1 (edcfbbe) compiled by 'conda@3ef47c1a292c' on 2024-11-25

   ID    Z sym.   atoms
    1    6 C      1-12, 14, 17-30
    2    7 N      13, 15, 16
    3    1 H      31-70

          program call               : xtb C1219.xyz --opt --namespace C1219 --charge +1
          :  Hamiltonian                  GFN2-xTB          :
 * total energy  :   -86.6670650 Eh     change       -0.2213199E-08 Eh
 * total energy  :   -86.6730162 Eh     change       -0.5951229E-02 Eh
 * total energy  :   -86.6742605 Eh     change       -0.1244267E-02 Eh
 * total energy  :   -86.6748026 Eh     change       -0.5420499E-03 Eh
 * total energy  :   -86.6754259 Eh     change       -0.6233109E-03 Eh
 * total energy  :   -86.6759299 Eh     change       -0.5040431E-03 Eh
 * total energy  :   -86.6764227 Eh     change       -0.4927838E-03 Eh
 * total energy  :   -86.6768347 Eh     change       -0.4119922E-03 Eh
 * total energy  :   -86.6771686 Eh     change       -0.3339288E-03 Eh
 * total energy  :   -86.6774633 Eh     change       -0.2946398E-03 Eh
 * total energy  :   -86.6824394 Eh     change       -0.1705360E-04 Eh
 * total energy  :   -86.6824512 Eh     change       -0.1188033E-04 Eh
 * total energy  :   -86.6824615 Eh     change       -0.1021214E-04 Eh
 * total energy  :   -86.6824719 Eh     change       -0.1040717E-04 Eh
 * total energy  :   -86.6824814 Eh     change       -0.9499404E-05 Eh
 * total energy  :   -86.6824893 Eh     change       -0.7982018E-05 Eh
 * total energy  :   -86.6824970 Eh     change       -0.7637531E-05 Eh
 * total energy  :   -86.6825050 Eh     change       -0.7971391E-05 Eh
 * total energy  :   -86.6825075 Eh     change       -0.2547832E-05 Eh
   *** GEOMETRY OPTIMIZATION CONVERGED AFTER 68 ITERATIONS ***

 final structure:
================
70
 xtb: 6.7.1 (edcfbbe)
C            1.40331249206052       -0.68992342077134        0.59713413430399
C            1.19343525535824        0.03510575623852        1.92121560363155
C            1.51013922259792        1.52968302020916        1.84822080590170
C            0.63627807295376        2.32842038176458        0.87904170259372
C           -0.86300526460724        2.29540828908740        1.18183762908721
C           -1.25825228242490        2.84295963487865        2.55505037490125
C           -0.83053568709777        4.28751993882176        2.82536047867849
C           -1.31718927854012        5.31111426039471        1.79751391130753
C           -2.83802102095766        5.42670872865892        1.67013552218476
C           -3.53084121823388        6.04282631170133        2.88837711924831
C           -3.28337111595039        7.54505287713276        3.04981978917173
C           -4.01886676489057        8.39756785169128        2.00938942319677
N           -5.44411710747756        8.45952166925901        2.25817920850058
C           -6.05164545937002        9.29194746871865        3.12117593477049
N           -5.43650956396440       10.23493953182971        3.84347427206218
N           -7.38027687883172        9.09063262940256        3.11464184068290
C           -7.65422890689286        8.07413362602638        2.20801755920361
C           -6.42394104773212        7.67115246139596        1.66556678211913
C           -6.35400614627901        6.66688616258398        0.71437934161104
C           -7.54465326264392        6.07762171907039        0.32992040282933
C           -8.76438577386797        6.47504730833134        0.87125904333205
C           -8.84277635113428        7.48047848003672        1.81774706991117
C           -8.35300606304424        9.84965046507615        3.88074889471460
C           -7.95997000305175        9.96452293401439        5.33272649662631
C           -7.80727091964198       11.21028649933575        5.93279199026134
C           -7.45408410762377       11.30501396674598        7.26724625281468
C           -7.23495763133534       10.16380286341979        8.03079098950338
C           -7.38125149716098        8.92106601857011        7.42095295182227
C           -7.74156751044929        8.81918610007954        6.09107277426301
C           -6.88133790921762       10.26950670557085        9.47778845676532
H            0.69651638644724       -0.34903562170253       -0.15517034667825
H            1.26461891244038       -1.76051399933161        0.72855855549160
H            2.41145844526862       -0.51919185706504        0.22578319547105
H            0.16589493047016       -0.11245092278922        2.25867181542782
H            1.84801875377292       -0.41145412123848        2.67355333940973
H            1.42286008640411        1.95511896787115        2.85030985727658
H            2.55117627719683        1.64802779858644        1.53710801127281
H            0.98395619430026        3.36393941769899        0.88078609952293
H            0.78618554870050        1.94579758638514       -0.13212540787394
H           -1.38235648151113        2.85935547269273        0.40311916365854
H           -1.21803541326404        1.26558009449785        1.11448178999642
H           -2.34298468732541        2.75837019458071        2.65924783956726
H           -0.81815898588226        2.21299476065630        3.32979378039776
H           -1.18373877575547        4.56899778625839        3.82047673113228
H            0.25912684919056        4.33488308901070        2.85236498402073
H           -0.89557525955967        6.28530600301453        2.05673833230093
H           -0.91554303518483        5.04413356954349        0.81947503584865
H           -3.05833258074030        6.01919427617597        0.77855095342930
H           -3.25458117943410        4.43320667878285        1.50398173086526
H           -4.60659370668298        5.86092911991738        2.82371120352004
H           -3.17351217843619        5.53742740810578        3.78546173546580
H           -3.59580198265817        7.85326660637198        4.05110118442567
H           -2.21617273459491        7.74694091076946        2.96063694671329
H           -3.62528049750339        9.41793754279290        2.00049309009220
H           -3.87750366488420        7.97973873599129        1.01264450169348
H           -4.43277045226788       10.24432311748705        3.89981239124929
H           -5.95922949559854       10.69840386615107        4.57525385558751
H           -5.41709411626616        6.34700824230584        0.29056305958804
H           -7.52754351124054        5.29144690568785       -0.40752226889009
H           -9.66940243938961        5.98958883851831        0.54355860125220
H           -9.79336421315863        7.78284895589610        2.22546608769050
H           -8.46625484906511       10.84463113276406        3.43648711303114
H           -9.30708677257543        9.32585730163327        3.79358235577832
H           -7.98676107055192       12.10984244292832        5.36059371621628
H           -7.35257561207644       12.27858543757162        7.72206211882822
H           -7.22162101892248        8.02370790167389        7.99927567171443
H           -7.86281072403358        7.84535709209020        5.63815053762772
H           -6.28245781467485        9.42080829348719        9.79809496837155
H           -6.33833953331275       11.18883826162518        9.68182953362808
H           -7.79244586790513       10.28045247306853       10.07631138002102

          :  Hamiltonian                  GFN2-xTB          :
         :: total energy             -86.682507501236 Eh    ::
         :: gradient norm              0.000201936109 Eh/a0 ::
         :: HOMO-LUMO gap              2.458728872011 eV    ::
         :: SCC energy               -88.089831748969 Eh    ::
         :: -> dispersion             -0.070020678572 Eh    ::
         :: repulsion energy           1.407324247733 Eh    ::

    * Orbital Energies and Occupations

         #    Occupation            Energy/Eh            Energy/eV
      -------------------------------------------------------------
         1        2.0000           -0.8648547             -23.5339
       ...           ...                  ...                  ...
        69        2.0000           -0.5196945             -14.1416
        70        2.0000           -0.5166786             -14.0595
        71        2.0000           -0.5156264             -14.0309
        72        2.0000           -0.5107479             -13.8982
        73        2.0000           -0.5066704             -13.7872
        74        2.0000           -0.5011212             -13.6362
        75        2.0000           -0.5004348             -13.6175
        76        2.0000           -0.4900098             -13.3338
        77        2.0000           -0.4872534             -13.2588
        78        2.0000           -0.4832164             -13.1490
        79        2.0000           -0.4701662             -12.7939
        80        2.0000           -0.4657810             -12.6745
        81        2.0000           -0.4637578             -12.6195 (HOMO)
        82                         -0.3734012             -10.1608 (LUMO)
        83                         -0.3418985              -9.3035
        84                         -0.3375539              -9.1853
        85                         -0.3344811              -9.1017
        86                         -0.3283077              -8.9337
        87                         -0.2161735              -5.8824
        88                         -0.2117348              -5.7616
        89                         -0.1710716              -4.6551
        90                         -0.1242582              -3.3812
        91                         -0.1180630              -3.2127
        92                         -0.0565840              -1.5397
       ...                                ...                  ...
       160                          0.5653112              15.3829
      -------------------------------------------------------------
                  HL-Gap            0.0903566 Eh            2.4587 eV

     #   Z          covCN         q      C6AA      α(0)
     1   6 C        3.751    -0.102    22.516     6.767
     2   6 C        3.799    -0.052    21.517     6.604
     3   6 C        3.800    -0.058    21.612     6.619
     4   6 C        3.800    -0.058    21.613     6.619
     5   6 C        3.800    -0.057    21.606     6.618
     6   6 C        3.800    -0.058    21.617     6.620
     7   6 C        3.800    -0.059    21.631     6.622
     8   6 C        3.800    -0.060    21.663     6.627
     9   6 C        3.800    -0.061    21.665     6.627
    10   6 C        3.800    -0.064    21.720     6.636
    11   6 C        3.801    -0.068    21.797     6.647
    12   6 C        3.739    -0.014    20.913     6.525
    13   7 N        2.818    -0.029    21.801     6.935
    14   6 C        3.000     0.196    23.820     8.006
    15   7 N        2.637    -0.251    26.535     7.650
    16   7 N        2.820    -0.030    21.814     6.937
    17   6 C        3.088     0.037    27.075     8.529
    18   6 C        3.089     0.039    27.022     8.521
    19   6 C        2.911    -0.037    28.926     8.819
    20   6 C        2.926    -0.025    28.616     8.773
    21   6 C        2.926    -0.024    28.599     8.770
    22   6 C        2.910    -0.037    28.925     8.819
    23   6 C        3.745    -0.017    20.949     6.529
    24   6 C        2.970    -0.015    28.389     8.740
    25   6 C        2.920    -0.048    29.182     8.859
    26   6 C        2.924    -0.038    28.944     8.823
    27   6 C        2.966     0.029    27.352     8.578
    28   6 C        2.924    -0.036    28.908     8.817
    29   6 C        2.920    -0.041    29.007     8.832
    30   6 C        3.758    -0.119    22.830     6.812
    31   1 H        0.925     0.033     2.538     2.491
    32   1 H        0.925     0.033     2.538     2.491
    33   1 H        0.925     0.035     2.514     2.479
    34   1 H        0.924     0.029     2.596     2.520
    35   1 H        0.924     0.029     2.601     2.522
    36   1 H        0.924     0.027     2.624     2.533
    37   1 H        0.924     0.031     2.572     2.508
    38   1 H        0.924     0.027     2.635     2.539
    39   1 H        0.924     0.034     2.525     2.485
    40   1 H        0.924     0.024     2.674     2.557
    41   1 H        0.924     0.035     2.510     2.478
    42   1 H        0.924     0.023     2.685     2.562
    43   1 H        0.924     0.037     2.483     2.464
    44   1 H        0.924     0.024     2.673     2.557
    45   1 H        0.924     0.040     2.452     2.449
    46   1 H        0.924     0.025     2.662     2.551
    47   1 H        0.924     0.043     2.403     2.424
    48   1 H        0.924     0.021     2.722     2.580
    49   1 H        0.925     0.047     2.357     2.401
    50   1 H        0.924     0.028     2.608     2.526
    51   1 H        0.925     0.054     2.271     2.357
    52   1 H        0.924     0.034     2.533     2.489
    53   1 H        0.925     0.065     2.139     2.287
    54   1 H        0.924     0.059     2.208     2.324
    55   1 H        0.925     0.087     1.910     2.161
    56   1 H        0.860     0.215     1.031     1.591
    57   1 H        0.860     0.224     0.991     1.559
    58   1 H        0.926     0.067     2.120     2.277
    59   1 H        0.926     0.071     2.071     2.250
    60   1 H        0.926     0.071     2.071     2.250
    61   1 H        0.926     0.061     2.183     2.311
    62   1 H        0.924     0.070     2.089     2.260
    63   1 H        0.924     0.087     1.909     2.161
    64   1 H        0.926     0.039     2.461     2.453
    65   1 H        0.926     0.053     2.286     2.364
    66   1 H        0.926     0.051     2.306     2.374
    67   1 H        0.926     0.035     2.519     2.482
    68   1 H        0.925     0.057     2.236     2.338
    69   1 H        0.925     0.057     2.229     2.335
    70   1 H        0.925     0.069     2.094     2.263

Wiberg/Mayer (AO) data.
largest (>0.10) Wiberg bond orders for each atom

     #   Z sym  total        # sym  WBO       # sym  WBO       # sym  WBO
 ---------------------------------------------------------------------------
     1   6 C    3.997 --     2 C    1.020    33 H    0.988    32 H    0.987
                            31 H    0.986
     2   6 C    3.998 --     1 C    1.020     3 C    1.008    35 H    0.978
                            34 H    0.976
     3   6 C    3.997 --     2 C    1.008     4 C    1.008    37 H    0.977
                            36 H    0.976
     4   6 C    3.997 --     5 C    1.008     3 C    1.008    38 H    0.975
                            39 H    0.975
     5   6 C    3.997 --     4 C    1.008     6 C    1.008    40 H    0.975
                            41 H    0.974
     6   6 C    3.997 --     5 C    1.008     7 C    1.007    42 H    0.975
                            43 H    0.974
     7   6 C    3.997 --     8 C    1.008     6 C    1.007    44 H    0.974
                            45 H    0.974
     8   6 C    3.996 --     7 C    1.008     9 C    1.007    46 H    0.973
                            47 H    0.973
     9   6 C    3.996 --    10 C    1.008     8 C    1.007    49 H    0.972
                            48 H    0.971
    10   6 C    3.993 --     9 C    1.008    11 C    1.007    50 H    0.976
                            51 H    0.970
    11   6 C    3.988 --    10 C    1.007    12 C    0.991    52 H    0.976
                            53 H    0.966
    12   6 C    3.946 --    11 C    0.991    13 N    0.969    54 H    0.965
                            55 H    0.959
    13   7 N    3.599 --    14 C    1.267    18 C    1.089    12 C    0.969
    14   6 C    3.972 --    15 N    1.270    16 N    1.267    13 N    1.267
    15   7 N    3.352 --    14 C    1.270    56 H    0.929    57 H    0.903
    16   7 N    3.597 --    14 C    1.267    17 C    1.090    23 C    0.961
    17   6 C    3.949 --    22 C    1.367    18 C    1.285    16 N    1.090
    18   6 C    3.950 --    19 C    1.366    17 C    1.285    13 N    1.089
    19   6 C    3.986 --    20 C    1.465    18 C    1.366    58 H    0.961
                            22 C    0.114
    20   6 C    3.982 --    19 C    1.465    21 C    1.407    59 H    0.967
    21   6 C    3.982 --    22 C    1.465    20 C    1.407    60 H    0.967
    22   6 C    3.986 --    21 C    1.465    17 C    1.367    61 H    0.963
                            19 C    0.114
    23   6 C    3.946 --    24 C    0.993    16 N    0.961    62 H    0.960
                            63 H    0.955
    24   6 C    3.981 --    29 C    1.401    25 C    1.399    23 C    0.993
                            27 C    0.104
    25   6 C    3.990 --    26 C    1.445    24 C    1.399    64 H    0.967
                            28 C    0.104
    26   6 C    3.990 --    25 C    1.445    27 C    1.407    65 H    0.968
                            29 C    0.107
    27   6 C    3.987 --    26 C    1.407    28 C    1.398    30 C    1.035
                            24 C    0.104
    28   6 C    3.991 --    29 C    1.459    27 C    1.398    66 H    0.968
                            25 C    0.104
    29   6 C    3.992 --    28 C    1.459    24 C    1.401    67 H    0.969
                            26 C    0.107
    30   6 C    3.993 --    27 C    1.035    68 H    0.979    69 H    0.979
                            70 H    0.957
    31   1 H    0.999 --     1 C    0.986
    32   1 H    0.999 --     1 C    0.987
    33   1 H    0.999 --     1 C    0.988
    34   1 H    0.999 --     2 C    0.976
    35   1 H    0.999 --     2 C    0.978
    36   1 H    0.999 --     3 C    0.976
    37   1 H    0.999 --     3 C    0.977
    38   1 H    0.999 --     4 C    0.975
    39   1 H    0.999 --     4 C    0.975
    40   1 H    0.999 --     5 C    0.975
    41   1 H    0.999 --     5 C    0.974
    42   1 H    0.999 --     6 C    0.975
    43   1 H    0.999 --     6 C    0.974
    44   1 H    0.999 --     7 C    0.974
    45   1 H    0.998 --     7 C    0.974
    46   1 H    0.999 --     8 C    0.973
    47   1 H    0.998 --     8 C    0.973
    48   1 H    1.000 --     9 C    0.971
    49   1 H    0.998 --     9 C    0.972
    50   1 H    0.999 --    10 C    0.976
    51   1 H    0.997 --    10 C    0.970
    52   1 H    0.999 --    11 C    0.976
    53   1 H    0.995 --    11 C    0.966
    54   1 H    0.996 --    12 C    0.965
    55   1 H    0.992 --    12 C    0.959
    56   1 H    0.953 --    15 N    0.929
    57   1 H    0.949 --    15 N    0.903
    58   1 H    0.995 --    19 C    0.961
    59   1 H    0.994 --    20 C    0.967
    60   1 H    0.994 --    21 C    0.967
    61   1 H    0.996 --    22 C    0.963
    62   1 H    0.994 --    23 C    0.960
    63   1 H    0.992 --    23 C    0.955
    64   1 H    0.998 --    25 C    0.967
    65   1 H    0.997 --    26 C    0.968
    66   1 H    0.997 --    28 C    0.968
    67   1 H    0.999 --    29 C    0.969
    68   1 H    0.996 --    30 C    0.979
    69   1 H    0.996 --    30 C    0.979
    70   1 H    0.995 --    30 C    0.957
 ---------------------------------------------------------------------------

molecular dipole:
                 x           y           z       tot (Debye)
 q only:      -11.328      16.470       6.520
   full:      -11.335      16.669       6.659      53.960

           -------------------------------------------------
          | TOTAL ENERGY              -86.682507501236 Eh   |
          | GRADIENT NORM               0.000201936109 Eh/α |
          | HOMO-LUMO GAP               2.458728872011 eV   |
           -------------------------------------------------

 * finished run on 2024/12/20 at 07:15:21.789
