   * xtb version 6.7.1 (edcfbbe) compiled by 'conda@3ef47c1a292c' on 2024-11-25

   ID    Z sym.   atoms
    1    6 C      1, 4, 6-16
    2    7 N      2, 3, 5
    3    9 F      17-33
    4    1 H      34-42

          program call               : xtb C1214.xyz --opt --namespace C1214 --charge +1
          :  Hamiltonian                  GFN2-xTB          :
 * total energy  :  -121.1466643 Eh     change       -0.1687397E-09 Eh
 * total energy  :  -121.1637626 Eh     change       -0.1709829E-01 Eh
 * total energy  :  -121.1705020 Eh     change       -0.6739437E-02 Eh
 * total energy  :  -121.1722044 Eh     change       -0.1702439E-02 Eh
 * total energy  :  -121.1734364 Eh     change       -0.1231994E-02 Eh
 * total energy  :  -121.1739823 Eh     change       -0.5458611E-03 Eh
 * total energy  :  -121.1743573 Eh     change       -0.3750067E-03 Eh
 * total energy  :  -121.1746288 Eh     change       -0.2715092E-03 Eh
 * total energy  :  -121.1748663 Eh     change       -0.2375485E-03 Eh
 * total energy  :  -121.1751600 Eh     change       -0.2936180E-03 Eh
 * total energy  :  -121.1771698 Eh     change       -0.1892511E-04 Eh
 * total energy  :  -121.1771934 Eh     change       -0.2364278E-04 Eh
 * total energy  :  -121.1772110 Eh     change       -0.1757491E-04 Eh
 * total energy  :  -121.1772384 Eh     change       -0.2745734E-04 Eh
 * total energy  :  -121.1772787 Eh     change       -0.4026451E-04 Eh
 * total energy  :  -121.1773066 Eh     change       -0.2785569E-04 Eh
 * total energy  :  -121.1773300 Eh     change       -0.2348618E-04 Eh
 * total energy  :  -121.1773394 Eh     change       -0.9349057E-05 Eh
 * total energy  :  -121.1773429 Eh     change       -0.3516478E-05 Eh
   *** GEOMETRY OPTIMIZATION CONVERGED AFTER 57 ITERATIONS ***

 final structure:
================
42
 xtb: 6.7.1 (edcfbbe)
C           -0.75597430750398        1.05950394646295        0.32502165092767
N           -0.10282737355368        1.19546395722163       -0.94586990987986
N           -0.69262995513426        0.74129049435164       -2.04078860643373
C            0.11065540770832        1.00239208199661       -3.02869223414173
N            1.24267376657741        1.62308903548221       -2.57479729263268
C            1.07569398329759        1.74291261423446       -1.24094063863015
C            2.01656208540344        2.35882709576499       -0.29544415663344
C            2.39082367014813        2.05602778761711       -3.33200200500761
C           -0.21856807286142        0.61722599080311       -4.44562381633621
C           -1.64929204792949        1.09928643157268       -4.88171062853271
C           -1.87875910330664        2.64875675586080       -4.81415061608013
C           -1.10321147532804        3.60721197706685       -5.77724956637466
C           -1.11795935720181        3.38353641638114       -7.32225629674342
C           -2.49873696620455        3.39112020113175       -8.05655559127573
C           -3.30454108353704        4.73119476107451       -8.10217650525254
C           -2.56553082065645        5.96208633218372       -8.72918167514249
F           -1.84511854062035        5.60699977368782       -9.78382617111268
F           -3.44397556135860        6.87237517538199       -9.09963861751923
F           -1.74991209465815        6.50582688927066       -7.82935380815295
F           -4.41520076364510        4.49430870245938       -8.80949401441796
F           -3.68687756282364        5.05030576136854       -6.85172246101231
F           -2.27736353994430        2.97966302913288       -9.30929783060658
F           -3.28454454461522        2.46975362859327       -7.46726409175463
F           -0.32665156718999        4.32991781835861       -7.85027394652066
F           -0.52528637817238        2.20511755505906       -7.57533932633118
F           -1.52496942984622        4.84860065719440       -5.50734710907661
F            0.19355770666129        3.56680894291920       -5.38356878397194
F           -3.18410704884550        2.89040588845229       -4.90012709390327
F           -1.49087471204193        3.04140068559113       -3.56680290378762
F           -1.90356201656588        0.63969251186757       -6.10818203104825
F           -2.54584844584541        0.54821116545731       -4.04927377319113
F            0.69448432172745        1.09716364088283       -5.31025558477544
F           -0.18583157039649       -0.72101139630897       -4.56317374997379
H           -1.68657777698196        0.52185919263926        0.15139995024966
H           -0.98213611984483        2.03871893747659        0.74755464711908
H           -0.13513400441587        0.49432221657463        1.01990834529370
H            2.94424958777750        1.78648997672616       -0.24595974485227
H            2.26751885697468        3.37229754177363       -0.60873155452346
H            1.58651392969324        2.40036864268784        0.70105389818352
H            2.12038646628817        2.87956565815682       -3.99362979594818
H            3.17144671382187        2.38077710648557       -2.65009223027691
H            2.76670574494423        1.23733441890741       -3.94513432991134

          :  Hamiltonian                  GFN2-xTB          :
         :: total energy            -121.177342902573 Eh    ::
         :: gradient norm              0.000661708370 Eh/a0 ::
         :: HOMO-LUMO gap              4.468342793099 eV    ::
         :: SCC energy              -121.766955808562 Eh    ::
         :: -> dispersion             -0.045289002025 Eh    ::
         :: repulsion energy           0.589612905989 Eh    ::

    * Orbital Energies and Occupations

         #    Occupation            Energy/Eh            Energy/eV
      -------------------------------------------------------------
         1        2.0000           -1.0495638             -28.5601
       ...           ...                  ...                  ...
        85        2.0000           -0.6640317             -18.0692
        86        2.0000           -0.6633456             -18.0506
        87        2.0000           -0.6605527             -17.9746
        88        2.0000           -0.6588839             -17.9291
        89        2.0000           -0.6580954             -17.9077
        90        2.0000           -0.6550706             -17.8254
        91        2.0000           -0.6469096             -17.6033
        92        2.0000           -0.6366031             -17.3229
        93        2.0000           -0.6352999             -17.2874
        94        2.0000           -0.6293237             -17.1248
        95        2.0000           -0.6245189             -16.9940
        96        2.0000           -0.6226524             -16.9432
        97        2.0000           -0.6092293             -16.5780 (HOMO)
        98                         -0.4450207             -12.1096 (LUMO)
        99                         -0.4425301             -12.0419
       100                         -0.2581924              -7.0258
       101                         -0.2539665              -6.9108
       102                         -0.2437038              -6.6315
       103                         -0.2306878              -6.2773
       104                         -0.2212748              -6.0212
       105                         -0.2165743              -5.8933
       106                         -0.2023572              -5.5064
       107                         -0.1921871              -5.2297
       108                         -0.1783829              -4.8540
       ...                                ...                  ...
       141                          0.3143082               8.5528
      -------------------------------------------------------------
                  HL-Gap            0.1642086 Eh            4.4683 eV

     #   Z          covCN         q      C6AA      α(0)
     1   6 C        3.693    -0.102    22.634     6.807
     2   7 N        3.049     0.151    18.682     6.420
     3   7 N        2.035    -0.155    25.068     7.426
     4   6 C        3.176     0.109    25.232     8.203
     5   7 N        2.844     0.034    20.649     6.749
     6   6 C        3.087     0.115    25.370     8.257
     7   6 C        3.754    -0.147    23.399     6.898
     8   6 C        3.689    -0.092    22.460     6.783
     9   6 C        3.520     0.328    16.784     6.041
    10   6 C        3.515     0.315    17.000     6.088
    11   6 C        3.516     0.310    17.054     6.096
    12   6 C        3.518     0.314    16.988     6.080
    13   6 C        3.517     0.312    17.021     6.089
    14   6 C        3.516     0.315    16.999     6.087
    15   6 C        3.515     0.309    17.086     6.103
    16   6 C        3.326     0.486    17.422     6.632
    17   9 F        0.791    -0.159    10.817     3.885
    18   9 F        0.791    -0.136    10.594     3.845
    19   9 F        0.791    -0.166    10.888     3.898
    20   9 F        0.790    -0.142    10.655     3.856
    21   9 F        0.789    -0.171    10.942     3.907
    22   9 F        0.790    -0.143    10.663     3.857
    23   9 F        0.789    -0.169    10.921     3.904
    24   9 F        0.790    -0.157    10.803     3.882
    25   9 F        0.790    -0.158    10.814     3.884
    26   9 F        0.791    -0.154    10.767     3.876
    27   9 F        0.791    -0.180    11.032     3.924
    28   9 F        0.789    -0.141    10.645     3.854
    29   9 F        0.791    -0.193    11.164     3.947
    30   9 F        0.789    -0.152    10.754     3.874
    31   9 F        0.790    -0.150    10.727     3.869
    32   9 F        0.789    -0.185    11.085     3.933
    33   9 F        0.791    -0.153    10.756     3.874
    34   1 H        0.925     0.141     1.452     1.884
    35   1 H        0.925     0.120     1.613     1.986
    36   1 H        0.925     0.119     1.622     1.992
    37   1 H        0.924     0.124     1.578     1.965
    38   1 H        0.925     0.123     1.587     1.970
    39   1 H        0.925     0.115     1.655     2.012
    40   1 H        0.924     0.125     1.571     1.960
    41   1 H        0.925     0.114     1.660     2.015
    42   1 H        0.925     0.124     1.580     1.965

Wiberg/Mayer (AO) data.
largest (>0.10) Wiberg bond orders for each atom

     #   Z sym  total        # sym  WBO       # sym  WBO       # sym  WBO
 ---------------------------------------------------------------------------
     1   6 C    3.909 --     2 N    0.980    34 H    0.964    36 H    0.957
                            35 H    0.954
     2   7 N    3.736 --     6 C    1.356     3 N    1.210     1 C    0.980
     3   7 N    3.029 --     4 C    1.558     2 N    1.210
     4   6 C    3.967 --     3 N    1.558     5 N    1.217     9 C    0.963
     5   7 N    3.694 --     6 C    1.290     4 C    1.217     8 C    0.979
     6   6 C    3.945 --     2 N    1.356     5 N    1.290     7 C    1.055
     7   6 C    3.964 --     6 C    1.055    39 H    0.966    38 H    0.942
                            37 H    0.936
     8   6 C    3.911 --     5 N    0.979    41 H    0.969    42 H    0.958
                            40 H    0.952
     9   6 C    3.893 --    33 F    0.977    32 F    0.964     4 C    0.963
                            10 C    0.892
    10   6 C    3.897 --    30 F    0.991    31 F    0.985    11 C    0.903
                             9 C    0.892
    11   6 C    3.888 --    28 F    1.004    29 F    0.948    12 C    0.909
                            10 C    0.903
    12   6 C    3.891 --    26 F    0.990    27 F    0.961    13 C    0.909
                            11 C    0.909
    13   6 C    3.897 --    24 F    0.982    25 F    0.981    12 C    0.909
                            14 C    0.905
    14   6 C    3.898 --    22 F    0.994    23 F    0.972    13 C    0.905
                            15 C    0.905
    15   6 C    3.897 --    20 F    0.994    21 F    0.973    14 C    0.905
                            16 C    0.883
    16   6 C    3.887 --    18 F    0.997    17 F    0.979    19 F    0.970
                            15 C    0.883
    17   9 F    1.116 --    16 C    0.979
    18   9 F    1.139 --    16 C    0.997
    19   9 F    1.106 --    16 C    0.970
    20   9 F    1.118 --    15 C    0.994
    21   9 F    1.090 --    15 C    0.973
    22   9 F    1.119 --    14 C    0.994
    23   9 F    1.093 --    14 C    0.972
    24   9 F    1.105 --    13 C    0.982
    25   9 F    1.103 --    13 C    0.981
    26   9 F    1.112 --    12 C    0.990
    27   9 F    1.078 --    12 C    0.961
    28   9 F    1.128 --    11 C    1.004
    29   9 F    1.066 --    11 C    0.948
    30   9 F    1.116 --    10 C    0.991
    31   9 F    1.112 --    10 C    0.985
    32   9 F    1.079 --     9 C    0.964
    33   9 F    1.109 --     9 C    0.977
    34   1 H    0.980 --     1 C    0.964
    35   1 H    0.985 --     1 C    0.954
    36   1 H    0.985 --     1 C    0.957
    37   1 H    0.984 --     7 C    0.936
    38   1 H    0.985 --     7 C    0.942
    39   1 H    0.986 --     7 C    0.966
    40   1 H    0.984 --     8 C    0.952
    41   1 H    0.987 --     8 C    0.969
    42   1 H    0.984 --     8 C    0.958
 ---------------------------------------------------------------------------

molecular dipole:
                 x           y           z       tot (Debye)
 q only:        2.202       3.621      -2.032
   full:        2.446       3.768      -2.174      12.685

           -------------------------------------------------
          | TOTAL ENERGY             -121.177342902573 Eh   |
          | GRADIENT NORM               0.000661708370 Eh/α |
          | HOMO-LUMO GAP               4.468342793099 eV   |
           -------------------------------------------------

 * finished run on 2024/12/20 at 07:15:09.134
