   * xtb version 6.7.1 (edcfbbe) compiled by 'conda@3ef47c1a292c' on 2024-11-25

   ID    Z sym.   atoms
    1    6 C      1-14, 16-24
    2    7 N      15
    3    1 H      25-58

          program call               : xtb C1218.xyz --opt --namespace C1218 --charge +1
          :  Hamiltonian                  GFN2-xTB          :
 * total energy  :   -69.1008915 Eh     change       -0.1635243E-09 Eh
 * total energy  :   -69.1093356 Eh     change       -0.8444123E-02 Eh
 * total energy  :   -69.1111825 Eh     change       -0.1846898E-02 Eh
 * total energy  :   -69.1114519 Eh     change       -0.2693936E-03 Eh
 * total energy  :   -69.1116699 Eh     change       -0.2179849E-03 Eh
 * total energy  :   -69.1117938 Eh     change       -0.1239394E-03 Eh
 * total energy  :   -69.1119068 Eh     change       -0.1129633E-03 Eh
 * total energy  :   -69.1119765 Eh     change       -0.6973404E-04 Eh
 * total energy  :   -69.1120320 Eh     change       -0.5552108E-04 Eh
 * total energy  :   -69.1120900 Eh     change       -0.5800457E-04 Eh
 * total energy  :   -69.1185439 Eh     change       -0.5649615E-04 Eh
 * total energy  :   -69.1185897 Eh     change       -0.4579313E-04 Eh
 * total energy  :   -69.1186472 Eh     change       -0.5755890E-04 Eh
 * total energy  :   -69.1186750 Eh     change       -0.2775931E-04 Eh
 * total energy  :   -69.1186916 Eh     change       -0.1663188E-04 Eh
 * total energy  :   -69.1187007 Eh     change       -0.9098001E-05 Eh
 * total energy  :   -69.1187063 Eh     change       -0.5547014E-05 Eh
 * total energy  :   -69.1187119 Eh     change       -0.5659161E-05 Eh
 * total energy  :   -69.1187166 Eh     change       -0.4645750E-05 Eh
   *** GEOMETRY OPTIMIZATION CONVERGED AFTER 63 ITERATIONS ***

 final structure:
================
58
 xtb: 6.7.1 (edcfbbe)
C            1.69256895290451       -0.26495806773455       -0.15164106181675
C            1.66642335081142        1.24898157145745        0.02096358336179
C            1.75789748804088        2.00970597102324       -1.30292662324800
C            0.61290529098361        1.74215309706921       -2.28236945484819
C           -0.78674790858598        2.03867864362246       -1.73967950560640
C           -0.99826470602430        3.47079472452253       -1.24338560417209
C           -0.78494676955328        4.55825368430879       -2.29622627415282
C           -1.81333232593896        4.52322234109130       -3.43848963190408
C           -3.19729430419343        4.76293588911010       -2.92857756391534
C           -3.58679418207893        6.03133585647369       -2.50800943716551
C           -4.85005287930853        6.26180736172756       -2.00210651602732
C           -5.77055591909788        5.22273448088656       -1.90219857800974
C           -5.39801952500618        3.95473811691106       -2.31995018562891
C           -4.12563053926254        3.73642437522289       -2.82313945025668
N           -7.12212584820482        5.51267899528909       -1.35596097322778
C           -7.79019766790018        6.50453110733389       -2.27393322627320
C           -9.17112130649011        6.91673298165794       -1.83814372076089
C           -9.34368260460871        7.99584150804110       -0.97605405889408
C          -10.61281202588145        8.38244665824992       -0.58269960811720
C          -11.72369273842948        7.70137304999117       -1.05259687888435
C          -11.56266030894512        6.64072875483687       -1.92838235114579
C          -10.29391897733913        6.25064078847484       -2.32040934917287
C           -6.97804370170265        6.05950458896128        0.00830843455554
C           -7.96863387984884        4.31021119568343       -1.26377968717697
H            0.80518618956430       -0.61814871941043       -0.67093747956969
H            1.73130685261779       -0.75329773098753        0.81931997968324
H            2.56836187349044       -0.56740450383544       -0.72093070740997
H            0.76037305619631        1.53881292726243        0.55705600686266
H            2.51640453573854        1.54698394530810        0.63937718721986
H            1.81193037363989        3.07954992142823       -1.08912772790977
H            2.69219211191461        1.73322651593279       -1.79729611609617
H            0.78780016897744        2.33445238799812       -3.18340386995759
H            0.64139829634376        0.69380346154700       -2.58441556212223
H           -1.51181383296067        1.81086469060277       -2.52455261971053
H           -0.99705637011618        1.36192155828766       -0.90976844765225
H           -2.01474276629957        3.55425405221517       -0.84599200264389
H           -0.31287462760175        3.66098394061208       -0.41649577297628
H           -0.83750523484622        5.53227332122665       -1.80453558038445
H            0.21122808396736        4.46124721330081       -2.72607000196877
H           -1.55431213073295        5.30346793566806       -4.15713467556297
H           -1.76226045820525        3.56159695894974       -3.94741511779126
H           -2.89284636219019        6.85434125234141       -2.57970940275881
H           -5.09621882899722        7.26544366938348       -1.69195679746309
H           -6.06549784067453        3.11209613865612       -2.26809928426387
H           -3.85970084566244        2.74009209158933       -3.13998575997008
H           -7.15124588853465        7.38576029409133       -2.33641955037816
H           -7.82870976962025        6.03890473545797       -3.26182730275114
H           -8.48656178841725        8.55158458651803       -0.62418453296090
H          -10.73363048159954        9.22146538418475        0.08419711134739
H          -12.71235832042954        8.00537762432149       -0.74731860480000
H          -12.42482049610034        6.11887109680207       -2.31212326047370
H          -10.18017039486210        5.43549963136903       -3.02020052280502
H           -6.41292846216233        6.98728667804559       -0.00337437130277
H           -7.96047853817887        6.25087016291033        0.43625341132835
H           -6.44783364172681        5.33940284845606        0.62960350705273
H           -8.12344010701079        3.87746727607188       -2.24982938632076
H           -7.50757333942124        3.57500765755006       -0.60732050285399
H           -8.93760798024235        4.58899332198574       -0.85241452030147

          :  Hamiltonian                  GFN2-xTB          :
         :: total energy             -69.118716563530 Eh    ::
         :: gradient norm              0.000643567907 Eh/a0 ::
         :: HOMO-LUMO gap              3.046057678153 eV    ::
         :: SCC energy               -70.276466468874 Eh    ::
         :: -> dispersion             -0.056351984415 Eh    ::
         :: repulsion energy           1.157749905344 Eh    ::

    * Orbital Energies and Occupations

         #    Occupation            Energy/Eh            Energy/eV
      -------------------------------------------------------------
         1        2.0000           -0.8467775             -23.0420
       ...           ...                  ...                  ...
        53        2.0000           -0.5385867             -14.6557
        54        2.0000           -0.5319021             -14.4738
        55        2.0000           -0.5275620             -14.3557
        56        2.0000           -0.5245941             -14.2749
        57        2.0000           -0.5239007             -14.2561
        58        2.0000           -0.5220337             -14.2053
        59        2.0000           -0.5146532             -14.0044
        60        2.0000           -0.5063249             -13.7778
        61        2.0000           -0.5017644             -13.6537
        62        2.0000           -0.4988198             -13.5736
        63        2.0000           -0.4811451             -13.0926
        64        2.0000           -0.4780899             -13.0095
        65        2.0000           -0.4755404             -12.9401 (HOMO)
        66                         -0.3635998              -9.8941 (LUMO)
        67                         -0.3567520              -9.7077
        68                         -0.3506349              -9.5413
        69                         -0.3422311              -9.3126
        70                         -0.2338812              -6.3642
        71                         -0.2273133              -6.1855
        72                         -0.1977076              -5.3799
        73                         -0.1409863              -3.8364
        74                         -0.1239661              -3.3733
        75                         -0.1145091              -3.1160
        76                         -0.0521699              -1.4196
       ...                                ...                  ...
       130                          0.5429403              14.7742
      -------------------------------------------------------------
                  HL-Gap            0.1119406 Eh            3.0461 eV

     #   Z          covCN         q      C6AA      α(0)
     1   6 C        3.751    -0.103    22.529     6.769
     2   6 C        3.799    -0.053    21.519     6.605
     3   6 C        3.800    -0.059    21.638     6.623
     4   6 C        3.800    -0.059    21.634     6.622
     5   6 C        3.800    -0.057    21.599     6.617
     6   6 C        3.800    -0.058    21.622     6.621
     7   6 C        3.802    -0.057    21.591     6.615
     8   6 C        3.808    -0.069    21.819     6.649
     9   6 C        2.967     0.037    27.164     8.549
    10   6 C        2.927    -0.029    28.715     8.788
    11   6 C        2.920    -0.042    29.042     8.837
    12   6 C        2.931     0.021    27.543     8.607
    13   6 C        2.918    -0.044    29.087     8.844
    14   6 C        2.928    -0.029    28.722     8.789
    15   7 N        3.623     0.121    19.166     6.502
    16   6 C        3.766    -0.034    21.220     6.566
    17   6 C        2.967    -0.007    28.201     8.711
    18   6 C        2.923    -0.039    28.958     8.825
    19   6 C        2.918    -0.023    28.573     8.766
    20   6 C        2.920    -0.019    28.475     8.751
    21   6 C        2.918    -0.022    28.565     8.764
    22   6 C        2.923    -0.038    28.947     8.823
    23   6 C        3.723    -0.083    22.193     6.727
    24   6 C        3.721    -0.085    22.234     6.734
    25   1 H        0.925     0.033     2.548     2.496
    26   1 H        0.925     0.034     2.527     2.486
    27   1 H        0.925     0.038     2.482     2.464
    28   1 H        0.924     0.027     2.631     2.536
    29   1 H        0.924     0.031     2.574     2.509
    30   1 H        0.924     0.028     2.622     2.532
    31   1 H        0.924     0.035     2.517     2.481
    32   1 H        0.924     0.028     2.610     2.526
    33   1 H        0.924     0.038     2.476     2.461
    34   1 H        0.924     0.022     2.704     2.571
    35   1 H        0.924     0.037     2.493     2.469
    36   1 H        0.924     0.016     2.795     2.615
    37   1 H        0.924     0.044     2.393     2.419
    38   1 H        0.924     0.033     2.540     2.492
    39   1 H        0.925     0.055     2.261     2.351
    40   1 H        0.924     0.056     2.242     2.341
    41   1 H        0.925     0.058     2.222     2.331
    42   1 H        0.926     0.066     2.132     2.283
    43   1 H        0.926     0.046     2.368     2.406
    44   1 H        0.926     0.057     2.236     2.338
    45   1 H        0.926     0.066     2.132     2.284
    46   1 H        0.924     0.084     1.942     2.179
    47   1 H        0.924     0.079     1.988     2.205
    48   1 H        0.926     0.040     2.454     2.450
    49   1 H        0.926     0.057     2.231     2.336
    50   1 H        0.926     0.061     2.191     2.315
    51   1 H        0.926     0.058     2.225     2.333
    52   1 H        0.926     0.041     2.439     2.442
    53   1 H        0.925     0.094     1.841     2.122
    54   1 H        0.925     0.095     1.835     2.118
    55   1 H        0.925     0.091     1.871     2.139
    56   1 H        0.925     0.093     1.845     2.124
    57   1 H        0.925     0.093     1.848     2.126
    58   1 H        0.925     0.096     1.826     2.113

Wiberg/Mayer (AO) data.
largest (>0.10) Wiberg bond orders for each atom

     #   Z sym  total        # sym  WBO       # sym  WBO       # sym  WBO
 ---------------------------------------------------------------------------
     1   6 C    3.997 --     2 C    1.020    27 H    0.987    26 H    0.987
                            25 H    0.986
     2   6 C    3.998 --     1 C    1.020     3 C    1.008    29 H    0.978
                            28 H    0.976
     3   6 C    3.997 --     2 C    1.008     4 C    1.008    31 H    0.977
                            30 H    0.976
     4   6 C    3.997 --     3 C    1.008     5 C    1.008    32 H    0.975
                            33 H    0.975
     5   6 C    3.997 --     4 C    1.008     6 C    1.007    35 H    0.974
                            34 H    0.974
     6   6 C    3.997 --     7 C    1.009     5 C    1.007    36 H    0.976
                            37 H    0.973
     7   6 C    3.993 --     6 C    1.009     8 C    0.978    38 H    0.977
                            39 H    0.971
     8   6 C    3.992 --     9 C    1.025     7 C    0.978    41 H    0.970
                            40 H    0.961
     9   6 C    3.981 --    14 C    1.409    10 C    1.387     8 C    1.025
                            12 C    0.102
    10   6 C    3.988 --    11 C    1.463     9 C    1.387    42 H    0.965
                            13 C    0.103
    11   6 C    3.989 --    10 C    1.463    12 C    1.394    43 H    0.960
                            14 C    0.104
    12   6 C    3.916 --    13 C    1.421    11 C    1.394    15 N    0.906
                             9 C    0.102
    13   6 C    3.988 --    14 C    1.434    12 C    1.421    44 H    0.962
                            10 C    0.103
    14   6 C    3.988 --    13 C    1.434     9 C    1.409    45 H    0.965
                            11 C    0.104
    15   7 N    3.803 --    24 C    0.964    23 C    0.957    16 C    0.906
                            12 C    0.906
    16   6 C    3.931 --    17 C    1.005    47 H    0.967    46 H    0.962
                            15 N    0.906
    17   6 C    3.978 --    22 C    1.407    18 C    1.407    16 C    1.005
                            20 C    0.109
    18   6 C    3.991 --    19 C    1.445    17 C    1.407    48 H    0.968
                            21 C    0.109
    19   6 C    3.990 --    18 C    1.445    20 C    1.437    49 H    0.969
                            22 C    0.109
    20   6 C    3.988 --    21 C    1.438    19 C    1.437    50 H    0.969
                            17 C    0.109
    21   6 C    3.990 --    22 C    1.445    20 C    1.438    51 H    0.969
                            18 C    0.109
    22   6 C    3.990 --    21 C    1.445    17 C    1.407    52 H    0.968
                            19 C    0.109
    23   6 C    3.932 --    55 H    0.977    53 H    0.973    54 H    0.971
                            15 N    0.957
    24   6 C    3.933 --    57 H    0.975    56 H    0.974    58 H    0.969
                            15 N    0.964
    25   1 H    0.999 --     1 C    0.986
    26   1 H    0.999 --     1 C    0.987
    27   1 H    0.999 --     1 C    0.987
    28   1 H    0.999 --     2 C    0.976
    29   1 H    0.999 --     2 C    0.978
    30   1 H    0.999 --     3 C    0.976
    31   1 H    0.999 --     3 C    0.977
    32   1 H    0.999 --     4 C    0.975
    33   1 H    0.998 --     4 C    0.975
    34   1 H    1.000 --     5 C    0.974
    35   1 H    0.999 --     5 C    0.974
    36   1 H    1.000 --     6 C    0.976
    37   1 H    0.998 --     6 C    0.973
    38   1 H    0.999 --     7 C    0.977
    39   1 H    0.996 --     7 C    0.971
    40   1 H    0.996 --     8 C    0.961
    41   1 H    0.996 --     8 C    0.970
    42   1 H    0.995 --    10 C    0.965
    43   1 H    0.998 --    11 C    0.960
    44   1 H    0.996 --    13 C    0.962
    45   1 H    0.995 --    14 C    0.965
    46   1 H    0.993 --    16 C    0.962
    47   1 H    0.993 --    16 C    0.967
    48   1 H    0.998 --    18 C    0.968
    49   1 H    0.996 --    19 C    0.969
    50   1 H    0.996 --    20 C    0.969
    51   1 H    0.996 --    21 C    0.969
    52   1 H    0.998 --    22 C    0.968
    53   1 H    0.991 --    23 C    0.973
    54   1 H    0.990 --    23 C    0.971
    55   1 H    0.992 --    23 C    0.977
    56   1 H    0.991 --    24 C    0.974
    57   1 H    0.991 --    24 C    0.975
    58   1 H    0.990 --    24 C    0.969
 ---------------------------------------------------------------------------

molecular dipole:
                 x           y           z       tot (Debye)
 q only:      -12.692      10.314      -2.797
   full:      -12.777      10.379      -2.811      42.446

           -------------------------------------------------
          | TOTAL ENERGY              -69.118716563530 Eh   |
          | GRADIENT NORM               0.000643567907 Eh/α |
          | HOMO-LUMO GAP               3.046057678153 eV   |
           -------------------------------------------------

 * finished run on 2024/12/20 at 07:15:16.617
