   * xtb version 6.7.1 (edcfbbe) compiled by 'conda@3ef47c1a292c' on 2024-11-25

   ID    Z sym.   atoms
    1    6 C      1, 6, 7
    2    7 N      2-5, 8
    3    1 H      9-16

          program call               : xtb C1210.xyz --opt --namespace C1210 --charge +1
          :  Hamiltonian                  GFN2-xTB          :
 * total energy  :   -24.6436364 Eh     change       -0.9580603E-10 Eh
 * total energy  :   -24.6499875 Eh     change       -0.6351083E-02 Eh
 * total energy  :   -24.6513836 Eh     change       -0.1396161E-02 Eh
 * total energy  :   -24.6515403 Eh     change       -0.1566637E-03 Eh
 * total energy  :   -24.6516531 Eh     change       -0.1128259E-03 Eh
 * total energy  :   -24.6516865 Eh     change       -0.3335376E-04 Eh
 * total energy  :   -24.6517174 Eh     change       -0.3096138E-04 Eh
 * total energy  :   -24.6517380 Eh     change       -0.2060434E-04 Eh
 * total energy  :   -24.6517545 Eh     change       -0.1649552E-04 Eh
 * total energy  :   -24.6517685 Eh     change       -0.1395053E-04 Eh
 * total energy  :   -24.6518124 Eh     change       -0.8870160E-05 Eh
 * total energy  :   -24.6518252 Eh     change       -0.1281178E-04 Eh
 * total energy  :   -24.6518375 Eh     change       -0.1230516E-04 Eh
 * total energy  :   -24.6518463 Eh     change       -0.8876809E-05 Eh
 * total energy  :   -24.6518568 Eh     change       -0.1050281E-04 Eh
 * total energy  :   -24.6518668 Eh     change       -0.9904189E-05 Eh
 * total energy  :   -24.6518754 Eh     change       -0.8614388E-05 Eh
 * total energy  :   -24.6518910 Eh     change       -0.1561804E-04 Eh
 * total energy  :   -24.6518924 Eh     change       -0.1421097E-05 Eh
   *** GEOMETRY OPTIMIZATION CONVERGED AFTER 23 ITERATIONS ***

 final structure:
================
16
 xtb: 6.7.1 (edcfbbe)
C            1.02919653972340        0.07622316935450       -0.09005690238553
N            0.68086389851464        1.13261037399542       -0.99318982715371
N            0.06780126019206        0.89184098494184       -2.14139087813211
N           -0.12094760138227        1.97029900687194       -2.74819846823615
N            0.35720886904788        2.96859450542739       -2.00430810617287
C            0.87113970911332        2.45832362892072       -0.86910478293120
C            1.49144221716723        3.20791817666009        0.22808979875841
N            0.20688712834076        4.26420531237542       -2.34343592580422
H            0.71670187237931       -0.86066616106447       -0.54787529914066
H            0.51400101931925        0.20261501862221        0.86270901172008
H            2.10574946495260        0.05805894054130        0.08033886374690
H            2.52926052287805        3.45174778308491       -0.00616614541942
H            0.95463123821774        4.14161154577578        0.39043895919624
H            1.48240226538818        2.62440666267069        1.14482443340379
H            1.04115004615122        4.83406859818056       -2.25648851221835
H           -0.25303845000330        4.35670245364164       -3.24389621923124

          :  Hamiltonian                  GFN2-xTB          :
         :: total energy             -24.651892405385 Eh    ::
         :: gradient norm              0.000444575774 Eh/a0 ::
         :: HOMO-LUMO gap              4.077172073739 eV    ::
         :: SCC energy               -24.936617159211 Eh    ::
         :: -> dispersion             -0.010123748241 Eh    ::
         :: repulsion energy           0.284724753826 Eh    ::

    * Orbital Energies and Occupations

         #    Occupation            Energy/Eh            Energy/eV
      -------------------------------------------------------------
         1        2.0000           -0.9610736             -26.1521
       ...           ...                  ...                  ...
        10        2.0000           -0.7618630             -20.7313
        11        2.0000           -0.7398074             -20.1312
        12        2.0000           -0.7235566             -19.6890
        13        2.0000           -0.7150675             -19.4580
        14        2.0000           -0.6979042             -18.9909
        15        2.0000           -0.6942983             -18.8928
        16        2.0000           -0.6684413             -18.1892
        17        2.0000           -0.6670873             -18.1524
        18        2.0000           -0.6589693             -17.9315
        19        2.0000           -0.6302650             -17.1504
        20        2.0000           -0.6275451             -17.0764
        21        2.0000           -0.6068470             -16.5131
        22        2.0000           -0.5911000             -16.0847 (HOMO)
        23                         -0.4412667             -12.0075 (LUMO)
        24                         -0.4371703             -11.8960
        25                         -0.2451122              -6.6698
        26                         -0.1767394              -4.8093
        27                         -0.1435462              -3.9061
        28                         -0.0945850              -2.5738
        29                         -0.0728438              -1.9822
        30                         -0.0597375              -1.6255
        31                         -0.0271809              -0.7396
        32                          0.0016660               0.0453
        33                          0.0147944               0.4026
       ...                                ...                  ...
        40                          0.3157030               8.5907
      -------------------------------------------------------------
                  HL-Gap            0.1498333 Eh            4.0772 eV

     #   Z          covCN         q      C6AA      α(0)
     1   6 C        3.691    -0.093    22.476     6.784
     2   7 N        3.015     0.121    19.170     6.503
     3   7 N        2.186    -0.038    22.412     7.025
     4   7 N        2.175    -0.072    23.107     7.133
     5   7 N        3.090     0.201    17.926     6.288
     6   6 C        2.998     0.087    26.051     8.373
     7   6 C        3.754    -0.143    23.307     6.884
     8   7 N        2.709    -0.223    25.864     7.553
     9   1 H        0.925     0.133     1.514     1.924
    10   1 H        0.924     0.113     1.675     2.024
    11   1 H        0.925     0.113     1.674     2.023
    12   1 H        0.924     0.117     1.641     2.003
    13   1 H        0.925     0.116     1.649     2.008
    14   1 H        0.925     0.112     1.680     2.027
    15   1 H        0.860     0.220     1.009     1.574
    16   1 H        0.860     0.239     0.929     1.510

Wiberg/Mayer (AO) data.
largest (>0.10) Wiberg bond orders for each atom

     #   Z sym  total        # sym  WBO       # sym  WBO       # sym  WBO
 ---------------------------------------------------------------------------
     1   6 C    3.919 --     2 N    0.986     9 H    0.966    11 H    0.958
                            10 H    0.956
     2   7 N    3.733 --     6 C    1.304     3 N    1.239     1 C    0.986
     3   7 N    3.060 --     4 N    1.561     2 N    1.239
     4   7 N    3.039 --     3 N    1.561     5 N    1.192
     5   7 N    3.757 --     6 C    1.287     4 N    1.192     8 N    1.092
     6   6 C    3.947 --     2 N    1.304     5 N    1.287     7 C    1.055
     7   6 C    3.968 --     6 C    1.055    14 H    0.963    13 H    0.954
                            12 H    0.934
     8   7 N    3.170 --     5 N    1.092    16 H    0.924    15 H    0.924
     9   1 H    0.982 --     1 C    0.966
    10   1 H    0.987 --     1 C    0.956
    11   1 H    0.987 --     1 C    0.958
    12   1 H    0.986 --     7 C    0.934
    13   1 H    0.987 --     7 C    0.954
    14   1 H    0.987 --     7 C    0.963
    15   1 H    0.951 --     8 N    0.924
    16   1 H    0.943 --     8 N    0.924
 ---------------------------------------------------------------------------

molecular dipole:
                 x           y           z       tot (Debye)
 q only:        1.911       4.815      -1.669
   full:        2.267       5.099      -1.552      14.722

           -------------------------------------------------
          | TOTAL ENERGY              -24.651892405385 Eh   |
          | GRADIENT NORM               0.000444575774 Eh/α |
          | HOMO-LUMO GAP               4.077172073739 eV   |
           -------------------------------------------------

 * finished run on 2024/12/20 at 07:15:03.310
