   * xtb version 6.7.1 (edcfbbe) compiled by 'conda@3ef47c1a292c' on 2024-11-25

   ID    Z sym.   atoms
    1    6 C      1, 3-5, 7, 8
    2    7 N      2
    3    8 O      6
    4    1 H      9-22

          program call               : xtb C1216.xyz --opt --namespace C1216 --charge +1
          :  Hamiltonian                  GFN2-xTB          :
 * total energy  :   -26.5606893 Eh     change       -0.2969358E-10 Eh
 * total energy  :   -26.5670407 Eh     change       -0.6351457E-02 Eh
 * total energy  :   -26.5683648 Eh     change       -0.1324059E-02 Eh
 * total energy  :   -26.5684036 Eh     change       -0.3878969E-04 Eh
 * total energy  :   -26.5684115 Eh     change       -0.7889674E-05 Eh
 * total energy  :   -26.5684125 Eh     change       -0.1010976E-05 Eh
   *** GEOMETRY OPTIMIZATION CONVERGED AFTER 6 ITERATIONS ***

 final structure:
================
22
 xtb: 6.7.1 (edcfbbe)
C            1.23314428427362        0.12509382971728        0.08008501587801
N            0.50879636141947        1.38367204735215        0.34378934116619
C           -0.93767872454851        1.09913479684104        0.29131390874437
C            0.90469422279312        1.90209955029854        1.68488097786309
C            0.39753081236799        3.32921666698148        1.92982339702260
O            0.84849111489660        4.19632055172867        0.92440946971873
C            0.38746222101101        3.79872653351305       -0.33870728924523
C            0.89418696688164        2.39252196441514       -0.68466818518390
H            0.96682801033571       -0.26035688075302       -0.90277770871129
H            0.97439174542214       -0.61934723682090        0.83132990708106
H            2.30915810671613        0.28814772097657        0.10914672687251
H           -1.20298081733265        0.71205680984974       -0.69111372951032
H           -1.19528715253651        0.35339727473119        1.04157541233789
H           -1.52265252854513        1.99537634828477        0.47943149541617
H            1.99611375032089        1.91819157630584        1.72715015793394
H            0.52882494591882        1.22893725210945        2.45611420434102
H            0.81638072871384        3.69989152578760        2.86701693116121
H           -0.69861033883888        3.35658130959462        2.00693106366063
H           -0.70924633978663        3.85250814975788       -0.38928261409080
H            0.79896391553962        4.51168654621319       -1.05531146377280
H            0.51059422168457        2.08011959559989       -1.65651552687918
H            1.98523449329311        2.42599406751581       -0.72635149180390

          :  Hamiltonian                  GFN2-xTB          :
         :: total energy             -26.568412491763 Eh    ::
         :: gradient norm              0.000393167478 Eh/a0 ::
         :: HOMO-LUMO gap              8.640545832634 eV    ::
         :: SCC energy               -26.879349139179 Eh    ::
         :: -> dispersion             -0.014612461310 Eh    ::
         :: repulsion energy           0.310936647416 Eh    ::

    * Orbital Energies and Occupations

         #    Occupation            Energy/Eh            Energy/eV
      -------------------------------------------------------------
         1        2.0000           -0.8836576             -24.0455
       ...           ...                  ...                  ...
        12        2.0000           -0.7128622             -19.3980
        13        2.0000           -0.7120784             -19.3766
        14        2.0000           -0.6929311             -18.8556
        15        2.0000           -0.6713363             -18.2680
        16        2.0000           -0.6697031             -18.2235
        17        2.0000           -0.6661785             -18.1276
        18        2.0000           -0.6607411             -17.9797
        19        2.0000           -0.6598083             -17.9543
        20        2.0000           -0.6562015             -17.8562
        21        2.0000           -0.6385225             -17.3751
        22        2.0000           -0.6193986             -16.8547
        23        2.0000           -0.6042389             -16.4422
        24        2.0000           -0.5640615             -15.3489 (HOMO)
        25                         -0.2465273              -6.7083 (LUMO)
        26                         -0.1842283              -5.0131
        27                         -0.1652582              -4.4969
        28                         -0.1602762              -4.3613
        29                         -0.1149266              -3.1273
        30                         -0.0922815              -2.5111
        31                         -0.0794021              -2.1606
        32                         -0.0636615              -1.7323
        33                         -0.0208746              -0.5680
        34                         -0.0076490              -0.2081
        35                         -0.0072847              -0.1982
       ...                                ...                  ...
        46                          0.1339515               3.6450
      -------------------------------------------------------------
                  HL-Gap            0.3175342 Eh            8.6405 eV

     #   Z          covCN         q      C6AA      α(0)
     1   6 C        3.726    -0.099    22.508     6.774
     2   7 N        3.623     0.137    18.909     6.458
     3   6 C        3.717    -0.097    22.486     6.774
     4   6 C        3.763    -0.047    21.460     6.603
     5   6 C        3.719     0.063    19.637     6.330
     6   8 O        1.702    -0.280    18.645     5.830
     7   6 C        3.719     0.063    19.637     6.330
     8   6 C        3.763    -0.047    21.460     6.603
     9   1 H        0.925     0.103     1.754     2.071
    10   1 H        0.925     0.103     1.754     2.071
    11   1 H        0.925     0.101     1.779     2.086
    12   1 H        0.925     0.101     1.773     2.082
    13   1 H        0.925     0.101     1.773     2.082
    14   1 H        0.925     0.103     1.756     2.072
    15   1 H        0.924     0.101     1.777     2.084
    16   1 H        0.924     0.091     1.866     2.136
    17   1 H        0.924     0.102     1.768     2.079
    18   1 H        0.923     0.053     2.282     2.362
    19   1 H        0.923     0.053     2.282     2.362
    20   1 H        0.924     0.102     1.768     2.079
    21   1 H        0.924     0.091     1.866     2.136
    22   1 H        0.924     0.101     1.777     2.084

Wiberg/Mayer (AO) data.
largest (>0.10) Wiberg bond orders for each atom

     #   Z sym  total        # sym  WBO       # sym  WBO       # sym  WBO
 ---------------------------------------------------------------------------
     1   6 C    3.924 --    11 H    0.974     9 H    0.974    10 H    0.974
                             2 N    0.956
     2   7 N    3.813 --     3 C    0.957     1 C    0.956     4 C    0.933
                             8 C    0.933
     3   6 C    3.924 --    12 H    0.974    13 H    0.974    14 H    0.968
                             2 N    0.957
     4   6 C    3.933 --     5 C    0.994    16 H    0.968    15 H    0.965
                             2 N    0.933
     5   6 C    3.951 --     6 O    0.999     4 C    0.994    18 H    0.960
                            17 H    0.958
     6   8 O    2.107 --     5 C    0.999     7 C    0.999
     7   6 C    3.951 --     6 O    0.999     8 C    0.994    19 H    0.960
                            20 H    0.958
     8   6 C    3.933 --     7 C    0.994    21 H    0.968    22 H    0.965
                             2 N    0.933
     9   1 H    0.989 --     1 C    0.974
    10   1 H    0.989 --     1 C    0.974
    11   1 H    0.990 --     1 C    0.974
    12   1 H    0.990 --     3 C    0.974
    13   1 H    0.990 --     3 C    0.974
    14   1 H    0.989 --     3 C    0.968
    15   1 H    0.990 --     4 C    0.965
    16   1 H    0.992 --     4 C    0.968
    17   1 H    0.989 --     5 C    0.958
    18   1 H    0.997 --     5 C    0.960
    19   1 H    0.997 --     7 C    0.960
    20   1 H    0.989 --     7 C    0.958
    21   1 H    0.992 --     8 C    0.968
    22   1 H    0.990 --     8 C    0.965
 ---------------------------------------------------------------------------

molecular dipole:
                 x           y           z       tot (Debye)
 q only:        0.728       2.558       0.639
   full:        0.644       2.349       0.596       6.374

           -------------------------------------------------
          | TOTAL ENERGY              -26.568412491763 Eh   |
          | GRADIENT NORM               0.000393167478 Eh/α |
          | HOMO-LUMO GAP               8.640545832634 eV   |
           -------------------------------------------------

 * finished run on 2024/12/20 at 07:15:11.027
