   * xtb version 6.7.1 (edcfbbe) compiled by 'conda@3ef47c1a292c' on 2024-11-25

   ID    Z sym.   atoms
    1    6 C      1-10, 12-16
    2    7 N      11
    3    1 H      17-50

          program call               : xtb C1215.xyz --opt --namespace C1215 --charge +1
          :  Hamiltonian                  GFN2-xTB          :
 * total energy  :   -51.9900012 Eh     change       -0.2327525E-09 Eh
 * total energy  :   -51.9962642 Eh     change       -0.6263017E-02 Eh
 * total energy  :   -51.9977107 Eh     change       -0.1446571E-02 Eh
 * total energy  :   -51.9978360 Eh     change       -0.1252130E-03 Eh
 * total energy  :   -51.9979854 Eh     change       -0.1494867E-03 Eh
 * total energy  :   -51.9980529 Eh     change       -0.6748763E-04 Eh
 * total energy  :   -51.9981217 Eh     change       -0.6880761E-04 Eh
 * total energy  :   -51.9981728 Eh     change       -0.5101523E-04 Eh
 * total energy  :   -51.9981988 Eh     change       -0.2608435E-04 Eh
 * total energy  :   -51.9982294 Eh     change       -0.3057730E-04 Eh
 * total energy  :   -51.9985089 Eh     change       -0.5349524E-05 Eh
 * total energy  :   -51.9985210 Eh     change       -0.1204995E-04 Eh
 * total energy  :   -51.9985346 Eh     change       -0.1365601E-04 Eh
 * total energy  :   -51.9985467 Eh     change       -0.1206914E-04 Eh
 * total energy  :   -51.9985586 Eh     change       -0.1187190E-04 Eh
 * total energy  :   -51.9985700 Eh     change       -0.1142411E-04 Eh
 * total energy  :   -51.9985788 Eh     change       -0.8752311E-05 Eh
 * total energy  :   -51.9985846 Eh     change       -0.5838773E-05 Eh
 * total energy  :   -51.9985892 Eh     change       -0.4559698E-05 Eh
   *** GEOMETRY OPTIMIZATION CONVERGED AFTER 30 ITERATIONS ***

 final structure:
================
50
 xtb: 6.7.1 (edcfbbe)
C            0.72141713173446        0.75189125876417        0.12869193208137
C            0.70785974416192        0.53483679505517       -1.37964848227003
C            1.15742389682471       -0.86797725031946       -1.79129977446074
C            0.28260010402144       -2.00658805688758       -1.26262264036653
C           -1.18357115220562       -1.95112713065835       -1.69638631610303
C           -1.41056835859690       -1.96479647789393       -3.20988827903053
C           -0.81405074804386       -3.17224747918727       -3.93865925730462
C           -1.30180267797320       -4.53421616562715       -3.43659041228894
C           -2.81782892635916       -4.77086872188384       -3.51277154263648
C           -3.47119838717454       -4.50644434039063       -4.88682486702127
N           -3.31304302295534       -5.44368067527902       -6.05391407285466
C           -4.16114027832033       -6.64203899080780       -5.91291792849474
C           -3.75933173165380       -4.71173717282001       -7.25843973572075
C           -1.91970473845255       -5.86933633631963       -6.26087421114748
C           -3.21512683858156       -6.10436954614531       -2.86192179694904
C           -3.04989421758485       -6.08726001347817       -1.34390164755922
H           -0.02721194075256        0.13826910694436        0.62354106448988
H            0.50887850288215        1.79280020508152        0.35983429714166
H            1.69754306321143        0.50379775369072        0.53928289956167
H           -0.29204672395839        0.73759393045649       -1.76831396970688
H            1.38642727824764        1.25400113592747       -1.84394862985874
H            1.20233398269614       -0.91602915825862       -2.88189598046534
H            2.17271966833721       -1.02756478659393       -1.42095231884051
H            0.72430050835991       -2.95394763040191       -1.58094650810802
H            0.31062264796826       -1.99675542589078       -0.17225436953533
H           -1.71046081050163       -2.79116294028860       -1.23733989506256
H           -1.63677520264282       -1.04178740456847       -1.29978986713647
H           -2.48687977286582       -1.90910798831579       -3.39633692475253
H           -0.96967071456063       -1.06469731296171       -3.64033290921985
H           -1.00457266655703       -3.05803022667723       -5.01055890016422
H            0.26921237064157       -3.14994104103122       -3.81630947175198
H           -0.74871025384380       -5.32065300880922       -3.94997834097490
H           -1.02722538912822       -4.60754717607812       -2.38570447739064
H           -3.27300613330882       -3.98693086611010       -2.89545158524754
H           -4.54797955112308       -4.41791959353356       -4.72482575737831
H           -3.10475134872792       -3.53425685166206       -5.21992628087870
H           -5.20252840557994       -6.35522179261022       -5.77971716059111
H           -4.08340591406700       -7.25630043954759       -6.80886250897421
H           -3.84708320133676       -7.23554725866469       -5.05973002489078
H           -3.10196876491151       -3.86679628026222       -7.45592448058956
H           -3.74371732607399       -5.37042188220954       -8.12523592238006
H           -4.77401391780654       -4.34140494264412       -7.12310511315367
H           -1.26176486287051       -5.00379484098016       -6.29445559429931
H           -1.60470699118756       -6.52851024851055       -5.45662558506059
H           -1.83442384697229       -6.41035952444075       -7.20247493209032
H           -4.26834526490197       -6.30438443740404       -3.07143818765835
H           -2.61254512179929       -6.92420997009800       -3.26086915071989
H           -3.60379325164673       -5.26019629655191       -0.90696508649198
H           -3.43450835249061       -7.01217496657763       -0.92292249851658
H           -2.00736209158315       -5.99917753652847       -1.05385679718499

          :  Hamiltonian                  GFN2-xTB          :
         :: total energy             -51.998589154322 Eh    ::
         :: gradient norm              0.000222336619 Eh/a0 ::
         :: HOMO-LUMO gap              6.861249434493 eV    ::
         :: SCC energy               -52.753918087454 Eh    ::
         :: -> dispersion             -0.040669492798 Eh    ::
         :: repulsion energy           0.755328933133 Eh    ::

    * Orbital Energies and Occupations

         #    Occupation            Energy/Eh            Energy/eV
      -------------------------------------------------------------
         1        2.0000           -0.8642778             -23.5182
       ...           ...                  ...                  ...
        37        2.0000           -0.5586771             -15.2024
        38        2.0000           -0.5552513             -15.1092
        39        2.0000           -0.5522918             -15.0286
        40        2.0000           -0.5479510             -14.9105
        41        2.0000           -0.5407483             -14.7145
        42        2.0000           -0.5371089             -14.6155
        43        2.0000           -0.5299692             -14.4212
        44        2.0000           -0.5192247             -14.1288
        45        2.0000           -0.5126837             -13.9508
        46        2.0000           -0.5091244             -13.8540
        47        2.0000           -0.4911010             -13.3635
        48        2.0000           -0.4873911             -13.2626
        49        2.0000           -0.4839815             -13.1698 (HOMO)
        50                         -0.2318352              -6.3086 (LUMO)
        51                         -0.1613613              -4.3909
        52                         -0.1514710              -4.1217
        53                         -0.1408937              -3.8339
        54                         -0.0965775              -2.6280
        55                         -0.0660780              -1.7981
        56                         -0.0516106              -1.4044
        57                         -0.0418524              -1.1389
        58                         -0.0156716              -0.4264
        59                         -0.0118657              -0.3229
        60                         -0.0063777              -0.1735
       ...                                ...                  ...
        98                          0.2398298               6.5261
      -------------------------------------------------------------
                  HL-Gap            0.2521463 Eh            6.8612 eV

     #   Z          covCN         q      C6AA      α(0)
     1   6 C        3.751    -0.104    22.548     6.772
     2   6 C        3.799    -0.053    21.530     6.607
     3   6 C        3.800    -0.059    21.632     6.622
     4   6 C        3.800    -0.060    21.647     6.624
     5   6 C        3.800    -0.060    21.657     6.626
     6   6 C        3.800    -0.061    21.668     6.628
     7   6 C        3.799    -0.062    21.692     6.631
     8   6 C        3.801    -0.078    21.983     6.675
     9   6 C        3.847    -0.031    21.095     6.533
    10   6 C        3.755    -0.049    21.508     6.613
    11   7 N        3.621     0.144    18.796     6.439
    12   6 C        3.724    -0.098    22.488     6.772
    13   6 C        3.735    -0.097    22.443     6.761
    14   6 C        3.722    -0.094    22.405     6.760
    15   6 C        3.800    -0.063    21.716     6.635
    16   6 C        3.752    -0.112    22.706     6.795
    17   1 H        0.925     0.034     2.534     2.489
    18   1 H        0.925     0.037     2.493     2.469
    19   1 H        0.925     0.038     2.481     2.463
    20   1 H        0.924     0.028     2.613     2.528
    21   1 H        0.924     0.032     2.561     2.502
    22   1 H        0.924     0.025     2.662     2.552
    23   1 H        0.924     0.035     2.516     2.480
    24   1 H        0.924     0.025     2.657     2.549
    25   1 H        0.924     0.041     2.438     2.442
    26   1 H        0.924     0.026     2.649     2.545
    27   1 H        0.924     0.043     2.413     2.429
    28   1 H        0.924     0.018     2.767     2.602
    29   1 H        0.924     0.045     2.386     2.416
    30   1 H        0.924     0.010     2.894     2.660
    31   1 H        0.924     0.053     2.288     2.365
    32   1 H        0.925     0.032     2.559     2.502
    33   1 H        0.925     0.069     2.093     2.262
    34   1 H        0.924     0.077     2.015     2.220
    35   1 H        0.924     0.077     2.012     2.218
    36   1 H        0.924     0.091     1.872     2.140
    37   1 H        0.925     0.095     1.834     2.118
    38   1 H        0.925     0.095     1.829     2.115
    39   1 H        0.925     0.107     1.724     2.053
    40   1 H        0.925     0.098     1.808     2.102
    41   1 H        0.925     0.098     1.803     2.100
    42   1 H        0.925     0.098     1.806     2.101
    43   1 H        0.925     0.103     1.760     2.075
    44   1 H        0.925     0.103     1.761     2.075
    45   1 H        0.925     0.093     1.847     2.125
    46   1 H        0.924     0.037     2.492     2.469
    47   1 H        0.924     0.030     2.593     2.518
    48   1 H        0.925     0.047     2.358     2.402
    49   1 H        0.925     0.053     2.281     2.362
    50   1 H        0.925     0.048     2.340     2.392

Wiberg/Mayer (AO) data.
largest (>0.10) Wiberg bond orders for each atom

     #   Z sym  total        # sym  WBO       # sym  WBO       # sym  WBO
 ---------------------------------------------------------------------------
     1   6 C    3.996 --     2 C    1.020    19 H    0.987    18 H    0.987
                            17 H    0.986
     2   6 C    3.998 --     1 C    1.020     3 C    1.008    21 H    0.978
                            20 H    0.976
     3   6 C    3.997 --     2 C    1.008     4 C    1.008    23 H    0.977
                            22 H    0.976
     4   6 C    3.997 --     5 C    1.008     3 C    1.008    24 H    0.975
                            25 H    0.974
     5   6 C    3.996 --     4 C    1.008     6 C    1.007    26 H    0.975
                            27 H    0.973
     6   6 C    3.996 --     5 C    1.007     7 C    1.007    28 H    0.975
                            29 H    0.973
     7   6 C    3.995 --     6 C    1.007     8 C    1.006    31 H    0.972
                            30 H    0.971
     8   6 C    3.991 --     7 C    1.006     9 C    0.996    32 H    0.971
                            33 H    0.963
     9   6 C    3.979 --     8 C    0.996    15 C    0.994    10 C    0.988
                            34 H    0.947
    10   6 C    3.919 --     9 C    0.988    35 H    0.969    36 H    0.961
                            11 N    0.913
    11   7 N    3.815 --    12 C    0.960    14 C    0.959    13 C    0.959
                            10 C    0.913
    12   6 C    3.927 --    37 H    0.976    38 H    0.975    39 H    0.967
                            11 N    0.960
    13   6 C    3.930 --    42 H    0.976    40 H    0.975    41 H    0.974
                            11 N    0.959
    14   6 C    3.927 --    45 H    0.975    43 H    0.971    44 H    0.969
                            11 N    0.959
    15   6 C    3.997 --    16 C    1.017     9 C    0.994    46 H    0.975
                            47 H    0.973
    16   6 C    3.992 --    15 C    1.017    48 H    0.986    49 H    0.984
                            50 H    0.983
    17   1 H    0.999 --     1 C    0.986
    18   1 H    0.999 --     1 C    0.987
    19   1 H    0.999 --     1 C    0.987
    20   1 H    0.999 --     2 C    0.976
    21   1 H    0.999 --     2 C    0.978
    22   1 H    0.999 --     3 C    0.976
    23   1 H    0.999 --     3 C    0.977
    24   1 H    0.999 --     4 C    0.975
    25   1 H    0.998 --     4 C    0.974
    26   1 H    0.999 --     5 C    0.975
    27   1 H    0.998 --     5 C    0.973
    28   1 H    1.000 --     6 C    0.975
    29   1 H    0.998 --     6 C    0.973
    30   1 H    1.000 --     7 C    0.971
    31   1 H    0.997 --     7 C    0.972
    32   1 H    0.999 --     8 C    0.971
    33   1 H    0.995 --     8 C    0.963
    34   1 H    0.994 --     9 C    0.947
    35   1 H    0.994 --    10 C    0.969
    36   1 H    0.992 --    10 C    0.961
    37   1 H    0.991 --    12 C    0.976
    38   1 H    0.991 --    12 C    0.975
    39   1 H    0.989 --    12 C    0.967
    40   1 H    0.990 --    13 C    0.975
    41   1 H    0.990 --    13 C    0.974
    42   1 H    0.990 --    13 C    0.976
    43   1 H    0.989 --    14 C    0.971
    44   1 H    0.989 --    14 C    0.969
    45   1 H    0.991 --    14 C    0.975
    46   1 H    0.998 --    15 C    0.975
    47   1 H    0.999 --    15 C    0.973
    48   1 H    0.998 --    16 C    0.986
    49   1 H    0.997 --    16 C    0.984
    50   1 H    0.998 --    16 C    0.983
 ---------------------------------------------------------------------------

molecular dipole:
                 x           y           z       tot (Debye)
 q only:       -5.872      -9.965     -10.568
   full:       -5.946      -9.973     -10.698      40.130

           -------------------------------------------------
          | TOTAL ENERGY              -51.998589154322 Eh   |
          | GRADIENT NORM               0.000222336619 Eh/α |
          | HOMO-LUMO GAP               6.861249434493 eV   |
           -------------------------------------------------

 * finished run on 2024/12/20 at 07:15:10.876
