   * xtb version 6.7.1 (edcfbbe) compiled by 'conda@3ef47c1a292c' on 2024-11-25

   ID    Z sym.   atoms
    1    6 C      1-6, 8-13, 15-17
    2    7 N      7
    3    8 O      14
    4    1 H      18-43

          program call               : xtb C1212.xyz --opt --namespace C1212 --charge +1
          :  Hamiltonian                  GFN2-xTB          :
 * total energy  :   -51.9442142 Eh     change       -0.5493064E-09 Eh
 * total energy  :   -51.9545260 Eh     change       -0.1031179E-01 Eh
 * total energy  :   -51.9576779 Eh     change       -0.3151975E-02 Eh
 * total energy  :   -51.9586265 Eh     change       -0.9485624E-03 Eh
 * total energy  :   -51.9599863 Eh     change       -0.1359797E-02 Eh
 * total energy  :   -51.9610586 Eh     change       -0.1072247E-02 Eh
 * total energy  :   -51.9620003 Eh     change       -0.9417387E-03 Eh
 * total energy  :   -51.9629411 Eh     change       -0.9407988E-03 Eh
 * total energy  :   -51.9637903 Eh     change       -0.8492113E-03 Eh
 * total energy  :   -51.9644990 Eh     change       -0.7087233E-03 Eh
 * total energy  :   -51.9701458 Eh     change       -0.2842031E-04 Eh
 * total energy  :   -51.9701574 Eh     change       -0.1161292E-04 Eh
 * total energy  :   -51.9701811 Eh     change       -0.2374043E-04 Eh
 * total energy  :   -51.9701964 Eh     change       -0.1531814E-04 Eh
 * total energy  :   -51.9702071 Eh     change       -0.1065494E-04 Eh
 * total energy  :   -51.9702143 Eh     change       -0.7244790E-05 Eh
 * total energy  :   -51.9702215 Eh     change       -0.7121859E-05 Eh
 * total energy  :   -51.9702278 Eh     change       -0.6338168E-05 Eh
 * total energy  :   -51.9702325 Eh     change       -0.4691100E-05 Eh
   *** GEOMETRY OPTIMIZATION CONVERGED AFTER 47 ITERATIONS ***

 final structure:
================
43
 xtb: 6.7.1 (edcfbbe)
C           -0.40458022224992       -0.56025062637802        0.61504563052522
C           -0.11965489915314        0.76709326644802       -0.07753374027094
C            0.87311283392131        0.64621972260385       -1.23549788057611
C            0.42555549881347       -0.26572428683417       -2.38094286923930
C           -0.83102628093049        0.21129127052330       -3.11901855085699
C           -0.62805633355038        1.50107431802675       -3.92092934649289
N           -0.38599417891801        1.34865658138870       -5.39558245498172
C            0.02359927921510        2.67913254218966       -5.92487347211181
C           -0.74376468212409        3.34117901731006       -6.87244424386290
C           -0.36046602134436        4.57189941190808       -7.37785060893322
C            0.80820214193161        5.16063081109631       -6.93799610003005
C            1.58528864232694        4.52012430135492       -5.99279347676354
C            1.21477341139226        3.28394198078921       -5.47140081499677
O            1.95373486165097        2.63213784641320       -4.53165303661337
C            3.15564634381606        3.21285767501828       -4.05342951066434
C           -1.62346060886149        0.84961706881111       -6.02497022576277
C            0.68476652025668        0.37668287721109       -5.70358454592972
H           -0.94587586782701       -1.24294633105966       -0.03527407195622
H           -1.00987074907028       -0.39482373390003        1.50217399533564
H            0.52383147142665       -1.03635051469939        0.92125281006058
H           -1.05641601349676        1.20837384359224       -0.42449410878387
H            0.30631125069763        1.45770950304215        0.65268805731810
H            1.08845361445963        1.64812239719885       -1.61586365286901
H            1.80921754868131        0.24512853173150       -0.84221115055424
H            1.25619395361356       -0.36942644222812       -3.08056164469333
H            0.22228913318364       -1.25645589242961       -1.97500658616947
H           -1.19860498432463       -0.59988169810939       -3.74742035594633
H           -1.60918659260902        0.39872654151129       -2.37938253863349
H           -1.50143955277194        2.14992970334539       -3.82988429497890
H            0.22807222315793        2.02564111818972       -3.50148994950600
H           -1.66016516505937        2.92094411339021       -7.24641572252924
H           -0.97932965614733        5.05868424123719       -8.11308846774498
H            1.12000398317959        6.11713408805280       -7.32470731458324
H            2.49385101919153        4.98969417408393       -5.65616690073991
H            2.96904364787993        4.17337432293985       -3.56884231252287
H            3.53874830394219        2.50661350747933       -3.31876385455593
H            3.88602042130014        3.33282939421079       -4.85608781194170
H           -2.45586895773406        1.52097884899156       -5.82521898002207
H           -1.48533989673167        0.73799833817557       -7.09854817657204
H           -1.86887907768324       -0.12586200719953       -5.61143537188090
H            1.60194952376167        0.66062349294425       -5.19610248625840
H            0.39237463582274       -0.62091926734920       -5.38662904637347
H            0.86095947693408        0.37071594898807       -6.77835481531218

          :  Hamiltonian                  GFN2-xTB          :
         :: total energy             -51.970232495577 Eh    ::
         :: gradient norm              0.000483658712 Eh/a0 ::
         :: HOMO-LUMO gap              3.864169512416 eV    ::
         :: SCC energy               -52.739778125517 Eh    ::
         :: -> dispersion             -0.038682374963 Eh    ::
         :: repulsion energy           0.769545629940 Eh    ::

    * Orbital Energies and Occupations

         #    Occupation            Energy/Eh            Energy/eV
      -------------------------------------------------------------
         1        2.0000           -0.8609613             -23.4279
       ...           ...                  ...                  ...
        36        2.0000           -0.5848728             -15.9152
        37        2.0000           -0.5830024             -15.8643
        38        2.0000           -0.5790423             -15.7565
        39        2.0000           -0.5698426             -15.5062
        40        2.0000           -0.5626242             -15.3098
        41        2.0000           -0.5604331             -15.2502
        42        2.0000           -0.5536381             -15.0653
        43        2.0000           -0.5486892             -14.9306
        44        2.0000           -0.5464752             -14.8703
        45        2.0000           -0.5247332             -14.2787
        46        2.0000           -0.5220600             -14.2060
        47        2.0000           -0.5180942             -14.0981
        48        2.0000           -0.5131397             -13.9632 (HOMO)
        49                         -0.3711341             -10.0991 (LUMO)
        50                         -0.3569464              -9.7130
        51                         -0.2360629              -6.4236
        52                         -0.2206351              -6.0038
        53                         -0.1496978              -4.0735
        54                         -0.1364456              -3.7129
        55                         -0.1205131              -3.2793
        56                         -0.1131837              -3.0799
        57                         -0.0556153              -1.5134
        58                         -0.0457091              -1.2438
        59                         -0.0207743              -0.5653
       ...                                ...                  ...
        94                          0.5189245              14.1207
      -------------------------------------------------------------
                  HL-Gap            0.1420056 Eh            3.8642 eV

     #   Z          covCN         q      C6AA      α(0)
     1   6 C        3.751    -0.108    22.631     6.784
     2   6 C        3.799    -0.057    21.597     6.617
     3   6 C        3.800    -0.064    21.722     6.636
     4   6 C        3.800    -0.070    21.840     6.654
     5   6 C        3.799    -0.072    21.871     6.659
     6   6 C        3.760    -0.041    21.348     6.587
     7   7 N        3.622     0.129    19.037     6.480
     8   6 C        2.929     0.003    27.954     8.671
     9   6 C        2.921    -0.043    29.074     8.842
    10   6 C        2.919    -0.031    28.780     8.797
    11   6 C        2.918    -0.018    28.465     8.749
    12   6 C        2.920    -0.057    29.419     8.895
    13   6 C        2.858     0.139    24.967     8.190
    14   8 O        1.704    -0.274    18.541     5.814
    15   6 C        3.638     0.023    20.549     6.521
    16   6 C        3.722    -0.088    22.297     6.743
    17   6 C        3.723    -0.089    22.323     6.747
    18   1 H        0.925     0.034     2.526     2.486
    19   1 H        0.925     0.044     2.390     2.418
    20   1 H        0.925     0.042     2.417     2.431
    21   1 H        0.924     0.028     2.622     2.532
    22   1 H        0.924     0.041     2.440     2.443
    23   1 H        0.924     0.024     2.671     2.556
    24   1 H        0.924     0.046     2.369     2.407
    25   1 H        0.924     0.035     2.514     2.480
    26   1 H        0.925     0.058     2.217     2.329
    27   1 H        0.925     0.045     2.380     2.413
    28   1 H        0.925     0.073     2.050     2.239
    29   1 H        0.924     0.071     2.072     2.251
    30   1 H        0.925     0.107     1.718     2.050
    31   1 H        0.926     0.067     2.114     2.274
    32   1 H        0.926     0.073     2.056     2.242
    33   1 H        0.926     0.075     2.026     2.226
    34   1 H        0.926     0.073     2.053     2.241
    35   1 H        0.924     0.060     2.197     2.318
    36   1 H        0.925     0.080     1.974     2.197
    37   1 H        0.924     0.061     2.190     2.314
    38   1 H        0.925     0.093     1.846     2.125
    39   1 H        0.925     0.094     1.841     2.122
    40   1 H        0.925     0.096     1.824     2.112
    41   1 H        0.925     0.113     1.669     2.020
    42   1 H        0.925     0.094     1.838     2.120
    43   1 H        0.925     0.087     1.913     2.163

Wiberg/Mayer (AO) data.
largest (>0.10) Wiberg bond orders for each atom

     #   Z sym  total        # sym  WBO       # sym  WBO       # sym  WBO
 ---------------------------------------------------------------------------
     1   6 C    3.995 --     2 C    1.021    20 H    0.987    19 H    0.986
                            18 H    0.986
     2   6 C    3.997 --     1 C    1.021     3 C    1.008    22 H    0.977
                            21 H    0.975
     3   6 C    3.996 --     4 C    1.008     2 C    1.008    24 H    0.975
                            23 H    0.972
     4   6 C    3.993 --     3 C    1.008     5 C    1.005    25 H    0.975
                            26 H    0.971
     5   6 C    3.985 --     4 C    1.005     6 C    1.004    28 H    0.965
                            27 H    0.965
     6   6 C    3.922 --     5 C    1.004    29 H    0.972    30 H    0.950
                             7 N    0.915
     7   7 N    3.808 --    16 C    0.965    17 C    0.952     8 C    0.916
                             6 C    0.915
     8   6 C    3.916 --     9 C    1.431    13 C    1.322     7 N    0.916
                            11 C    0.103
     9   6 C    3.987 --     8 C    1.431    10 C    1.428    31 H    0.960
                            12 C    0.105
    10   6 C    3.988 --    11 C    1.436     9 C    1.428    32 H    0.967
    11   6 C    3.985 --    12 C    1.445    10 C    1.436    33 H    0.966
                             8 C    0.103
    12   6 C    3.986 --    11 C    1.445    13 C    1.374    34 H    0.960
                             9 C    0.105
    13   6 C    3.942 --    12 C    1.374     8 C    1.322    14 O    1.071
    14   8 O    2.249 --    13 C    1.071    15 C    0.963
    15   6 C    3.924 --    36 H    0.976    35 H    0.976    37 H    0.976
                            14 O    0.963
    16   6 C    3.934 --    39 H    0.974    38 H    0.974    40 H    0.967
                             7 N    0.965
    17   6 C    3.926 --    43 H    0.977    42 H    0.972    41 H    0.963
                             7 N    0.952
    18   1 H    0.999 --     1 C    0.986
    19   1 H    0.998 --     1 C    0.986
    20   1 H    0.998 --     1 C    0.987
    21   1 H    0.999 --     2 C    0.975
    22   1 H    0.998 --     2 C    0.977
    23   1 H    0.999 --     3 C    0.972
    24   1 H    0.998 --     3 C    0.975
    25   1 H    0.999 --     4 C    0.975
    26   1 H    0.996 --     4 C    0.971
    27   1 H    0.998 --     5 C    0.965
    28   1 H    0.994 --     5 C    0.965
    29   1 H    0.995 --     6 C    0.972
    30   1 H    0.988 --     6 C    0.950
    31   1 H    0.995 --     9 C    0.960
    32   1 H    0.994 --    10 C    0.967
    33   1 H    0.994 --    11 C    0.966
    34   1 H    0.994 --    12 C    0.960
    35   1 H    0.996 --    15 C    0.976
    36   1 H    0.993 --    15 C    0.976
    37   1 H    0.996 --    15 C    0.976
    38   1 H    0.991 --    16 C    0.974
    39   1 H    0.991 --    16 C    0.974
    40   1 H    0.990 --    16 C    0.967
    41   1 H    0.987 --    17 C    0.963
    42   1 H    0.990 --    17 C    0.972
    43   1 H    0.992 --    17 C    0.977
 ---------------------------------------------------------------------------

molecular dipole:
                 x           y           z       tot (Debye)
 q only:        0.181       3.368      -9.738
   full:        0.215       3.471      -9.816      26.469

           -------------------------------------------------
          | TOTAL ENERGY              -51.970232495577 Eh   |
          | GRADIENT NORM               0.000483658712 Eh/α |
          | HOMO-LUMO GAP               3.864169512416 eV   |
           -------------------------------------------------

 * finished run on 2024/12/20 at 07:15:06.087
