   * xtb version 6.7.1 (edcfbbe) compiled by 'conda@3ef47c1a292c' on 2024-11-25

   ID    Z sym.   atoms
    1    6 C      1-5, 7-10
    2    7 N      6
    3    1 H      11-32

          program call               : xtb C1211.xyz --opt --namespace C1211 --charge +1
          :  Hamiltonian                  GFN2-xTB          :
 * total energy  :   -33.0102586 Eh     change       -0.9838885E-10 Eh
 * total energy  :   -33.0157917 Eh     change       -0.5533082E-02 Eh
 * total energy  :   -33.0171456 Eh     change       -0.1353914E-02 Eh
 * total energy  :   -33.0172495 Eh     change       -0.1038874E-03 Eh
 * total energy  :   -33.0173435 Eh     change       -0.9395867E-04 Eh
 * total energy  :   -33.0173773 Eh     change       -0.3382503E-04 Eh
 * total energy  :   -33.0174313 Eh     change       -0.5400429E-04 Eh
 * total energy  :   -33.0174839 Eh     change       -0.5256237E-04 Eh
 * total energy  :   -33.0175225 Eh     change       -0.3858105E-04 Eh
 * total energy  :   -33.0175680 Eh     change       -0.4552307E-04 Eh
 * total energy  :   -33.0186627 Eh     change       -0.4056374E-04 Eh
 * total energy  :   -33.0186972 Eh     change       -0.3448788E-04 Eh
 * total energy  :   -33.0187277 Eh     change       -0.3056682E-04 Eh
 * total energy  :   -33.0187552 Eh     change       -0.2747199E-04 Eh
 * total energy  :   -33.0187833 Eh     change       -0.2815398E-04 Eh
 * total energy  :   -33.0188136 Eh     change       -0.3022413E-04 Eh
 * total energy  :   -33.0188257 Eh     change       -0.1212372E-04 Eh
 * total energy  :   -33.0188342 Eh     change       -0.8470271E-05 Eh
 * total energy  :   -33.0188379 Eh     change       -0.3780404E-05 Eh
   *** GEOMETRY OPTIMIZATION CONVERGED AFTER 44 ITERATIONS ***

 final structure:
================
32
 xtb: 6.7.1 (edcfbbe)
C            1.79536110435891        0.24785149984975        0.02615740707866
C            0.77492636045537       -0.69346755847656       -0.60953753820938
C            0.75532323033295       -2.07252008460630        0.07338836060363
C            0.30317171021682       -2.06357982365885        1.54258561203297
C           -1.19797047220650       -2.29562121583253        1.75024743345681
N           -1.60604653209095       -3.69342271868849        2.10684140626071
C           -1.11717161079794       -4.05225486093898        3.45063965547821
C           -3.08079743529969       -3.75182856606550        2.11592126399511
C           -1.09995469751963       -4.66563661081763        1.12277117966597
C           -0.60153592061143       -0.03419305721805       -0.65517318376561
H            1.48545938103945        0.56975703641411        1.01778013042381
H            1.90694640961183        1.13792395617667       -0.58640507861525
H            2.76725292441321       -0.23252887464131        0.10507375206911
H            1.09218888895637       -0.87512523604106       -1.64175307662507
H            0.12071691221348       -2.73535399099244       -0.51706953985911
H            1.76989476024311       -2.47094305987220        0.02458399472128
H            0.88532323265005       -2.79240141965597        2.10547134073555
H            0.55267671028185       -1.09272621989351        1.96834058818804
H           -1.56519556547686       -1.65392671427354        2.55353412630877
H           -1.72612174009709       -2.02486736815243        0.83518095830352
H           -1.50184659029459       -3.35179764120968        4.18977730350559
H           -1.45004499445562       -5.05485348375749        3.71324198959245
H           -0.03058038245772       -4.03171155419509        3.48554331636847
H           -3.47647676945184       -3.51764740364702        1.12917431400320
H           -3.41540365625354       -4.74945701655172        2.39538624501630
H           -3.48437896691771       -3.03704499880718        2.83097305784632
H           -1.48258217366494       -4.42785576116956        0.13210432401273
H           -0.01337688388046       -4.65035418131199        1.09303657036393
H           -1.42729346712092       -5.66932334223056        1.38909304838188
H           -0.54661154360065        0.88266476039121       -1.23529727438336
H           -1.33242375733448       -0.68327574789795       -1.13432617912634
H           -0.95017846523591        0.22723125777280        0.34155449217933

          :  Hamiltonian                  GFN2-xTB          :
         :: total energy             -33.018837944495 Eh    ::
         :: gradient norm              0.000274758462 Eh/a0 ::
         :: HOMO-LUMO gap              8.043507322172 eV    ::
         :: SCC energy               -33.495943778364 Eh    ::
         :: -> dispersion             -0.022193383975 Eh    ::
         :: repulsion energy           0.477105833868 Eh    ::

    * Orbital Energies and Occupations

         #    Occupation            Energy/Eh            Energy/eV
      -------------------------------------------------------------
         1        2.0000           -0.8701974             -23.6793
       ...           ...                  ...                  ...
        19        2.0000           -0.6458582             -17.5747
        20        2.0000           -0.6447719             -17.5451
        21        2.0000           -0.6367215             -17.3261
        22        2.0000           -0.6248310             -17.0025
        23        2.0000           -0.6048730             -16.4594
        24        2.0000           -0.5967085             -16.2373
        25        2.0000           -0.5906021             -16.0711
        26        2.0000           -0.5806690             -15.8008
        27        2.0000           -0.5622477             -15.2995
        28        2.0000           -0.5525276             -15.0350
        29        2.0000           -0.5373168             -14.6211
        30        2.0000           -0.5346950             -14.5498
        31        2.0000           -0.5260601             -14.3148 (HOMO)
        32                         -0.2304667              -6.2713 (LUMO)
        33                         -0.1637988              -4.4572
        34                         -0.1517810              -4.1302
        35                         -0.1458082              -3.9676
        36                         -0.0763627              -2.0779
        37                         -0.0673272              -1.8321
        38                         -0.0368669              -1.0032
        39                         -0.0331599              -0.9023
        40                         -0.0176242              -0.4796
        41                         -0.0042990              -0.1170
        42                          0.0072535               0.1974
       ...                                ...                  ...
        62                          0.2095876               5.7032
      -------------------------------------------------------------
                  HL-Gap            0.2955935 Eh            8.0435 eV

     #   Z          covCN         q      C6AA      α(0)
     1   6 C        3.755    -0.115    22.763     6.803
     2   6 C        3.848    -0.015    20.817     6.490
     3   6 C        3.801    -0.075    21.924     6.667
     4   6 C        3.799    -0.074    21.919     6.666
     5   6 C        3.759    -0.045    21.424     6.599
     6   7 N        3.622     0.144    18.805     6.441
     7   6 C        3.722    -0.096    22.454     6.767
     8   6 C        3.730    -0.098    22.472     6.767
     9   6 C        3.721    -0.096    22.456     6.768
    10   6 C        3.754    -0.113    22.726     6.797
    11   1 H        0.925     0.036     2.505     2.475
    12   1 H        0.925     0.053     2.288     2.366
    13   1 H        0.925     0.043     2.404     2.425
    14   1 H        0.924     0.045     2.379     2.412
    15   1 H        0.924     0.035     2.521     2.483
    16   1 H        0.924     0.051     2.305     2.374
    17   1 H        0.925     0.048     2.340     2.392
    18   1 H        0.925     0.081     1.964     2.192
    19   1 H        0.924     0.080     1.983     2.202
    20   1 H        0.924     0.097     1.809     2.103
    21   1 H        0.925     0.099     1.798     2.097
    22   1 H        0.925     0.098     1.800     2.098
    23   1 H        0.925     0.101     1.772     2.082
    24   1 H        0.925     0.099     1.793     2.094
    25   1 H        0.925     0.100     1.782     2.087
    26   1 H        0.925     0.099     1.795     2.095
    27   1 H        0.925     0.098     1.802     2.099
    28   1 H        0.925     0.107     1.718     2.050
    29   1 H        0.925     0.097     1.815     2.107
    30   1 H        0.925     0.055     2.261     2.351
    31   1 H        0.925     0.028     2.621     2.532
    32   1 H        0.925     0.033     2.545     2.495

Wiberg/Mayer (AO) data.
largest (>0.10) Wiberg bond orders for each atom

     #   Z sym  total        # sym  WBO       # sym  WBO       # sym  WBO
 ---------------------------------------------------------------------------
     1   6 C    3.994 --     2 C    1.010    13 H    0.986    12 H    0.984
                            11 H    0.982
     2   6 C    3.993 --     1 C    1.010    10 C    1.010     3 C    0.994
                            14 H    0.967
     3   6 C    3.992 --     4 C    1.003     2 C    0.994    16 H    0.976
                            15 H    0.974
     4   6 C    3.982 --     5 C    1.005     3 C    1.003    17 H    0.966
                            18 H    0.961
     5   6 C    3.922 --     4 C    1.005    19 H    0.970    20 H    0.962
                             6 N    0.917
     6   7 N    3.815 --     7 C    0.959     8 C    0.959     9 C    0.958
                             5 C    0.917
     7   6 C    3.928 --    21 H    0.975    22 H    0.974    23 H    0.969
                             6 N    0.959
     8   6 C    3.928 --    26 H    0.975    24 H    0.975    25 H    0.974
                             6 N    0.959
     9   6 C    3.926 --    29 H    0.975    27 H    0.974    28 H    0.971
                             6 N    0.958
    10   6 C    3.995 --     2 C    1.010    32 H    0.985    31 H    0.985
                            30 H    0.984
    11   1 H    0.999 --     1 C    0.982
    12   1 H    0.997 --     1 C    0.984
    13   1 H    0.998 --     1 C    0.986
    14   1 H    0.998 --     2 C    0.967
    15   1 H    0.999 --     3 C    0.974
    16   1 H    0.997 --     3 C    0.976
    17   1 H    0.998 --     4 C    0.966
    18   1 H    0.993 --     4 C    0.961
    19   1 H    0.994 --     5 C    0.970
    20   1 H    0.991 --     5 C    0.962
    21   1 H    0.990 --     7 C    0.975
    22   1 H    0.990 --     7 C    0.974
    23   1 H    0.990 --     7 C    0.969
    24   1 H    0.990 --     8 C    0.975
    25   1 H    0.990 --     8 C    0.974
    26   1 H    0.990 --     8 C    0.975
    27   1 H    0.990 --     9 C    0.974
    28   1 H    0.988 --     9 C    0.971
    29   1 H    0.991 --     9 C    0.975
    30   1 H    0.997 --    10 C    0.984
    31   1 H    0.999 --    10 C    0.985
    32   1 H    0.999 --    10 C    0.985
 ---------------------------------------------------------------------------

molecular dipole:
                 x           y           z       tot (Debye)
 q only:       -2.621      -6.576       3.675
   full:       -2.705      -6.626       3.734      20.519

           -------------------------------------------------
          | TOTAL ENERGY              -33.018837944495 Eh   |
          | GRADIENT NORM               0.000274758462 Eh/α |
          | HOMO-LUMO GAP               8.043507322172 eV   |
           -------------------------------------------------

 * finished run on 2024/12/20 at 07:15:04.316
