   * xtb version 6.7.1 (edcfbbe) compiled by 'conda@3ef47c1a292c' on 2024-11-25

   ID    Z sym.   atoms
    1    6 C      1-3, 5, 7-10, 12, 13
    2    7 N      4, 6, 11
    3    1 H      14-35

          program call               : xtb C1228.xyz --opt --namespace C1228 --charge +1
          :  Hamiltonian                  GFN2-xTB          :
 * total energy  :   -41.0245341 Eh     change       -0.7697309E-10 Eh
 * total energy  :   -41.0377850 Eh     change       -0.1325092E-01 Eh
 * total energy  :   -41.0409585 Eh     change       -0.3173539E-02 Eh
 * total energy  :   -41.0414288 Eh     change       -0.4702157E-03 Eh
 * total energy  :   -41.0420196 Eh     change       -0.5908800E-03 Eh
 * total energy  :   -41.0422996 Eh     change       -0.2799256E-03 Eh
 * total energy  :   -41.0426398 Eh     change       -0.3401980E-03 Eh
 * total energy  :   -41.0428586 Eh     change       -0.2188304E-03 Eh
 * total energy  :   -41.0429729 Eh     change       -0.1142763E-03 Eh
 * total energy  :   -41.0430200 Eh     change       -0.4708008E-04 Eh
 * total energy  :   -41.0435808 Eh     change       -0.8482869E-04 Eh
 * total energy  :   -41.0436217 Eh     change       -0.4093831E-04 Eh
 * total energy  :   -41.0436665 Eh     change       -0.4478485E-04 Eh
 * total energy  :   -41.0436978 Eh     change       -0.3125205E-04 Eh
 * total energy  :   -41.0437262 Eh     change       -0.2844619E-04 Eh
 * total energy  :   -41.0437696 Eh     change       -0.4335653E-04 Eh
 * total energy  :   -41.0437908 Eh     change       -0.2120097E-04 Eh
 * total energy  :   -41.0438057 Eh     change       -0.1492202E-04 Eh
 * total energy  :   -41.0438101 Eh     change       -0.4458820E-05 Eh
   *** GEOMETRY OPTIMIZATION CONVERGED AFTER 36 ITERATIONS ***

 final structure:
================
35
 xtb: 6.7.1 (edcfbbe)
C            0.66174984418395       -0.24512588361335       -0.45470678766487
C            0.14605947412943       -1.20173596262011        0.61455766951967
C            0.94762000808300       -1.15150035150717        1.92626044923772
N            0.45410314733628       -0.15057274873966        2.86552314385872
C           -0.20562462927172       -0.50229497407054        3.97120419615212
N           -0.24097331537800       -1.85026677605033        4.28882816591027
C           -1.15243882098220       -2.70851350637529        3.53482577947594
C           -0.20820247500382       -2.16630595762016        5.71156197840873
C           -1.27124421217759       -1.37571289691218        6.45828188627563
C           -0.98045987647419        0.09653169456095        6.21805654794819
N           -0.75629446517268        0.39645953582612        4.80419783125587
C           -1.26374986579992        1.69483167419101        4.40066986510828
C            0.94450063145133        1.19283840580214        2.61855868066795
H            0.54264920102957        0.79497238785618       -0.16512603670504
H            0.11046665984168       -0.39832515076600       -1.37835305825468
H            1.71334812260416       -0.43095159422713       -0.65809322701359
H           -0.90622828165518       -0.98615267912187        0.81338596720959
H            0.20679003737037       -2.21804519061852        0.22325821715067
H            0.94214419891629       -2.12065790437587        2.42016785357576
H            1.98718456216382       -0.91016033841365        1.69370018733780
H           -0.71309334807805       -3.70179357178496        3.44761337289197
H           -2.11475999942134       -2.79625022677778        4.04756191976529
H           -1.33583255997781       -2.31215106020975        2.54232335593561
H            0.78592521296857       -1.91203381980061        6.08941116364833
H           -0.34840062335315       -3.24068094978356        5.81948159093401
H           -1.24460337719279       -1.58966523306461        7.52447740103548
H           -2.26259769647465       -1.63287109517035        6.08213460903276
H           -0.08273454917238        0.39368840705974        6.77337486091484
H           -1.80925866796210        0.70962319827175        6.57284875873379
H           -2.27753878341886        1.79356505227228        4.79375592604596
H           -0.66826157566859        2.51457781973330        4.80568180994948
H           -1.32884047879204        1.77613473619555        3.32224997632613
H            1.92641467278486        1.11171692004434        2.15453835814470
H            0.30508878846181        1.75471902205102        1.93731525100951
H            1.06422304010226        1.74123901775901        3.54825233617722

          :  Hamiltonian                  GFN2-xTB          :
         :: total energy             -41.043810139355 Eh    ::
         :: gradient norm              0.000765255091 Eh/a0 ::
         :: HOMO-LUMO gap              3.269210975278 eV    ::
         :: SCC energy               -41.606225379459 Eh    ::
         :: -> dispersion             -0.029070052389 Eh    ::
         :: repulsion energy           0.562415240103 Eh    ::

    * Orbital Energies and Occupations

         #    Occupation            Energy/Eh            Energy/eV
      -------------------------------------------------------------
         1        2.0000           -0.8499250             -23.1276
       ...           ...                  ...                  ...
        26        2.0000           -0.6214039             -16.9093
        27        2.0000           -0.6156549             -16.7528
        28        2.0000           -0.6115689             -16.6416
        29        2.0000           -0.6080174             -16.5450
        30        2.0000           -0.5999731             -16.3261
        31        2.0000           -0.5921117             -16.1122
        32        2.0000           -0.5848652             -15.9150
        33        2.0000           -0.5824289             -15.8487
        34        2.0000           -0.5693049             -15.4916
        35        2.0000           -0.5627588             -15.3134
        36        2.0000           -0.5534753             -15.0608
        37        2.0000           -0.5310522             -14.4507
        38        2.0000           -0.5164075             -14.0522 (HOMO)
        39                         -0.3962662             -10.7830 (LUMO)
        40                         -0.1941508              -5.2831
        41                         -0.1512525              -4.1158
        42                         -0.1363642              -3.7107
        43                         -0.0865269              -2.3545
        44                         -0.0653465              -1.7782
        45                         -0.0454389              -1.2365
        46                         -0.0405208              -1.1026
        47                         -0.0348746              -0.9490
        48                         -0.0283149              -0.7705
        49                         -0.0154314              -0.4199
       ...                                ...                  ...
        74                          0.3237962               8.8109
      -------------------------------------------------------------
                  HL-Gap            0.1201413 Eh            3.2692 eV

     #   Z          covCN         q      C6AA      α(0)
     1   6 C        3.751    -0.116    22.785     6.807
     2   6 C        3.799    -0.061    21.683     6.630
     3   6 C        3.750    -0.032    21.209     6.568
     4   7 N        2.738    -0.029    21.808     6.936
     5   6 C        2.786     0.195    23.836     7.997
     6   7 N        2.738    -0.133    23.881     7.258
     7   6 C        3.701    -0.055    21.736     6.667
     8   6 C        3.766    -0.011    20.812     6.502
     9   6 C        3.805    -0.076    21.948     6.669
    10   6 C        3.758    -0.013    20.866     6.513
    11   7 N        2.735    -0.055    22.297     7.013
    12   6 C        3.697    -0.070    22.011     6.711
    13   6 C        3.698    -0.073    22.060     6.718
    14   1 H        0.925     0.043     2.413     2.429
    15   1 H        0.925     0.059     2.211     2.325
    16   1 H        0.925     0.050     2.316     2.380
    17   1 H        0.924     0.041     2.435     2.440
    18   1 H        0.924     0.061     2.186     2.312
    19   1 H        0.925     0.083     1.950     2.184
    20   1 H        0.924     0.080     1.980     2.200
    21   1 H        0.925     0.073     2.048     2.238
    22   1 H        0.924     0.059     2.207     2.323
    23   1 H        0.925     0.067     2.114     2.274
    24   1 H        0.924     0.062     2.176     2.307
    25   1 H        0.925     0.078     2.003     2.213
    26   1 H        0.925     0.075     2.033     2.230
    27   1 H        0.924     0.061     2.192     2.315
    28   1 H        0.924     0.068     2.104     2.268
    29   1 H        0.924     0.078     1.996     2.209
    30   1 H        0.924     0.084     1.935     2.175
    31   1 H        0.924     0.075     2.032     2.229
    32   1 H        0.925     0.080     1.979     2.200
    33   1 H        0.925     0.094     1.844     2.124
    34   1 H        0.924     0.079     1.987     2.205
    35   1 H        0.925     0.078     1.998     2.210

Wiberg/Mayer (AO) data.
largest (>0.10) Wiberg bond orders for each atom

     #   Z sym  total        # sym  WBO       # sym  WBO       # sym  WBO
 ---------------------------------------------------------------------------
     1   6 C    3.991 --     2 C    1.020    16 H    0.986    14 H    0.985
                            15 H    0.983
     2   6 C    3.990 --     1 C    1.020     3 C    0.988    18 H    0.973
                            17 H    0.973
     3   6 C    3.945 --     2 C    0.988     4 N    0.970    19 H    0.960
                            20 H    0.960
     4   7 N    3.581 --     5 C    1.358    13 C    0.989     3 C    0.970
                            11 N    0.121
     5   6 C    3.973 --     4 N    1.358    11 N    1.313     6 N    1.134
     6   7 N    3.290 --     5 C    1.134     8 C    0.977     7 C    0.968
     7   6 C    3.958 --    21 H    0.978    23 H    0.976    22 H    0.972
                             6 N    0.968
     8   6 C    3.969 --     9 C    1.002     6 N    0.977    24 H    0.970
                            25 H    0.969
     9   6 C    3.992 --    10 C    1.007     8 C    1.002    27 H    0.971
                            26 H    0.968
    10   6 C    3.956 --     9 C    1.007    11 N    0.968    29 H    0.966
                            28 H    0.961
    11   7 N    3.533 --     5 C    1.313    12 C    0.988    10 C    0.968
                             4 N    0.121
    12   6 C    3.951 --    11 N    0.988    32 H    0.975    31 H    0.972
                            30 H    0.966
    13   6 C    3.949 --     4 N    0.989    35 H    0.974    33 H    0.966
                            34 H    0.965
    14   1 H    0.998 --     1 C    0.985
    15   1 H    0.996 --     1 C    0.983
    16   1 H    0.997 --     1 C    0.986
    17   1 H    0.998 --     2 C    0.973
    18   1 H    0.995 --     2 C    0.973
    19   1 H    0.993 --     3 C    0.960
    20   1 H    0.993 --     3 C    0.960
    21   1 H    0.994 --     7 C    0.978
    22   1 H    0.996 --     7 C    0.972
    23   1 H    0.995 --     7 C    0.976
    24   1 H    0.996 --     8 C    0.970
    25   1 H    0.993 --     8 C    0.969
    26   1 H    0.994 --     9 C    0.968
    27   1 H    0.996 --     9 C    0.971
    28   1 H    0.995 --    10 C    0.961
    29   1 H    0.993 --    10 C    0.966
    30   1 H    0.992 --    12 C    0.966
    31   1 H    0.994 --    12 C    0.972
    32   1 H    0.993 --    12 C    0.975
    33   1 H    0.991 --    13 C    0.966
    34   1 H    0.993 --    13 C    0.965
    35   1 H    0.994 --    13 C    0.974
 ---------------------------------------------------------------------------

molecular dipole:
                 x           y           z       tot (Debye)
 q only:       -0.486      -0.626       7.201
   full:       -0.639      -0.505       7.312      18.701

           -------------------------------------------------
          | TOTAL ENERGY              -41.043810139355 Eh   |
          | GRADIENT NORM               0.000765255091 Eh/α |
          | HOMO-LUMO GAP               3.269210975278 eV   |
           -------------------------------------------------

 * finished run on 2024/12/20 at 07:15:37.286
