   * xtb version 6.7.1 (edcfbbe) compiled by 'conda@3ef47c1a292c' on 2024-11-25

   ID    Z sym.   atoms
    1    8 O      1, 3
    2    6 C      2, 4, 6-10
    3    7 N      5
    4    1 H      11-18

          program call               : xtb C1222.xyz --opt --namespace C1222 --charge +1
          :  Hamiltonian                  GFN2-xTB          :
 * total energy  :   -29.7027806 Eh     change       -0.3102905E-09 Eh
 * total energy  :   -29.7073281 Eh     change       -0.4547488E-02 Eh
 * total energy  :   -29.7091065 Eh     change       -0.1778395E-02 Eh
 * total energy  :   -29.7095151 Eh     change       -0.4085776E-03 Eh
 * total energy  :   -29.7096931 Eh     change       -0.1780425E-03 Eh
 * total energy  :   -29.7098122 Eh     change       -0.1190785E-03 Eh
 * total energy  :   -29.7099609 Eh     change       -0.1487239E-03 Eh
 * total energy  :   -29.7101338 Eh     change       -0.1728183E-03 Eh
 * total energy  :   -29.7102832 Eh     change       -0.1494274E-03 Eh
 * total energy  :   -29.7103668 Eh     change       -0.8357018E-04 Eh
 * total energy  :   -29.7103909 Eh     change       -0.2414897E-04 Eh
 * total energy  :   -29.7104486 Eh     change       -0.5773368E-04 Eh
 * total energy  :   -29.7104645 Eh     change       -0.1585674E-04 Eh
 * total energy  :   -29.7104810 Eh     change       -0.1647907E-04 Eh
 * total energy  :   -29.7104869 Eh     change       -0.5898896E-05 Eh
 * total energy  :   -29.7104899 Eh     change       -0.3004303E-05 Eh
   *** GEOMETRY OPTIMIZATION CONVERGED AFTER 16 ITERATIONS ***

 final structure:
================
18
 xtb: 6.7.1 (edcfbbe)
O            0.80673737059316       -1.77018922713628        0.83823874817552
C            0.36377335997573       -0.54975141005690        1.01017393411495
O            0.87998689533082        0.32896938583636        1.63401749355431
C           -0.98216182144297       -0.35033782682649        0.26453956824523
N           -1.62792077080142        0.83480190492829        0.77165416488083
C           -2.73710983649862        0.74361649175797        1.51742330152739
C           -3.29459530500136        1.86069911375180        2.10066215229616
C           -2.68133317965179        3.09654683905715        1.92729306594561
C           -1.53102861994265        3.16834754321896        1.15387205545143
C           -1.02489797606140        2.01684985256884        0.58543553325571
H            1.66240424165694       -1.92962650575766        1.27435234432181
H           -0.75266759947266       -0.24646180263047       -0.80055110806917
H           -1.60246651378255       -1.23735148862171        0.40172066957665
H           -3.17634333599607       -0.23543560177754        1.64127034702819
H           -4.19166692304813        1.76188537682732        2.69085921247476
H           -3.09260930850144        3.98199206984227        2.38589059770920
H           -1.02465640999506        4.10662470978205        0.99307867129356
H           -0.13424426736036        2.03424057523610       -0.02358075178212

          :  Hamiltonian                  GFN2-xTB          :
         :: total energy             -29.710489875811 Eh    ::
         :: gradient norm              0.000476261051 Eh/a0 ::
         :: HOMO-LUMO gap              3.407324872026 eV    ::
         :: SCC energy               -30.121161318783 Eh    ::
         :: -> dispersion             -0.013298336305 Eh    ::
         :: repulsion energy           0.410671442972 Eh    ::

    * Orbital Energies and Occupations

         #    Occupation            Energy/Eh            Energy/eV
      -------------------------------------------------------------
         1        2.0000           -0.9098314             -24.7578
       ...           ...                  ...                  ...
        14        2.0000           -0.7266600             -19.7734
        15        2.0000           -0.7163750             -19.4936
        16        2.0000           -0.7034296             -19.1413
        17        2.0000           -0.6859018             -18.6643
        18        2.0000           -0.6844609             -18.6251
        19        2.0000           -0.6656636             -18.1136
        20        2.0000           -0.6613811             -17.9971
        21        2.0000           -0.6376319             -17.3508
        22        2.0000           -0.6348059             -17.2739
        23        2.0000           -0.6280736             -17.0908
        24        2.0000           -0.6272015             -17.0670
        25        2.0000           -0.6206976             -16.8900
        26        2.0000           -0.5912062             -16.0875 (HOMO)
        27                         -0.4659893             -12.6802 (LUMO)
        28                         -0.4330686             -11.7844
        29                         -0.3942381             -10.7278
        30                         -0.3133124              -8.5257
        31                         -0.1840002              -5.0069
        32                         -0.1199937              -3.2652
        33                         -0.0847845              -2.3071
        34                         -0.0462726              -1.2591
        35                         -0.0356494              -0.9701
        36                         -0.0184351              -0.5016
        37                         -0.0135073              -0.3676
       ...                                ...                  ...
        48                          0.5157859              14.0352
      -------------------------------------------------------------
                  HL-Gap            0.1252169 Eh            3.4073 eV

     #   Z          covCN         q      C6AA      α(0)
     1   8 O        1.660    -0.328    19.510     5.963
     2   6 C        2.686     0.369    20.751     7.455
     3   8 O        0.856    -0.370    21.082     6.156
     4   6 C        3.762    -0.069    21.863     6.665
     5   7 N        2.752     0.122    19.151     6.500
     6   6 C        2.888     0.032    27.288     8.564
     7   6 C        2.915    -0.007    28.204     8.709
     8   6 C        2.925     0.017    27.625     8.619
     9   6 C        2.915    -0.005    28.138     8.699
    10   6 C        2.894     0.041    27.080     8.532
    11   1 H        0.804     0.369     0.546     1.161
    12   1 H        0.924     0.129     1.544     1.943
    13   1 H        0.924     0.124     1.579     1.965
    14   1 H        0.926     0.111     1.685     2.030
    15   1 H        0.926     0.114     1.663     2.017
    16   1 H        0.926     0.113     1.667     2.019
    17   1 H        0.926     0.116     1.644     2.005
    18   1 H        0.926     0.121     1.607     1.982

Wiberg/Mayer (AO) data.
largest (>0.10) Wiberg bond orders for each atom

     #   Z sym  total        # sym  WBO       # sym  WBO       # sym  WBO
 ---------------------------------------------------------------------------
     1   8 O    2.264 --     2 C    1.205    11 H    0.837     3 O    0.193
     2   6 C    3.935 --     3 O    1.778     1 O    1.205     4 C    0.911
     3   8 O    2.097 --     2 C    1.778     1 O    0.193
     4   6 C    3.945 --     5 N    0.993    13 H    0.953    12 H    0.935
                             2 C    0.911
     5   7 N    3.767 --    10 C    1.315     6 C    1.313     4 C    0.993
     6   6 C    3.955 --     7 C    1.472     5 N    1.313    14 H    0.954
     7   6 C    3.979 --     6 C    1.472     8 C    1.412    15 H    0.958
     8   6 C    3.967 --     9 C    1.428     7 C    1.412    16 H    0.960
     9   6 C    3.978 --    10 C    1.456     8 C    1.428    17 H    0.957
    10   6 C    3.952 --     9 C    1.456     5 N    1.315    18 H    0.953
    11   1 H    0.863 --     1 O    0.837
    12   1 H    0.983 --     4 C    0.935
    13   1 H    0.984 --     4 C    0.953
    14   1 H    0.988 --     6 C    0.954
    15   1 H    0.987 --     7 C    0.958
    16   1 H    0.987 --     8 C    0.960
    17   1 H    0.986 --     9 C    0.957
    18   1 H    0.985 --    10 C    0.953
 ---------------------------------------------------------------------------

molecular dipole:
                 x           y           z       tot (Debye)
 q only:       -3.273       1.828       1.783
   full:       -3.180       1.679       1.758      10.175

           -------------------------------------------------
          | TOTAL ENERGY              -29.710489875811 Eh   |
          | GRADIENT NORM               0.000476261051 Eh/α |
          | HOMO-LUMO GAP               3.407324872026 eV   |
           -------------------------------------------------

 * finished run on 2024/12/20 at 07:15:29.217
