   * xtb version 6.7.1 (edcfbbe) compiled by 'conda@3ef47c1a292c' on 2024-11-25

   ID    Z sym.   atoms
    1    8 O      1
    2    6 C      2-9, 11-16, 18, 19
    3    7 N      10, 17, 20
    4    1 H      21-36

          program call               : xtb C1224.xyz --opt --namespace C1224 --charge +1
          :  Hamiltonian                  GFN2-xTB          :
 * total energy  :   -54.8434330 Eh     change       -0.2912799E-09 Eh
 * total energy  :   -54.8527433 Eh     change       -0.9310264E-02 Eh
 * total energy  :   -54.8549670 Eh     change       -0.2223680E-02 Eh
 * total energy  :   -54.8553239 Eh     change       -0.3569208E-03 Eh
 * total energy  :   -54.8555847 Eh     change       -0.2607958E-03 Eh
 * total energy  :   -54.8556980 Eh     change       -0.1133472E-03 Eh
 * total energy  :   -54.8558681 Eh     change       -0.1700838E-03 Eh
 * total energy  :   -54.8560156 Eh     change       -0.1474735E-03 Eh
 * total energy  :   -54.8561454 Eh     change       -0.1298400E-03 Eh
 * total energy  :   -54.8562716 Eh     change       -0.1261961E-03 Eh
 * total energy  :   -54.8568957 Eh     change       -0.2933422E-04 Eh
 * total energy  :   -54.8569350 Eh     change       -0.3932228E-04 Eh
 * total energy  :   -54.8569607 Eh     change       -0.2570251E-04 Eh
 * total energy  :   -54.8569866 Eh     change       -0.2588344E-04 Eh
 * total energy  :   -54.8570043 Eh     change       -0.1772155E-04 Eh
 * total energy  :   -54.8570208 Eh     change       -0.1648847E-04 Eh
 * total energy  :   -54.8570257 Eh     change       -0.4865166E-05 Eh
 * total energy  :   -54.8570350 Eh     change       -0.9345808E-05 Eh
 * total energy  :   -54.8570399 Eh     change       -0.4914853E-05 Eh
   *** GEOMETRY OPTIMIZATION CONVERGED AFTER 31 ITERATIONS ***

 final structure:
================
36
 xtb: 6.7.1 (edcfbbe)
O            2.18708756441245       -1.08832553368821        0.00203012729902
C            3.33740784773009       -0.74042372820846        0.14769660995641
C            4.19821910549588       -1.16431650420544        1.24906885972115
C            5.49416351384052       -0.67620802694017        1.44859896055419
C            6.24036375036206       -1.12125541473440        2.52179722856094
C            5.71418286552264       -2.05361516590871        3.40529486625085
C            4.43079145606165       -2.54407148338975        3.21680441385561
C            3.67693530556186       -2.10281706873466        2.14877542778168
C            3.94427625029436        0.23693434704970       -0.89317072786041
N            3.01561081440014        0.38179292815682       -1.97888980728152
C            3.09103117640878       -0.27650931267383       -3.19265438101211
C            4.10501199608736       -1.00661665483496       -3.79786325783502
C            3.84485450259889       -1.52743371860277       -5.04971698798814
C            2.61886636777759       -1.33228361658210       -5.68884023518212
C            1.60271723474022       -0.60929972317589       -5.09813088379355
C            1.85640612358526       -0.08666373650414       -3.83732049355191
N            1.08415385953331        0.66602446745670       -2.97175431756268
C            1.79537467862555        0.92717446311759       -1.86773876309184
C            1.27346652069060        1.72788382657116       -0.74765204759709
N           -0.19570897342673        1.14343714996345       -3.17647285882135
H            5.92302323244748        0.05402423821197        0.78012402869695
H            7.23850456601811       -0.74044190322986        2.67344177879580
H            6.30601450147970       -2.39515025594394        4.24044511254956
H            4.02085376876843       -3.26804950826304        3.90348376051204
H            2.67614971350893       -2.47235307668283        1.98422257143158
H            4.12331990953447        1.20200282432716       -0.41162963409894
H            4.88487792808982       -0.15196092315601       -1.28106489490811
H            5.05755999513678       -1.16787133992218       -3.32030335107534
H            4.60829378065058       -2.10194279468659       -5.54906026866732
H            2.46338216440276       -1.75950905300484       -6.66629848713659
H            0.65794726704098       -0.46598158969452       -5.59781639687936
H            0.85786602551797        1.07625561309087        0.02276408443466
H            2.06028163529549        2.32527100905779       -0.29321612781421
H            0.48308710031652        2.38071709674931       -1.11313226632653
H           -0.88576384362511        0.63693700187468       -2.62524776566589
H           -0.43877970488752        1.10638516714063       -4.16120387624852

          :  Hamiltonian                  GFN2-xTB          :
         :: total energy             -54.857039933007 Eh    ::
         :: gradient norm              0.000890190115 Eh/a0 ::
         :: HOMO-LUMO gap              3.103838232713 eV    ::
         :: SCC energy               -55.745663418434 Eh    ::
         :: -> dispersion             -0.037353619463 Eh    ::
         :: repulsion energy           0.888623485427 Eh    ::

    * Orbital Energies and Occupations

         #    Occupation            Energy/Eh            Energy/eV
      -------------------------------------------------------------
         1        2.0000           -0.8688915             -23.6437
       ...           ...                  ...                  ...
        38        2.0000           -0.5936222             -16.1533
        39        2.0000           -0.5901029             -16.0575
        40        2.0000           -0.5877023             -15.9922
        41        2.0000           -0.5742046             -15.6249
        42        2.0000           -0.5675402             -15.4436
        43        2.0000           -0.5562699             -15.1369
        44        2.0000           -0.5487906             -14.9334
        45        2.0000           -0.5400158             -14.6946
        46        2.0000           -0.5323283             -14.4854
        47        2.0000           -0.5315492             -14.4642
        48        2.0000           -0.5232941             -14.2396
        49        2.0000           -0.5192584             -14.1297
        50        2.0000           -0.5171867             -14.0734 (HOMO)
        51                         -0.4031227             -10.9695 (LUMO)
        52                         -0.3975452             -10.8178
        53                         -0.3549892              -9.6597
        54                         -0.3456633              -9.4060
        55                         -0.3357887              -9.1373
        56                         -0.3073532              -8.3635
        57                         -0.2300540              -6.2601
        58                         -0.1989610              -5.4140
        59                         -0.1975083              -5.3745
        60                         -0.1346891              -3.6651
        61                         -0.0875131              -2.3814
       ...                                ...                  ...
        96                          0.5566050              15.1460
      -------------------------------------------------------------
                  HL-Gap            0.1140640 Eh            3.1038 eV

     #   Z          covCN         q      C6AA      α(0)
     1   8 O        0.857    -0.367    21.025     6.148
     2   6 C        2.823     0.227    23.244     7.900
     3   6 C        2.970    -0.019    28.475     8.753
     4   6 C        2.919    -0.027    28.688     8.783
     5   6 C        2.917    -0.020    28.498     8.754
     6   6 C        2.920    -0.008    28.211     8.710
     7   6 C        2.916    -0.018    28.466     8.749
     8   6 C        2.927    -0.010    28.265     8.719
     9   6 C        3.742    -0.040    21.363     6.594
    10   7 N        2.831     0.017    20.953     6.798
    11   6 C        3.097     0.040    26.981     8.513
    12   6 C        2.910    -0.032    28.809     8.801
    13   6 C        2.925    -0.019    28.495     8.754
    14   6 C        2.926    -0.020    28.498     8.754
    15   6 C        2.909    -0.033    28.828     8.804
    16   6 C        3.085     0.027    27.307     8.566
    17   7 N        2.905     0.089    19.699     6.592
    18   6 C        3.067     0.123    25.244     8.239
    19   6 C        3.755    -0.136    23.180     6.865
    20   7 N        2.707    -0.249    26.466     7.641
    21   1 H        0.926     0.041     2.437     2.441
    22   1 H        0.926     0.060     2.199     2.319
    23   1 H        0.926     0.066     2.131     2.283
    24   1 H        0.926     0.064     2.150     2.293
    25   1 H        0.926     0.072     2.066     2.248
    26   1 H        0.924     0.092     1.864     2.135
    27   1 H        0.925     0.096     1.820     2.110
    28   1 H        0.926     0.064     2.153     2.294
    29   1 H        0.926     0.077     2.009     2.216
    30   1 H        0.926     0.078     2.005     2.214
    31   1 H        0.926     0.064     2.158     2.297
    32   1 H        0.924     0.116     1.642     2.004
    33   1 H        0.925     0.090     1.878     2.143
    34   1 H        0.925     0.105     1.744     2.065
    35   1 H        0.860     0.195     1.130     1.665
    36   1 H        0.860     0.196     1.125     1.661

Wiberg/Mayer (AO) data.
largest (>0.10) Wiberg bond orders for each atom

     #   Z sym  total        # sym  WBO       # sym  WBO       # sym  WBO
 ---------------------------------------------------------------------------
     1   8 O    2.081 --     2 C    1.804
     2   6 C    3.930 --     1 O    1.804     3 C    1.077     9 C    0.929
     3   6 C    3.983 --     4 C    1.355     8 C    1.352     2 C    1.077
     4   6 C    3.991 --     5 C    1.472     3 C    1.355    21 H    0.967
                             7 C    0.102
     5   6 C    3.990 --     4 C    1.472     6 C    1.418    22 H    0.968
     6   6 C    3.986 --     7 C    1.428     5 C    1.418    23 H    0.968
     7   6 C    3.989 --     8 C    1.463     6 C    1.428    24 H    0.967
                             4 C    0.102
     8   6 C    3.984 --     7 C    1.463     3 C    1.352    25 H    0.965
     9   6 C    3.952 --    10 N    0.992    27 H    0.953    26 H    0.944
                             2 C    0.929
    10   7 N    3.648 --    18 C    1.305    11 C    1.115     9 C    0.992
    11   6 C    3.953 --    12 C    1.348    16 C    1.273    10 N    1.115
    12   6 C    3.986 --    13 C    1.485    11 C    1.348    28 H    0.963
                            15 C    0.117
    13   6 C    3.983 --    12 C    1.485    14 C    1.386    29 H    0.967
    14   6 C    3.985 --    15 C    1.486    13 C    1.386    30 H    0.966
    15   6 C    3.985 --    14 C    1.486    16 C    1.346    31 H    0.963
                            12 C    0.117
    16   6 C    3.950 --    15 C    1.346    11 C    1.273    17 N    1.104
    17   7 N    3.668 --    18 C    1.311    16 C    1.104    20 N    1.038
    18   6 C    3.951 --    17 N    1.311    10 N    1.305    19 C    1.052
    19   6 C    3.974 --    18 C    1.052    34 H    0.964    33 H    0.962
                            32 H    0.935
    20   7 N    3.049 --    17 N    1.038    36 H    0.943    35 H    0.935
    21   1 H    0.998 --     4 C    0.967
    22   1 H    0.996 --     5 C    0.968
    23   1 H    0.995 --     6 C    0.968
    24   1 H    0.995 --     7 C    0.967
    25   1 H    0.995 --     8 C    0.965
    26   1 H    0.991 --     9 C    0.944
    27   1 H    0.990 --     9 C    0.953
    28   1 H    0.995 --    12 C    0.963
    29   1 H    0.994 --    13 C    0.967
    30   1 H    0.994 --    14 C    0.966
    31   1 H    0.995 --    15 C    0.963
    32   1 H    0.982 --    19 C    0.935
    33   1 H    0.990 --    19 C    0.962
    34   1 H    0.988 --    19 C    0.964
    35   1 H    0.961 --    20 N    0.935
    36   1 H    0.961 --    20 N    0.943
 ---------------------------------------------------------------------------

molecular dipole:
                 x           y           z       tot (Debye)
 q only:        5.227       0.290      -3.392
   full:        5.268       0.145      -3.481      16.053

           -------------------------------------------------
          | TOTAL ENERGY              -54.857039933007 Eh   |
          | GRADIENT NORM               0.000890190115 Eh/α |
          | HOMO-LUMO GAP               3.103838232713 eV   |
           -------------------------------------------------

 * finished run on 2024/12/20 at 07:15:31.167
