   * xtb version 6.7.1 (edcfbbe) compiled by 'conda@3ef47c1a292c' on 2024-11-25

   ID    Z sym.   atoms
    1    8 O      1
    2    6 C      2-9, 11, 12, 14-23
    3    7 N      10, 13
    4    1 H      24-42

          program call               : xtb C1225.xyz --opt --namespace C1225 --charge +1
          :  Hamiltonian                  GFN2-xTB          :
 * total energy  :   -61.9994615 Eh     change       -0.1067171E-08 Eh
 * total energy  :   -62.0109580 Eh     change       -0.1149652E-01 Eh
 * total energy  :   -62.0145504 Eh     change       -0.3592410E-02 Eh
 * total energy  :   -62.0153042 Eh     change       -0.7538509E-03 Eh
 * total energy  :   -62.0159463 Eh     change       -0.6420661E-03 Eh
 * total energy  :   -62.0162681 Eh     change       -0.3218045E-03 Eh
 * total energy  :   -62.0165969 Eh     change       -0.3287534E-03 Eh
 * total energy  :   -62.0169651 Eh     change       -0.3682721E-03 Eh
 * total energy  :   -62.0172975 Eh     change       -0.3323832E-03 Eh
 * total energy  :   -62.0176041 Eh     change       -0.3065569E-03 Eh
 * total energy  :   -62.0192527 Eh     change       -0.1751124E-04 Eh
 * total energy  :   -62.0192698 Eh     change       -0.1710169E-04 Eh
 * total energy  :   -62.0192877 Eh     change       -0.1791358E-04 Eh
 * total energy  :   -62.0192977 Eh     change       -0.9992944E-05 Eh
 * total energy  :   -62.0193068 Eh     change       -0.9068252E-05 Eh
 * total energy  :   -62.0193138 Eh     change       -0.7031856E-05 Eh
 * total energy  :   -62.0193210 Eh     change       -0.7227181E-05 Eh
 * total energy  :   -62.0193335 Eh     change       -0.1243443E-04 Eh
 * total energy  :   -62.0193373 Eh     change       -0.3807146E-05 Eh
   *** GEOMETRY OPTIMIZATION CONVERGED AFTER 48 ITERATIONS ***

 final structure:
================
42
 xtb: 6.7.1 (edcfbbe)
O            1.53972621864933        1.21442439747972        0.86814607845275
C            2.53424116488137        0.87908456282066        0.26616803590507
C            2.91409041747125        1.38226913324637       -1.05104165972206
C            4.07266127495983        0.98385537574964       -1.72653234957639
C            4.35717768057448        1.50577232211293       -2.97267077527589
C            3.50080139332936        2.42610675082965       -3.56142526941925
C            2.35053095141088        2.82889770236651       -2.90000084409588
C            2.05789311297510        2.31203405218262       -1.65455782439147
C            3.48884811725316       -0.14589462277617        0.93665841252901
N            2.90700867636743       -0.53910983882087        2.19082611354431
C            1.94514317974886       -1.49942300556177        2.31616087186893
C            1.44346887258082       -1.40997923957332        3.57449251319765
N            2.08763346001346       -0.38233424325142        4.19668713435611
C            2.96903337735057        0.15084483621099        3.34091134460575
C            3.87021382265279        1.26569055243898        3.65021258827548
C            5.18941559827122        1.12388386338770        3.50035612002902
C            3.23018946027972        2.50159088503305        4.13367751166519
C            1.98169146458572        2.88100211063185        3.63990460659613
C            1.38954136501249        4.05247782504082        4.07465485692442
C            2.02606538058995        4.85069535758744        5.01114660305561
C            3.26204525978261        4.47444827057990        5.51259324237294
C            3.86316472049936        3.30836654425318        5.07812199637927
C            1.84405702594176        0.05166956949482        5.54634713499121
H            4.75410556302660        0.27046979129367       -1.28951432588765
H            5.25137749335558        1.19539263348338       -3.49110632310887
H            3.73279809515150        2.82757242392992       -4.53573226012090
H            1.68461544584235        3.54435572160821       -3.35685712488869
H            1.16677981640999        2.61133279945250       -1.12395444345897
H            3.60289335170407       -1.02429422687041        0.30010297373895
H            4.45835894636930        0.32622365012381        1.10003085136452
H            1.69162666611307       -2.16416932471031        1.51632604438669
H            0.68693953478116       -1.99193051724512        4.05911089423067
H            5.86096723097481        1.93512743634861        3.71530453163875
H            5.64011210071043        0.19662735015988        3.18824735157595
H            1.48975304912438        2.28173447939320        2.88726743982228
H            0.42955821118982        4.34370309778027        3.67710467348710
H            1.56157199765794        5.76399791631227        5.34849216759997
H            3.75969942976415        5.09147863584101        6.24442870640268
H            4.81748633416479        3.01092822666728        5.48540762752431
H            2.76653787081315        0.41634822743119        5.99519938026927
H            1.10925981515943        0.85932956963209        5.55736400447731
H            1.46275705248746       -0.78379105209804        6.13027138867547

          :  Hamiltonian                  GFN2-xTB          :
         :: total energy             -62.019337276084 Eh    ::
         :: gradient norm              0.000619900142 Eh/a0 ::
         :: HOMO-LUMO gap              2.807041296006 eV    ::
         :: SCC energy               -63.086819922631 Eh    ::
         :: -> dispersion             -0.046695663177 Eh    ::
         :: repulsion energy           1.067482646547 Eh    ::

    * Orbital Energies and Occupations

         #    Occupation            Energy/Eh            Energy/eV
      -------------------------------------------------------------
         1        2.0000           -0.8705798             -23.6897
       ...           ...                  ...                  ...
        45        2.0000           -0.5809112             -15.8074
        46        2.0000           -0.5752342             -15.6529
        47        2.0000           -0.5683211             -15.4648
        48        2.0000           -0.5497132             -14.9585
        49        2.0000           -0.5467823             -14.8787
        50        2.0000           -0.5311521             -14.4534
        51        2.0000           -0.5297901             -14.4163
        52        2.0000           -0.5255115             -14.2999
        53        2.0000           -0.5216222             -14.1941
        54        2.0000           -0.5191453             -14.1267
        55        2.0000           -0.5180166             -14.0959
        56        2.0000           -0.5106918             -13.8966
        57        2.0000           -0.5051728             -13.7465 (HOMO)
        58                         -0.4020159             -10.9394 (LUMO)
        59                         -0.3993922             -10.8680
        60                         -0.3597965              -9.7906
        61                         -0.3484850              -9.4828
        62                         -0.3345705              -9.1041
        63                         -0.3282342              -8.9317
        64                         -0.3058788              -8.3234
        65                         -0.3001168              -8.1666
        66                         -0.1969287              -5.3587
        67                         -0.1948716              -5.3027
        68                         -0.1652163              -4.4958
       ...                                ...                  ...
       111                          0.5672724              15.4363
      -------------------------------------------------------------
                  HL-Gap            0.1031569 Eh            2.8070 eV

     #   Z          covCN         q      C6AA      α(0)
     1   8 O        0.857    -0.364    20.971     6.140
     2   6 C        2.823     0.227    23.233     7.898
     3   6 C        2.970    -0.019    28.471     8.752
     4   6 C        2.919    -0.027    28.685     8.783
     5   6 C        2.917    -0.020    28.498     8.754
     6   6 C        2.920    -0.008    28.215     8.711
     7   6 C        2.916    -0.018    28.467     8.749
     8   6 C        2.927    -0.009    28.254     8.717
     9   6 C        3.742    -0.044    21.441     6.606
    10   7 N        2.872     0.050    20.367     6.703
    11   6 C        3.052    -0.002    28.026     8.682
    12   6 C        3.050    -0.007    28.141     8.700
    13   7 N        2.870     0.055    20.285     6.689
    14   6 C        3.119     0.105    25.512     8.273
    15   6 C        2.949     0.005    27.922     8.667
    16   6 C        2.849    -0.088    30.210     9.008
    17   6 C        2.979     0.001    27.997     8.679
    18   6 C        2.923    -0.040    28.982     8.828
    19   6 C        2.918    -0.024    28.603     8.770
    20   6 C        2.920    -0.020    28.502     8.755
    21   6 C        2.919    -0.023    28.571     8.765
    22   6 C        2.923    -0.032    28.802     8.801
    23   6 C        3.692    -0.075    22.134     6.732
    24   1 H        0.926     0.040     2.444     2.445
    25   1 H        0.926     0.060     2.201     2.320
    26   1 H        0.926     0.066     2.133     2.284
    27   1 H        0.926     0.064     2.151     2.293
    28   1 H        0.926     0.072     2.059     2.244
    29   1 H        0.924     0.097     1.816     2.108
    30   1 H        0.924     0.095     1.831     2.116
    31   1 H        0.926     0.099     1.798     2.097
    32   1 H        0.926     0.101     1.773     2.082
    33   1 H        0.926     0.082     1.960     2.189
    34   1 H        0.926     0.056     2.249     2.345
    35   1 H        0.926     0.050     2.322     2.383
    36   1 H        0.926     0.052     2.295     2.369
    37   1 H        0.926     0.056     2.250     2.346
    38   1 H        0.926     0.055     2.264     2.353
    39   1 H        0.926     0.044     2.395     2.420
    40   1 H        0.925     0.092     1.857     2.131
    41   1 H        0.924     0.099     1.793     2.094
    42   1 H        0.925     0.098     1.799     2.097

Wiberg/Mayer (AO) data.
largest (>0.10) Wiberg bond orders for each atom

     #   Z sym  total        # sym  WBO       # sym  WBO       # sym  WBO
 ---------------------------------------------------------------------------
     1   8 O    2.081 --     2 C    1.804
     2   6 C    3.931 --     1 O    1.804     3 C    1.076     9 C    0.926
     3   6 C    3.984 --     4 C    1.355     8 C    1.352     2 C    1.076
     4   6 C    3.991 --     5 C    1.472     3 C    1.355    24 H    0.967
                             7 C    0.102
     5   6 C    3.990 --     4 C    1.472     6 C    1.418    25 H    0.968
     6   6 C    3.986 --     7 C    1.428     5 C    1.418    26 H    0.968
     7   6 C    3.989 --     8 C    1.463     6 C    1.428    27 H    0.967
                             4 C    0.102
     8   6 C    3.983 --     7 C    1.463     3 C    1.352    28 H    0.964
     9   6 C    3.948 --    10 N    0.990    29 H    0.952    30 H    0.948
                             2 C    0.926
    10   7 N    3.689 --    14 C    1.303    11 C    1.209     9 C    0.990
    11   6 C    3.949 --    12 C    1.603    10 N    1.209    31 H    0.962
    12   6 C    3.949 --    11 C    1.603    13 N    1.215    32 H    0.962
    13   7 N    3.701 --    14 C    1.320    12 C    1.215    23 C    0.992
    14   6 C    3.942 --    13 N    1.320    10 N    1.303    15 C    1.028
    15   6 C    3.975 --    16 C    1.829    17 C    1.038    14 C    1.028
    16   6 C    3.985 --    15 C    1.829    34 H    0.974    33 H    0.969
    17   6 C    3.984 --    18 C    1.381    22 C    1.379    15 C    1.038
                            20 C    0.102
    18   6 C    3.989 --    19 C    1.452    17 C    1.381    35 H    0.961
                            21 C    0.107
    19   6 C    3.991 --    18 C    1.452    20 C    1.434    36 H    0.969
                            22 C    0.107
    20   6 C    3.989 --    19 C    1.434    21 C    1.431    37 H    0.969
                            17 C    0.102
    21   6 C    3.990 --    22 C    1.455    20 C    1.431    38 H    0.968
                            18 C    0.107
    22   6 C    3.990 --    21 C    1.455    17 C    1.379    39 H    0.967
                            19 C    0.107
    23   6 C    3.940 --    13 N    0.992    42 H    0.973    40 H    0.972
                            41 H    0.959
    24   1 H    0.998 --     4 C    0.967
    25   1 H    0.996 --     5 C    0.968
    26   1 H    0.995 --     6 C    0.968
    27   1 H    0.995 --     7 C    0.967
    28   1 H    0.995 --     8 C    0.964
    29   1 H    0.990 --     9 C    0.952
    30   1 H    0.991 --     9 C    0.948
    31   1 H    0.990 --    11 C    0.962
    32   1 H    0.989 --    12 C    0.962
    33   1 H    0.992 --    16 C    0.969
    34   1 H    0.996 --    16 C    0.974
    35   1 H    0.997 --    18 C    0.961
    36   1 H    0.997 --    19 C    0.969
    37   1 H    0.996 --    20 C    0.969
    38   1 H    0.996 --    21 C    0.968
    39   1 H    0.998 --    22 C    0.967
    40   1 H    0.991 --    23 C    0.972
    41   1 H    0.990 --    23 C    0.959
    42   1 H    0.990 --    23 C    0.973
 ---------------------------------------------------------------------------

molecular dipole:
                 x           y           z       tot (Debye)
 q only:        5.682       0.848       4.715
   full:        5.847       0.658       4.628      19.027

           -------------------------------------------------
          | TOTAL ENERGY              -62.019337276084 Eh   |
          | GRADIENT NORM               0.000619900142 Eh/α |
          | HOMO-LUMO GAP               2.807041296006 eV   |
           -------------------------------------------------

 * finished run on 2024/12/20 at 07:15:32.783
