   * xtb version 6.7.1 (edcfbbe) compiled by 'conda@3ef47c1a292c' on 2024-11-25

   ID    Z sym.   atoms
    1    8 O      1, 3, 4
    2   16 S      2
    3    6 C      5-8, 10-12
    4    7 N      9
    5    1 H      13-30

          program call               : xtb C1226.xyz --opt --namespace C1226 --charge +1
          :  Hamiltonian                  GFN2-xTB          :
 * total energy  :   -42.1227393 Eh     change       -0.2604139E-10 Eh
 * total energy  :   -42.1305320 Eh     change       -0.7792705E-02 Eh
 * total energy  :   -42.1331232 Eh     change       -0.2591231E-02 Eh
 * total energy  :   -42.1335614 Eh     change       -0.4381987E-03 Eh
 * total energy  :   -42.1341473 Eh     change       -0.5858585E-03 Eh
 * total energy  :   -42.1343653 Eh     change       -0.2180400E-03 Eh
 * total energy  :   -42.1347063 Eh     change       -0.3409339E-03 Eh
 * total energy  :   -42.1350319 Eh     change       -0.3256700E-03 Eh
 * total energy  :   -42.1353875 Eh     change       -0.3555785E-03 Eh
 * total energy  :   -42.1358425 Eh     change       -0.4550217E-03 Eh
 * total energy  :   -42.1490357 Eh     change       -0.5548021E-04 Eh
 * total energy  :   -42.1490697 Eh     change       -0.3391852E-04 Eh
 * total energy  :   -42.1490849 Eh     change       -0.1521475E-04 Eh
 * total energy  :   -42.1491199 Eh     change       -0.3503087E-04 Eh
 * total energy  :   -42.1491368 Eh     change       -0.1688622E-04 Eh
 * total energy  :   -42.1491479 Eh     change       -0.1113141E-04 Eh
 * total energy  :   -42.1491554 Eh     change       -0.7428730E-05 Eh
 * total energy  :   -42.1491619 Eh     change       -0.6591604E-05 Eh
 * total energy  :   -42.1491660 Eh     change       -0.4039042E-05 Eh
   *** GEOMETRY OPTIMIZATION CONVERGED AFTER 152 ITERATIONS ***

 final structure:
================
30
 xtb: 6.7.1 (edcfbbe)
O            0.40064239569725       -0.17841425801310        0.87054202287172
S            0.57162992252117       -0.35522341461545       -0.75167173908878
O            1.96536901514127       -0.34568184919474       -1.01702041454524
O           -0.21166760704600       -1.49764810807764       -1.10774718425744
C           -0.18366986552074        1.20232849788943       -1.29912946352981
C           -1.55019058353557        1.08618577675741       -1.95588466241937
C           -2.52371356288745        0.08875038596977       -1.31367552349772
C           -2.69559945908091        0.30915957046916        0.18872139832742
N           -3.32459173832901       -0.83570276174565        0.91710066220885
C           -2.35355821137807       -1.93539632159173        1.07790143667697
C           -3.72521979666140       -0.36776087939855        2.25747322242468
C           -4.51801794162940       -1.33117559477153        0.20916157089029
H            1.27345221571599       -0.18022831138237        1.27017076869082
H           -0.19812644299268        1.82081478285157       -0.40727859355940
H            0.54400179745973        1.61440483089762       -1.99119839827151
H           -1.99811150582840        2.08329365140324       -1.96816729991972
H           -1.42048473495027        0.77579294826609       -2.99316030795362
H           -3.47992935502315        0.19650678294375       -1.82732285017289
H           -2.13135845039231       -0.90639920934314       -1.50660795183000
H           -1.71820867506201        0.46465000975348        0.64565174693653
H           -3.31224727489844        1.19539985462253        0.35816418752749
H           -1.53503860575426       -1.61446082675240        1.71927671096017
H           -2.84071840477667       -2.79926866130824        1.52464954518866
H           -1.91875908688656       -2.22114133684056        0.12153529695495
H           -4.50972555414669        0.38353186629577        2.18060381092220
H           -4.10059611073631       -1.20156722512033        2.84843743082421
H           -2.87118716644546        0.06650859183755        2.77424285640575
H           -5.19573899282520       -0.50775400934041       -0.00926363700462
H           -4.23334739300036       -1.81683980485988       -0.72070590411946
H           -5.04175882672282       -2.05628497761821        0.82998126236812

          :  Hamiltonian                  GFN2-xTB          :
         :: total energy             -42.149165983234 Eh    ::
         :: gradient norm              0.000368245078 Eh/a0 ::
         :: HOMO-LUMO gap              7.554489064119 eV    ::
         :: SCC energy               -42.594060208818 Eh    ::
         :: -> dispersion             -0.026081885288 Eh    ::
         :: repulsion energy           0.444894225584 Eh    ::

    * Orbital Energies and Occupations

         #    Occupation            Energy/Eh            Energy/eV
      -------------------------------------------------------------
         1        2.0000           -0.9110168             -24.7900
       ...           ...                  ...                  ...
        25        2.0000           -0.6402656             -17.4225
        26        2.0000           -0.6365834             -17.3223
        27        2.0000           -0.6340177             -17.2525
        28        2.0000           -0.6287986             -17.1105
        29        2.0000           -0.6218181             -16.9205
        30        2.0000           -0.6165185             -16.7763
        31        2.0000           -0.6049819             -16.4624
        32        2.0000           -0.5936864             -16.1550
        33        2.0000           -0.5856131             -15.9353
        34        2.0000           -0.5811692             -15.8144
        35        2.0000           -0.5760951             -15.6763
        36        2.0000           -0.5621830             -15.2978
        37        2.0000           -0.5478145             -14.9068 (HOMO)
        38                         -0.2701922              -7.3523 (LUMO)
        39                         -0.2283835              -6.2146
        40                         -0.2248890              -6.1195
        41                         -0.1664920              -4.5305
        42                         -0.1629524              -4.4342
        43                         -0.1575599              -4.2874
        44                         -0.1435909              -3.9073
        45                         -0.1364882              -3.7140
        46                         -0.0791816              -2.1546
        47                         -0.0444784              -1.2103
        48                         -0.0390551              -1.0627
       ...                                ...                  ...
        71                          1.1594018              31.5489
      -------------------------------------------------------------
                  HL-Gap            0.2776224 Eh            7.5545 eV

     #   Z          covCN         q      C6AA      α(0)
     1   8 O        1.662    -0.577    24.607     6.697
     2  16 S        3.578     1.328    97.753    16.641
     3   8 O        0.860    -0.579    25.612     6.785
     4   8 O        0.860    -0.592    25.912     6.825
     5   6 C        3.796    -0.180    24.019     6.979
     6   6 C        3.816    -0.074    21.892     6.659
     7   6 C        3.800    -0.097    22.358     6.732
     8   6 C        3.762    -0.054    21.596     6.624
     9   7 N        3.622     0.149    18.718     6.426
    10   6 C        3.723    -0.114    22.802     6.819
    11   6 C        3.730    -0.101    22.533     6.776
    12   6 C        3.720    -0.103    22.585     6.788
    13   1 H        0.820     0.357     0.569     1.184
    14   1 H        0.926     0.085     1.927     2.171
    15   1 H        0.926     0.103     1.756     2.072
    16   1 H        0.924     0.079     1.991     2.207
    17   1 H        0.924     0.081     1.969     2.194
    18   1 H        0.924     0.072     2.062     2.245
    19   1 H        0.925     0.094     1.836     2.119
    20   1 H        0.925     0.098     1.800     2.098
    21   1 H        0.924     0.087     1.910     2.161
    22   1 H        0.925     0.104     1.750     2.069
    23   1 H        0.925     0.098     1.799     2.097
    24   1 H        0.925     0.126     1.567     1.958
    25   1 H        0.925     0.098     1.800     2.098
    26   1 H        0.925     0.103     1.758     2.073
    27   1 H        0.925     0.100     1.788     2.091
    28   1 H        0.925     0.098     1.801     2.098
    29   1 H        0.925     0.108     1.713     2.047
    30   1 H        0.925     0.102     1.771     2.081

Wiberg/Mayer (AO) data.
largest (>0.10) Wiberg bond orders for each atom

     #   Z sym  total        # sym  WBO       # sym  WBO       # sym  WBO
 ---------------------------------------------------------------------------
     1   8 O    1.992 --     2 S    0.917    13 H    0.852
     2  16 S    4.853 --     3 O    1.609     4 O    1.562     1 O    0.917
                             5 C    0.726
     3   8 O    1.918 --     2 S    1.609     4 O    0.115     5 C    0.102
     4   8 O    1.898 --     2 S    1.562     3 O    0.115     5 C    0.112
     5   6 C    3.972 --     6 C    1.016    14 H    0.969    15 H    0.967
                             2 S    0.726     4 O    0.112     3 O    0.102
     6   6 C    3.986 --     5 C    1.016     7 C    1.000    17 H    0.972
                            16 H    0.966
     7   6 C    3.982 --     8 C    1.008     6 C    1.000    18 H    0.973
                            19 H    0.954
     8   6 C    3.931 --     7 C    1.008    21 H    0.968    20 H    0.958
                             9 N    0.928
     9   7 N    3.818 --    11 C    0.959    12 C    0.958    10 C    0.953
                             8 C    0.928
    10   6 C    3.914 --    23 H    0.975    22 H    0.972    24 H    0.959
                             9 N    0.953
    11   6 C    3.928 --    27 H    0.975    25 H    0.975    26 H    0.974
                             9 N    0.959
    12   6 C    3.926 --    28 H    0.976    30 H    0.974    29 H    0.972
                             9 N    0.958
    13   1 H    0.872 --     1 O    0.852
    14   1 H    0.993 --     5 C    0.969
    15   1 H    0.989 --     5 C    0.967
    16   1 H    0.994 --     6 C    0.966
    17   1 H    0.993 --     6 C    0.972
    18   1 H    0.995 --     7 C    0.973
    19   1 H    0.991 --     7 C    0.954
    20   1 H    0.990 --     8 C    0.958
    21   1 H    0.992 --     8 C    0.968
    22   1 H    0.989 --    10 C    0.972
    23   1 H    0.990 --    10 C    0.975
    24   1 H    0.984 --    10 C    0.959
    25   1 H    0.990 --    11 C    0.975
    26   1 H    0.989 --    11 C    0.974
    27   1 H    0.990 --    11 C    0.975
    28   1 H    0.990 --    12 C    0.976
    29   1 H    0.988 --    12 C    0.972
    30   1 H    0.990 --    12 C    0.974
 ---------------------------------------------------------------------------

molecular dipole:
                 x           y           z       tot (Debye)
 q only:       -6.296      -0.055       1.462
   full:       -6.053       0.124       1.660      15.957

           -------------------------------------------------
          | TOTAL ENERGY              -42.149165983234 Eh   |
          | GRADIENT NORM               0.000368245078 Eh/α |
          | HOMO-LUMO GAP               7.554489064119 eV   |
           -------------------------------------------------

 * finished run on 2024/12/20 at 07:15:34.983
