   * xtb version 6.7.1 (edcfbbe) compiled by 'conda@3ef47c1a292c' on 2024-11-25

   ID    Z sym.   atoms
    1    6 C      1, 3-13, 15-25
    2    7 N      2
    3    8 O      14
    4    1 H      26-53

          program call               : xtb C1221.xyz --opt --namespace C1221 --charge +1
          :  Hamiltonian                  GFN2-xTB          :
 * total energy  :   -70.0843096 Eh     change       -0.4938414E-09 Eh
 * total energy  :   -70.0945544 Eh     change       -0.1024480E-01 Eh
 * total energy  :   -70.0975563 Eh     change       -0.3001853E-02 Eh
 * total energy  :   -70.0981685 Eh     change       -0.6122339E-03 Eh
 * total energy  :   -70.0986759 Eh     change       -0.5073643E-03 Eh
 * total energy  :   -70.0989428 Eh     change       -0.2668977E-03 Eh
 * total energy  :   -70.0992659 Eh     change       -0.3231072E-03 Eh
 * total energy  :   -70.0996023 Eh     change       -0.3364036E-03 Eh
 * total energy  :   -70.0999693 Eh     change       -0.3670086E-03 Eh
 * total energy  :   -70.1004260 Eh     change       -0.4566660E-03 Eh
 * total energy  :   -70.1232031 Eh     change       -0.7949055E-05 Eh
 * total energy  :   -70.1232110 Eh     change       -0.7836414E-05 Eh
 * total energy  :   -70.1232187 Eh     change       -0.7693914E-05 Eh
 * total energy  :   -70.1232261 Eh     change       -0.7491923E-05 Eh
 * total energy  :   -70.1232333 Eh     change       -0.7181364E-05 Eh
 * total energy  :   -70.1232401 Eh     change       -0.6755385E-05 Eh
 * total energy  :   -70.1232463 Eh     change       -0.6231149E-05 Eh
 * total energy  :   -70.1232520 Eh     change       -0.5708387E-05 Eh
 * total energy  :   -70.1232561 Eh     change       -0.4093502E-05 Eh
   *** GEOMETRY OPTIMIZATION CONVERGED AFTER 152 ITERATIONS ***

 final structure:
================
53
 xtb: 6.7.1 (edcfbbe)
C            1.14218507127383        0.52609990524638        0.02232787031441
N            1.32358717522153       -0.55596287754299       -0.95988807666098
C            1.44740805760743       -1.87321998759267       -0.23888193655611
C            0.26189655258353       -2.22774293016683        0.62256242648433
C           -0.77435888690351       -3.00530702247540        0.11242266333620
C           -1.85023882309393       -3.35236569732223        0.90945478469465
C           -1.89979379738260       -2.93483410162858        2.22824840139189
C           -0.87007839521279       -2.16993671747246        2.74786682613296
C            0.20590554004873       -1.82049870504556        1.95175897158322
C            0.15796195121263       -0.63502803290700       -1.88610176493196
C           -0.28341764643301        0.67522254935738       -2.53192433287827
C           -1.41911645342010        0.42876604887049       -3.53480800708948
C           -2.56832377533285       -0.40805236002173       -2.95669625303700
O           -2.73158285000718       -0.07475759987332       -1.59465571429683
C           -3.64195953977289       -0.77974047173431       -0.84880464535222
C           -4.50368439659882       -1.72045605087141       -1.35080574981588
C           -5.38361135606678       -2.40097025466443       -0.49396131824691
C           -5.39535040342262       -2.14893387549299        0.84665854249897
C           -4.52015997882895       -1.18907591253281        1.39778388636254
C           -3.62788129272414       -0.49160928162605        0.54581217586642
C           -2.75711933203164        0.46500972464925        1.10312120223485
C           -2.75697541573184        0.71454572796528        2.44730103275544
C           -3.63821413054492        0.02549577383803        3.29277006913793
C           -4.50250865995200       -0.89966638503180        2.77804646529207
C            2.56796624020590       -0.32318625453697       -1.71271428966585
H            0.18501941581162        0.40993496885697        0.52861711114946
H            1.17572934294705        1.49332198882927       -0.47295681118045
H            1.94094388794384        0.48965496367794        0.76090370290757
H            1.59326796981766       -2.64661971946403       -0.99618700368652
H            2.34609948347199       -1.82128856295252        0.37960451834820
H           -0.73038746515702       -3.36687703243638       -0.90528871407470
H           -2.64672067561558       -3.95458673102667        0.50215582635435
H           -2.73253471870323       -3.21486944538752        2.85221704499895
H           -0.89777158894405       -1.85217246161938        3.77789902522970
H            1.01591728066499       -1.24776157663325        2.37911611254621
H            0.40489952402903       -1.36013642288653       -2.66505665253336
H           -0.68143895835980       -1.01084037898551       -1.29955113349552
H           -0.66431889596778        1.35554077483323       -1.77218192295973
H            0.53432048498950        1.16120300387737       -3.06540951646400
H           -1.80147003903190        1.40176012797061       -3.84166755067974
H           -1.04182366857327       -0.07822575665287       -4.42344468075645
H           -3.48607882615709       -0.20291723640706       -3.51998495085738
H           -2.34457773271332       -1.48080566537721       -3.04976487481446
H           -4.53504111801501       -1.94677451413987       -2.40458330107366
H           -6.05546523257644       -3.13030372498895       -0.91994583260122
H           -6.07454112735017       -2.67385583306874        1.50071510129022
H           -2.11007981223229        1.01856055266127        0.43873890001283
H           -2.09004581129677        1.45440588181863        2.86532503675852
H           -3.63558938008319        0.24089737592924        4.35048410516155
H           -5.19347869742854       -1.42290748355480        3.42259884782160
H            2.50772293865855        0.61505805985441       -2.25963099830419
H            3.41605263744009       -0.27230722139576       -1.03199229526689
H            2.73830532773366       -1.13140314274336       -2.42185232329719

          :  Hamiltonian                  GFN2-xTB          :
         :: total energy             -70.123256112114 Eh    ::
         :: gradient norm              0.000176312423 Eh/a0 ::
         :: HOMO-LUMO gap              2.772960621805 eV    ::
         :: SCC energy               -71.284760059861 Eh    ::
         :: -> dispersion             -0.064058102673 Eh    ::
         :: repulsion energy           1.161503947747 Eh    ::

    * Orbital Energies and Occupations

         #    Occupation            Energy/Eh            Energy/eV
      -------------------------------------------------------------
         1        2.0000           -0.8532884             -23.2192
       ...           ...                  ...                  ...
        53        2.0000           -0.5480724             -14.9138
        54        2.0000           -0.5434711             -14.7886
        55        2.0000           -0.5407540             -14.7147
        56        2.0000           -0.5390701             -14.6688
        57        2.0000           -0.5303081             -14.4304
        58        2.0000           -0.5291940             -14.4001
        59        2.0000           -0.5238766             -14.2554
        60        2.0000           -0.5229771             -14.2309
        61        2.0000           -0.5037673             -13.7082
        62        2.0000           -0.5004820             -13.6188
        63        2.0000           -0.4987136             -13.5707
        64        2.0000           -0.4855060             -13.2113
        65        2.0000           -0.4550277             -12.3819 (HOMO)
        66                         -0.3531233              -9.6090 (LUMO)
        67                         -0.3417979              -9.3008
        68                         -0.3400501              -9.2532
        69                         -0.3136492              -8.5348
        70                         -0.2711739              -7.3790
        71                         -0.2313288              -6.2948
        72                         -0.2274701              -6.1898
        73                         -0.2007828              -5.4636
        74                         -0.1476896              -4.0188
        75                         -0.1408635              -3.8331
        76                         -0.1402963              -3.8177
       ...                                ...                  ...
       128                          0.6132757              16.6881
      -------------------------------------------------------------
                  HL-Gap            0.1019044 Eh            2.7730 eV

     #   Z          covCN         q      C6AA      α(0)
     1   6 C        3.717    -0.092    22.381     6.758
     2   7 N        3.621     0.128    19.059     6.484
     3   6 C        3.769    -0.041    21.340     6.583
     4   6 C        2.967    -0.007    28.190     8.709
     5   6 C        2.923    -0.037    28.920     8.819
     6   6 C        2.919    -0.020    28.513     8.756
     7   6 C        2.921    -0.016    28.407     8.740
     8   6 C        2.919    -0.021    28.519     8.757
     9   6 C        2.923    -0.038    28.934     8.821
    10   6 C        3.762    -0.042    21.376     6.591
    11   6 C        3.800    -0.066    21.775     6.644
    12   6 C        3.801    -0.070    21.838     6.653
    13   6 C        3.690     0.078    19.463     6.314
    14   8 O        1.705    -0.288    18.786     5.852
    15   6 C        2.860     0.127    25.204     8.229
    16   6 C        2.913    -0.071    29.773     8.948
    17   6 C        2.917    -0.030    28.757     8.794
    18   6 C        2.917    -0.045    29.124     8.850
    19   6 C        2.987     0.013    27.713     8.635
    20   6 C        2.987    -0.009    28.234     8.716
    21   6 C        2.918    -0.038    28.946     8.823
    22   6 C        2.916    -0.034    28.856     8.809
    23   6 C        2.916    -0.029    28.722     8.788
    24   6 C        2.920    -0.033    28.817     8.803
    25   6 C        3.720    -0.091    22.364     6.754
    26   1 H        0.925     0.106     1.730     2.057
    27   1 H        0.925     0.096     1.819     2.109
    28   1 H        0.925     0.092     1.861     2.133
    29   1 H        0.924     0.081     1.967     2.193
    30   1 H        0.924     0.083     1.948     2.182
    31   1 H        0.926     0.038     2.480     2.462
    32   1 H        0.926     0.056     2.251     2.346
    33   1 H        0.926     0.060     2.200     2.319
    34   1 H        0.926     0.058     2.225     2.333
    35   1 H        0.926     0.041     2.431     2.438
    36   1 H        0.924     0.076     2.019     2.222
    37   1 H        0.924     0.108     1.716     2.049
    38   1 H        0.925     0.072     2.068     2.249
    39   1 H        0.924     0.051     2.307     2.375
    40   1 H        0.925     0.071     2.077     2.254
    41   1 H        0.924     0.053     2.280     2.361
    42   1 H        0.924     0.049     2.329     2.387
    43   1 H        0.923     0.026     2.642     2.542
    44   1 H        0.926     0.036     2.507     2.476
    45   1 H        0.926     0.046     2.373     2.409
    46   1 H        0.926     0.046     2.373     2.409
    47   1 H        0.926     0.025     2.656     2.549
    48   1 H        0.926     0.031     2.566     2.505
    49   1 H        0.926     0.042     2.416     2.430
    50   1 H        0.926     0.045     2.383     2.414
    51   1 H        0.925     0.098     1.807     2.102
    52   1 H        0.925     0.094     1.842     2.122
    53   1 H        0.925     0.093     1.848     2.126

Wiberg/Mayer (AO) data.
largest (>0.10) Wiberg bond orders for each atom

     #   Z sym  total        # sym  WBO       # sym  WBO       # sym  WBO
 ---------------------------------------------------------------------------
     1   6 C    3.928 --    28 H    0.975    27 H    0.973    26 H    0.967
                             2 N    0.960
     2   7 N    3.808 --    25 C    0.963     1 C    0.960    10 C    0.926
                             3 C    0.910
     3   6 C    3.930 --     4 C    1.006    29 H    0.966    30 H    0.965
                             2 N    0.910
     4   6 C    3.978 --     9 C    1.408     5 C    1.404     3 C    1.006
                             7 C    0.109
     5   6 C    3.991 --     6 C    1.445     4 C    1.404    31 H    0.967
                             8 C    0.108
     6   6 C    3.990 --     5 C    1.445     7 C    1.436    32 H    0.969
                             9 C    0.109
     7   6 C    3.988 --     8 C    1.437     6 C    1.436    33 H    0.968
                             4 C    0.109
     8   6 C    3.990 --     9 C    1.444     7 C    1.437    34 H    0.969
                             5 C    0.108
     9   6 C    3.991 --     8 C    1.444     4 C    1.408    35 H    0.968
                             6 C    0.109
    10   6 C    3.924 --    11 C    1.007    36 H    0.968    37 H    0.950
                             2 N    0.926
    11   6 C    3.989 --    10 C    1.007    12 C    1.000    39 H    0.972
                            38 H    0.971
    12   6 C    3.991 --    11 C    1.000    13 C    0.999    41 H    0.977
                            40 H    0.975
    13   6 C    3.951 --    12 C    0.999    14 O    0.975    43 H    0.968
                            42 H    0.967
    14   8 O    2.212 --    15 C    1.036    13 C    0.975
    15   6 C    3.928 --    16 C    1.489    20 C    1.212    14 O    1.036
                            18 C    0.102
    16   6 C    3.987 --    15 C    1.489    17 C    1.317    44 H    0.966
    17   6 C    3.991 --    18 C    1.561    16 C    1.317    45 H    0.970
    18   6 C    3.991 --    17 C    1.561    19 C    1.269    46 H    0.967
                            15 C    0.102
    19   6 C    3.990 --    24 C    1.282    18 C    1.269    20 C    1.260
    20   6 C    3.988 --    21 C    1.293    19 C    1.260    15 C    1.212
    21   6 C    3.992 --    22 C    1.547    20 C    1.293    47 H    0.965
                            24 C    0.117
    22   6 C    3.992 --    21 C    1.547    23 C    1.326    48 H    0.971
    23   6 C    3.991 --    24 C    1.553    22 C    1.326    49 H    0.970
    24   6 C    3.990 --    23 C    1.553    19 C    1.282    50 H    0.968
                            21 C    0.117
    25   6 C    3.933 --    53 H    0.976    52 H    0.975    51 H    0.971
                             2 N    0.963
    26   1 H    0.989 --     1 C    0.967
    27   1 H    0.991 --     1 C    0.973
    28   1 H    0.991 --     1 C    0.975
    29   1 H    0.993 --     3 C    0.966
    30   1 H    0.992 --     3 C    0.965
    31   1 H    0.999 --     5 C    0.967
    32   1 H    0.997 --     6 C    0.969
    33   1 H    0.996 --     7 C    0.968
    34   1 H    0.996 --     8 C    0.969
    35   1 H    0.998 --     9 C    0.968
    36   1 H    0.994 --    10 C    0.968
    37   1 H    0.988 --    10 C    0.950
    38   1 H    0.995 --    11 C    0.971
    39   1 H    0.997 --    11 C    0.972
    40   1 H    0.995 --    12 C    0.975
    41   1 H    0.997 --    12 C    0.977
    42   1 H    0.997 --    13 C    0.967
    43   1 H    0.999 --    13 C    0.968
    44   1 H    0.998 --    16 C    0.966
    45   1 H    0.997 --    17 C    0.970
    46   1 H    0.997 --    18 C    0.967
    47   1 H    0.999 --    21 C    0.965
    48   1 H    0.999 --    22 C    0.971
    49   1 H    0.997 --    23 C    0.970
    50   1 H    0.998 --    24 C    0.968
    51   1 H    0.990 --    25 C    0.971
    52   1 H    0.991 --    25 C    0.975
    53   1 H    0.991 --    25 C    0.976
 ---------------------------------------------------------------------------

molecular dipole:
                 x           y           z       tot (Debye)
 q only:        1.263      -1.473      -1.504
   full:        1.264      -1.556      -1.700       6.680

           -------------------------------------------------
          | TOTAL ENERGY              -70.123256112114 Eh   |
          | GRADIENT NORM               0.000176312423 Eh/α |
          | HOMO-LUMO GAP               2.772960621805 eV   |
           -------------------------------------------------

 * finished run on 2024/12/20 at 07:15:28.828
