   * xtb version 6.7.1 (edcfbbe) compiled by 'conda@3ef47c1a292c' on 2024-11-25

   ID    Z sym.   atoms
    1    6 C      1-14, 16-21
    2    7 N      15
    3    1 H      22-57

          program call               : xtb C1229.xyz --opt --namespace C1229 --charge +1
          :  Hamiltonian                  GFN2-xTB          :
 * total energy  :   -63.7383534 Eh     change       -0.5422208E-08 Eh
 * total energy  :   -63.7414920 Eh     change       -0.3138555E-02 Eh
 * total energy  :   -63.7419887 Eh     change       -0.4967480E-03 Eh
 * total energy  :   -63.7420710 Eh     change       -0.8225878E-04 Eh
 * total energy  :   -63.7421673 Eh     change       -0.9630649E-04 Eh
 * total energy  :   -63.7422468 Eh     change       -0.7948447E-04 Eh
 * total energy  :   -63.7423346 Eh     change       -0.8779921E-04 Eh
 * total energy  :   -63.7424268 Eh     change       -0.9221164E-04 Eh
 * total energy  :   -63.7424781 Eh     change       -0.5126481E-04 Eh
 * total energy  :   -63.7425029 Eh     change       -0.2489147E-04 Eh
 * total energy  :   -63.7426322 Eh     change       -0.3207731E-04 Eh
 * total energy  :   -63.7426680 Eh     change       -0.3578138E-04 Eh
 * total energy  :   -63.7426882 Eh     change       -0.2022133E-04 Eh
 * total energy  :   -63.7426916 Eh     change       -0.3332150E-05 Eh
 * total energy  :   -63.7427018 Eh     change       -0.1023691E-04 Eh
 * total energy  :   -63.7427095 Eh     change       -0.7748141E-05 Eh
 * total energy  :   -63.7427161 Eh     change       -0.6539732E-05 Eh
 * total energy  :   -63.7427273 Eh     change       -0.1121811E-04 Eh
 * total energy  :   -63.7427300 Eh     change       -0.2701198E-05 Eh
   *** GEOMETRY OPTIMIZATION CONVERGED AFTER 22 ITERATIONS ***

 final structure:
================
57
 xtb: 6.7.1 (edcfbbe)
C            1.15667565734141        0.59994752513626        0.14048782674697
C            1.01266320630795        0.38395212109007       -1.36120472974654
C            1.33239341486606       -1.04629847299771       -1.79814698033334
C            0.41116281796812       -2.12048426711394       -1.21625297323454
C           -1.07205116645719       -1.95305397531259       -1.55168298432373
C           -1.39968901614172       -1.93332465650157       -3.04599539257046
C           -0.95500405073780       -3.17481366636560       -3.82182553117015
C           -1.51092528906724       -4.49916978917307       -3.29519122642024
C           -3.03759442123111       -4.59343834413785       -3.26683063333634
C           -3.72018055940394       -4.42397265503955       -4.62549985086759
C           -3.27295112576621       -5.41634592532961       -5.70197776212891
C           -3.41593366577712       -6.89181399994904       -5.31886701802092
C           -4.83431452864828       -7.32882149619769       -4.95508079337496
C           -5.82208001347359       -7.28463097055062       -6.13029786399520
N           -5.46447035002153       -8.27167036155628       -7.13245815435840
C           -4.70071950892118       -7.92605661162679       -8.17147576177671
C           -4.28579745112150       -8.87365822376873       -9.08786697904606
C           -4.66403973009092      -10.19409700500108       -8.92035013765936
C           -5.46282199870276      -10.55245358883217       -7.82960176431450
C           -5.83727602392227       -9.54456772219489       -6.95561035385426
C           -5.90339259057063      -11.95711741048325       -7.62149973963297
H            0.41320418669036        0.03097595998953        0.69293239505254
H            1.02510034200335        1.65171352537107        0.38370915778683
H            2.14496113036241        0.29280789582447        0.47579699645767
H            0.00118367723578        0.65119997149763       -1.67228756569318
H            1.69929068807450        1.05693280737229       -1.88064068813688
H            1.30103583361229       -1.09410392114037       -2.88884419893168
H            2.35586941602363       -1.28075976219786       -1.49430452927985
H            0.75531733699820       -3.09410790770035       -1.57270550917474
H            0.51399754232515       -2.12674221860571       -0.12957285533168
H           -1.62450565946655       -2.76327917340931       -1.06991859622316
H           -1.43437910121573       -1.02085022788179       -1.11461231872508
H           -2.47864201160016       -1.80168817010245       -3.15822438674601
H           -0.92567776465691       -1.06310549063759       -3.50349931459589
H           -1.24474372366827       -3.04702604819187       -4.86779701067181
H            0.13441630420290       -3.23635758541628       -3.80081917128894
H           -1.10441715350325       -5.30916976464657       -3.90609505594524
H           -1.14687290695185       -4.65742426694267       -2.27901212402157
H           -3.31536245259060       -5.55748058833979       -2.83327281869774
H           -3.42779535402551       -3.82393468671231       -2.59964504093373
H           -4.80140240089826       -4.49718403005055       -4.48151833856920
H           -3.52134917813070       -3.41856561733166       -4.99849434874628
H           -3.83607879296736       -5.20250331286254       -6.61507647095490
H           -2.22263881405014       -5.23605975467489       -5.93284387780204
H           -3.03419436727565       -7.51124187286864       -6.13710673480449
H           -2.77988534245672       -7.08743653511497       -4.45590601901486
H           -4.80515810448441       -8.34467292320388       -4.55453747294869
H           -5.22411612705221       -6.67769168567158       -4.17412367065076
H           -6.82984511510380       -7.49831824346306       -5.76934401341245
H           -5.81515747910516       -6.29349585924569       -6.58396536889253
H           -4.42998544662028       -6.88618220210555       -8.26985387060717
H           -3.67094125672946       -8.57388417974613       -9.92099819182473
H           -4.34926397489986      -10.94763291023895       -9.62564412261939
H           -6.45290257397639       -9.75847761100995       -6.09380785577203
H           -6.64708441727167      -12.22526258139596       -8.37167043015518
H           -5.06554483762880      -12.64058831787064       -7.74060417007432
H           -6.34181570762406      -12.09856321536951       -6.63832360464139

          :  Hamiltonian                  GFN2-xTB          :
         :: total energy             -63.742729996319 Eh    ::
         :: gradient norm              0.000229227665 Eh/a0 ::
         :: HOMO-LUMO gap              0.342959898300 eV    ::
         :: SCC energy               -64.743462349576 Eh    ::
         :: -> dispersion             -0.048478874530 Eh    ::
         :: repulsion energy           1.000732353257 Eh    ::

    * Orbital Energies and Occupations

         #    Occupation            Energy/Eh            Energy/eV
      -------------------------------------------------------------
         1        2.0000           -0.8697318             -23.6666
       ...           ...                  ...                  ...
        48        2.0000           -0.5283308             -14.3766
        49        2.0000           -0.5232127             -14.2373
        50        2.0000           -0.5170717             -14.0702
        51        2.0000           -0.5121270             -13.9357
        52        2.0000           -0.5044500             -13.7268
        53        2.0000           -0.5003916             -13.6163
        54        2.0000           -0.4947446             -13.4627
        55        2.0000           -0.4851200             -13.2008
        56        2.0000           -0.4825289             -13.1303
        57        2.0000           -0.4786279             -13.0241
        58        2.0000           -0.4666787             -12.6990
        59        1.9997           -0.4622178             -12.5776
        60        1.9975           -0.4603365             -12.5264 (HOMO)
        61        0.0028           -0.4477329             -12.1834 (LUMO)
        62                         -0.4145285             -11.2799
        63                         -0.2978961              -8.1062
        64                         -0.1619787              -4.4077
        65                         -0.0773386              -2.1045
        66                         -0.0608896              -1.6569
        67                         -0.0418173              -1.1379
        68                         -0.0366159              -0.9964
        69                         -0.0316216              -0.8605
        70                         -0.0106602              -0.2901
        71                         -0.0080229              -0.2183
       ...                                ...                  ...
       120                          0.4483579              12.2004
      -------------------------------------------------------------
                  HL-Gap            0.0126035 Eh            0.3430 eV

     #   Z          covCN         q      C6AA      α(0)
     1   6 C        3.751    -0.102    22.513     6.766
     2   6 C        3.799    -0.052    21.513     6.604
     3   6 C        3.800    -0.057    21.603     6.618
     4   6 C        3.800    -0.057    21.602     6.617
     5   6 C        3.800    -0.057    21.599     6.617
     6   6 C        3.800    -0.057    21.605     6.618
     7   6 C        3.800    -0.057    21.604     6.618
     8   6 C        3.800    -0.058    21.623     6.621
     9   6 C        3.800    -0.060    21.659     6.626
    10   6 C        3.800    -0.061    21.677     6.629
    11   6 C        3.800    -0.061    21.671     6.628
    12   6 C        3.800    -0.065    21.753     6.641
    13   6 C        3.801    -0.068    21.810     6.649
    14   6 C        3.760    -0.034    21.233     6.569
    15   7 N        2.749     0.109    19.371     6.537
    16   6 C        2.892     0.027    27.392     8.581
    17   6 C        2.913    -0.015    28.396     8.738
    18   6 C        2.930    -0.004    28.114     8.696
    19   6 C        2.961     0.048    26.911     8.509
    20   6 C        2.900     0.016    27.644     8.621
    21   6 C        3.759    -0.133    23.107     6.853
    22   1 H        0.925     0.034     2.530     2.487
    23   1 H        0.925     0.033     2.541     2.493
    24   1 H        0.925     0.035     2.519     2.482
    25   1 H        0.924     0.030     2.583     2.513
    26   1 H        0.924     0.028     2.609     2.526
    27   1 H        0.924     0.027     2.627     2.535
    28   1 H        0.924     0.030     2.585     2.514
    29   1 H        0.924     0.026     2.642     2.542
    30   1 H        0.924     0.034     2.532     2.489
    31   1 H        0.924     0.025     2.652     2.547
    32   1 H        0.924     0.035     2.522     2.483
    33   1 H        0.924     0.025     2.659     2.550
    34   1 H        0.924     0.035     2.512     2.479
    35   1 H        0.924     0.023     2.682     2.561
    36   1 H        0.924     0.036     2.502     2.473
    37   1 H        0.924     0.022     2.698     2.569
    38   1 H        0.924     0.039     2.458     2.452
    39   1 H        0.924     0.023     2.684     2.562
    40   1 H        0.924     0.043     2.403     2.424
    41   1 H        0.924     0.024     2.680     2.560
    42   1 H        0.924     0.047     2.361     2.403
    43   1 H        0.924     0.016     2.791     2.612
    44   1 H        0.924     0.051     2.312     2.378
    45   1 H        0.924     0.021     2.712     2.575
    46   1 H        0.925     0.066     2.135     2.285
    47   1 H        0.924     0.049     2.332     2.388
    48   1 H        0.925     0.083     1.944     2.180
    49   1 H        0.924     0.086     1.920     2.167
    50   1 H        0.925     0.094     1.841     2.122
    51   1 H        0.926     0.106     1.729     2.056
    52   1 H        0.926     0.102     1.768     2.079
    53   1 H        0.926     0.099     1.790     2.092
    54   1 H        0.926     0.101     1.777     2.085
    55   1 H        0.925     0.098     1.808     2.102
    56   1 H        0.925     0.093     1.851     2.127
    57   1 H        0.925     0.078     2.003     2.213

Wiberg/Mayer (AO) data.
largest (>0.10) Wiberg bond orders for each atom

     #   Z sym  total        # sym  WBO       # sym  WBO       # sym  WBO
 ---------------------------------------------------------------------------
     1   6 C    3.997 --     2 C    1.020    24 H    0.987    23 H    0.987
                            22 H    0.986
     2   6 C    3.997 --     1 C    1.020     3 C    1.008    26 H    0.978
                            25 H    0.976
     3   6 C    3.997 --     2 C    1.008     4 C    1.007    28 H    0.977
                            27 H    0.975
     4   6 C    3.997 --     5 C    1.008     3 C    1.007    29 H    0.975
                            30 H    0.975
     5   6 C    3.997 --     4 C    1.008     6 C    1.008    31 H    0.975
                            32 H    0.974
     6   6 C    3.997 --     5 C    1.008     7 C    1.007    33 H    0.976
                            34 H    0.975
     7   6 C    3.997 --     8 C    1.008     6 C    1.007    35 H    0.975
                            36 H    0.974
     8   6 C    3.997 --     7 C    1.008     9 C    1.008    37 H    0.975
                            38 H    0.974
     9   6 C    3.996 --     8 C    1.008    10 C    1.007    39 H    0.975
                            40 H    0.973
    10   6 C    3.995 --     9 C    1.007    11 C    1.007    41 H    0.975
                            42 H    0.973
    11   6 C    3.995 --    10 C    1.007    12 C    1.007    43 H    0.973
                            44 H    0.973
    12   6 C    3.992 --    13 C    1.009    11 C    1.007    45 H    0.973
                            46 H    0.966
    13   6 C    3.981 --    12 C    1.009    47 H    0.974    14 C    0.973
                            48 H    0.960
    14   6 C    3.934 --    13 C    0.973    15 N    0.964    49 H    0.963
                            50 H    0.961
    15   7 N    3.765 --    16 C    1.332    20 C    1.320    14 C    0.964
    16   6 C    3.958 --    17 C    1.438    15 N    1.332    51 H    0.953
    17   6 C    3.983 --    18 C    1.450    16 C    1.438    52 H    0.960
    18   6 C    3.974 --    17 C    1.450    19 C    1.366    53 H    0.962
    19   6 C    3.981 --    20 C    1.423    18 C    1.366    21 C    1.046
    20   6 C    3.958 --    19 C    1.423    15 N    1.320    54 H    0.954
    21   6 C    3.983 --    19 C    1.046    57 H    0.979    56 H    0.960
                            55 H    0.946
    22   1 H    0.999 --     1 C    0.986
    23   1 H    0.999 --     1 C    0.987
    24   1 H    0.999 --     1 C    0.987
    25   1 H    0.999 --     2 C    0.976
    26   1 H    0.999 --     2 C    0.978
    27   1 H    0.999 --     3 C    0.975
    28   1 H    0.999 --     3 C    0.977
    29   1 H    0.999 --     4 C    0.975
    30   1 H    0.999 --     4 C    0.975
    31   1 H    0.999 --     5 C    0.975
    32   1 H    0.999 --     5 C    0.974
    33   1 H    0.999 --     6 C    0.976
    34   1 H    0.999 --     6 C    0.975
    35   1 H    0.999 --     7 C    0.975
    36   1 H    0.999 --     7 C    0.974
    37   1 H    0.999 --     8 C    0.975
    38   1 H    0.998 --     8 C    0.974
    39   1 H    0.999 --     9 C    0.975
    40   1 H    0.998 --     9 C    0.973
    41   1 H    0.999 --    10 C    0.975
    42   1 H    0.998 --    10 C    0.973
    43   1 H    1.000 --    11 C    0.973
    44   1 H    0.997 --    11 C    0.973
    45   1 H    1.000 --    12 C    0.973
    46   1 H    0.995 --    12 C    0.966
    47   1 H    0.998 --    13 C    0.974
    48   1 H    0.991 --    13 C    0.960
    49   1 H    0.992 --    14 C    0.963
    50   1 H    0.991 --    14 C    0.961
    51   1 H    0.988 --    16 C    0.953
    52   1 H    0.989 --    17 C    0.960
    53   1 H    0.990 --    18 C    0.962
    54   1 H    0.990 --    20 C    0.954
    55   1 H    0.990 --    21 C    0.946
    56   1 H    0.991 --    21 C    0.960
    57   1 H    0.994 --    21 C    0.979
 ---------------------------------------------------------------------------

molecular dipole:
                 x           y           z       tot (Debye)
 q only:       -9.591     -16.413     -13.506
   full:       -9.660     -16.420     -13.595      59.487

           -------------------------------------------------
          | TOTAL ENERGY              -63.742729996319 Eh   |
          | GRADIENT NORM               0.000229227665 Eh/α |
          | HOMO-LUMO GAP               0.342959898300 eV   |
           -------------------------------------------------

 * finished run on 2024/12/20 at 07:15:39.241
