   * xtb version 6.7.1 (edcfbbe) compiled by 'conda@3ef47c1a292c' on 2024-11-25

   ID    Z sym.   atoms
    1    6 C      1-4, 6-10, 12
    2    7 N      5
    3    8 O      11
    4    1 H      13-26

          program call               : xtb C1223.xyz --opt --namespace C1223 --charge +1
          :  Hamiltonian                  GFN2-xTB          :
 * total energy  :   -35.1135507 Eh     change       -0.2146052E-09 Eh
 * total energy  :   -35.1181088 Eh     change       -0.4558180E-02 Eh
 * total energy  :   -35.1193263 Eh     change       -0.1217420E-02 Eh
 * total energy  :   -35.1196829 Eh     change       -0.3566702E-03 Eh
 * total energy  :   -35.1198924 Eh     change       -0.2094647E-03 Eh
 * total energy  :   -35.1200109 Eh     change       -0.1185266E-03 Eh
 * total energy  :   -35.1201779 Eh     change       -0.1669565E-03 Eh
 * total energy  :   -35.1204162 Eh     change       -0.2382844E-03 Eh
 * total energy  :   -35.1206895 Eh     change       -0.2733405E-03 Eh
 * total energy  :   -35.1209338 Eh     change       -0.2442530E-03 Eh
 * total energy  :   -35.1213694 Eh     change       -0.1919666E-03 Eh
 * total energy  :   -35.1215140 Eh     change       -0.1445200E-03 Eh
 * total energy  :   -35.1215874 Eh     change       -0.7344606E-04 Eh
 * total energy  :   -35.1216815 Eh     change       -0.9406188E-04 Eh
 * total energy  :   -35.1217501 Eh     change       -0.6864795E-04 Eh
 * total energy  :   -35.1217736 Eh     change       -0.2344272E-04 Eh
 * total energy  :   -35.1217828 Eh     change       -0.9244066E-05 Eh
 * total energy  :   -35.1217901 Eh     change       -0.7319922E-05 Eh
 * total energy  :   -35.1217945 Eh     change       -0.4357937E-05 Eh
   *** GEOMETRY OPTIMIZATION CONVERGED AFTER 20 ITERATIONS ***

 final structure:
================
26
 xtb: 6.7.1 (edcfbbe)
C            1.12651117752581        0.30476897110972        0.67023019304176
C            0.58803699910787       -1.13568027219890        0.67268492413739
C            0.85138908388587       -1.70519589041107        2.03693217408871
C           -0.19560304978172       -1.36922435598665        3.14352661477654
N            0.09096185231232       -2.17811528689449        4.29570540244627
C            1.27846470582924       -2.02010421173649        4.89921506493078
C            1.69014619224119       -2.88361042986062        5.89525387328750
C            0.86314462877303       -3.93081139985361        6.27305229820035
C           -0.36829457839833       -4.07179074803331        5.64018004726270
C           -0.71995399269299       -3.18782305205942        4.64547241904990
O            1.82802450757920       -2.32998343729369        2.34021890035698
C           -0.87147791476120       -1.17273335227401        0.22867987000297
H            0.51905783519828        0.95179927339614        1.29890994395489
H            1.09452427291736        0.69080550490776       -0.34425073484384
H            2.15735865851219        0.33687466747211        1.01313384529120
H            1.19583414619443       -1.72340700139206       -0.02271202199730
H           -0.08346515202527       -0.30623211673479        3.37496235443451
H           -1.20704069740048       -1.55307590025837        2.78406287789111
H            1.88998114478437       -1.18587342700595        4.59179434589901
H            2.65167013456425       -2.73656870188658        6.36067165166133
H            1.16583071241035       -4.62205030410682        7.04350173401066
H           -1.04377378020088       -4.86759699220035        5.90889394260290
H           -1.65731520238109       -3.27772992177113        4.11656055652710
H           -0.92604396449969       -0.88602178242432       -0.81794560438528
H           -1.28617472677056       -2.17402607296593        0.31794043104556
H           -1.48323299292224       -0.47198375953802        0.79154489632697

          :  Hamiltonian                  GFN2-xTB          :
         :: total energy             -35.121794482640 Eh    ::
         :: gradient norm              0.000895565550 Eh/a0 ::
         :: HOMO-LUMO gap              2.542961493548 eV    ::
         :: SCC energy               -35.662976913027 Eh    ::
         :: -> dispersion             -0.020254511305 Eh    ::
         :: repulsion energy           0.541182430387 Eh    ::

    * Orbital Energies and Occupations

         #    Occupation            Energy/Eh            Energy/eV
      -------------------------------------------------------------
         1        2.0000           -0.8809561             -23.9720
       ...           ...                  ...                  ...
        20        2.0000           -0.6609202             -17.9846
        21        2.0000           -0.6510964             -17.7172
        22        2.0000           -0.6334684             -17.2376
        23        2.0000           -0.6257120             -17.0265
        24        2.0000           -0.6187058             -16.8358
        25        2.0000           -0.6181909             -16.8218
        26        2.0000           -0.6112325             -16.6325
        27        2.0000           -0.6105400             -16.6136
        28        2.0000           -0.5975600             -16.2604
        29        2.0000           -0.5895852             -16.0434
        30        2.0000           -0.5749552             -15.6453
        31        2.0000           -0.5684825             -15.4692
        32        2.0000           -0.5483567             -14.9215 (HOMO)
        33                         -0.4549046             -12.3786 (LUMO)
        34                         -0.4226685             -11.5014
        35                         -0.4075749             -11.0907
        36                         -0.3035242              -8.2593
        37                         -0.1655642              -4.5052
        38                         -0.1060187              -2.8849
        39                         -0.0765603              -2.0833
        40                         -0.0419666              -1.1420
        41                         -0.0394708              -1.0741
        42                         -0.0294883              -0.8024
        43                         -0.0220653              -0.6004
       ...                                ...                  ...
        62                          0.4873034              13.2602
      -------------------------------------------------------------
                  HL-Gap            0.0934521 Eh            2.5430 eV

     #   Z          covCN         q      C6AA      α(0)
     1   6 C        3.760    -0.113    22.717     6.795
     2   6 C        3.851    -0.035    21.157     6.542
     3   6 C        2.818     0.240    23.000     7.858
     4   6 C        3.764    -0.063    21.757     6.649
     5   7 N        2.752     0.117    19.240     6.515
     6   6 C        2.896     0.043    27.041     8.526
     7   6 C        2.915    -0.007    28.192     8.707
     8   6 C        2.925     0.014    27.702     8.631
     9   6 C        2.915    -0.010    28.261     8.717
    10   6 C        2.889     0.030    27.332     8.571
    11   8 O        0.857    -0.319    20.135     6.016
    12   6 C        3.754    -0.123    22.921     6.827
    13   1 H        0.925     0.050     2.321     2.383
    14   1 H        0.925     0.082     1.960     2.190
    15   1 H        0.925     0.060     2.199     2.319
    16   1 H        0.924     0.090     1.878     2.143
    17   1 H        0.924     0.115     1.651     2.009
    18   1 H        0.925     0.111     1.686     2.031
    19   1 H        0.926     0.114     1.665     2.018
    20   1 H        0.926     0.110     1.696     2.037
    21   1 H        0.926     0.107     1.718     2.050
    22   1 H        0.926     0.108     1.716     2.049
    23   1 H        0.926     0.103     1.756     2.072
    24   1 H        0.925     0.077     2.012     2.218
    25   1 H        0.925     0.049     2.330     2.387
    26   1 H        0.925     0.051     2.310     2.377

Wiberg/Mayer (AO) data.
largest (>0.10) Wiberg bond orders for each atom

     #   Z sym  total        # sym  WBO       # sym  WBO       # sym  WBO
 ---------------------------------------------------------------------------
     1   6 C    3.984 --    13 H    0.984    15 H    0.984    14 H    0.974
                             2 C    0.960
     2   6 C    3.980 --    12 C    1.000     3 C    0.988     1 C    0.960
                            16 H    0.950
     3   6 C    3.908 --    11 O    1.891     2 C    0.988     4 C    0.912
     4   6 C    3.945 --     5 N    0.998    18 H    0.951    17 H    0.934
                             3 C    0.912
     5   7 N    3.761 --     6 C    1.307    10 C    1.304     4 C    0.998
     6   6 C    3.954 --     7 C    1.449     5 N    1.307    19 H    0.955
     7   6 C    3.980 --     6 C    1.449     8 C    1.434    20 H    0.959
     8   6 C    3.965 --     7 C    1.434     9 C    1.404    21 H    0.961
     9   6 C    3.981 --    10 C    1.481     8 C    1.404    22 H    0.959
    10   6 C    3.958 --     9 C    1.481     5 N    1.304    23 H    0.955
    11   8 O    2.150 --     3 C    1.891
    12   6 C    3.988 --     2 C    1.000    25 H    0.985    26 H    0.983
                            24 H    0.979
    13   1 H    0.997 --     1 C    0.984
    14   1 H    0.991 --     1 C    0.974
    15   1 H    0.996 --     1 C    0.984
    16   1 H    0.991 --     2 C    0.950
    17   1 H    0.986 --     4 C    0.934
    18   1 H    0.987 --     4 C    0.951
    19   1 H    0.987 --     6 C    0.955
    20   1 H    0.988 --     7 C    0.959
    21   1 H    0.988 --     8 C    0.961
    22   1 H    0.988 --     9 C    0.959
    23   1 H    0.989 --    10 C    0.955
    24   1 H    0.993 --    12 C    0.979
    25   1 H    0.998 --    12 C    0.985
    26   1 H    0.997 --    12 C    0.983
 ---------------------------------------------------------------------------

molecular dipole:
                 x           y           z       tot (Debye)
 q only:       -0.024      -3.956       7.719
   full:       -0.156      -3.887       7.725      21.985

           -------------------------------------------------
          | TOTAL ENERGY              -35.121794482640 Eh   |
          | GRADIENT NORM               0.000895565550 Eh/α |
          | HOMO-LUMO GAP               2.542961493548 eV   |
           -------------------------------------------------

 * finished run on 2024/12/20 at 07:15:29.845
