   * xtb version 6.7.1 (edcfbbe) compiled by 'conda@3ef47c1a292c' on 2024-11-25

   ID    Z sym.   atoms
    1    6 C      1-3, 5-10
    2    7 N      4
    3    1 H      11-22

          program call               : xtb C1220.xyz --opt --namespace C1220 --charge +1
          :  Hamiltonian                  GFN2-xTB          :
 * total energy  :   -27.8748703 Eh     change       -0.3428688E-09 Eh
 * total energy  :   -27.8775191 Eh     change       -0.2648806E-02 Eh
 * total energy  :   -27.8779035 Eh     change       -0.3843967E-03 Eh
 * total energy  :   -27.8779694 Eh     change       -0.6588295E-04 Eh
 * total energy  :   -27.8780063 Eh     change       -0.3691534E-04 Eh
 * total energy  :   -27.8780187 Eh     change       -0.1241194E-04 Eh
 * total energy  :   -27.8780322 Eh     change       -0.1351991E-04 Eh
 * total energy  :   -27.8780383 Eh     change       -0.6075560E-05 Eh
 * total energy  :   -27.8780422 Eh     change       -0.3913529E-05 Eh
   *** GEOMETRY OPTIMIZATION CONVERGED AFTER 9 ITERATIONS ***

 final structure:
================
22
 xtb: 6.7.1 (edcfbbe)
C            0.99514977011807       -0.00318498934664       -0.03106998143317
C            0.29197315189064       -0.74507252936189       -0.86381099359320
C           -1.21202729515988       -0.69124041216178       -0.96085863492626
N           -1.60727414464406       -0.32770481298787       -2.31617936950063
C           -1.94674835006594       -1.27241768443118       -3.19546041310784
C           -2.25740303160019       -0.93957045099871       -4.50016610927122
C           -2.21086462005000        0.38660807142109       -4.89403609611890
C           -1.84896540867082        1.37211651880575       -3.96983581860386
C           -1.55188433014414        0.95801027948518       -2.68086412117695
C           -1.77034716418503        2.80568222904087       -4.35441520813288
H            0.53503364289574        0.69818930100709        0.64550858439910
H            2.06596257388088       -0.08498546327035        0.02475420148344
H            0.76961025354784       -1.45230460919927       -1.52727598144452
H           -1.63559091723016       -1.66938955389238       -0.72040722625411
H           -1.60684777389921        0.04684389822150       -0.25991364826110
H           -1.97202824397694       -2.29452251788227       -2.84893588739943
H           -2.53441387079406       -1.71557241846265       -5.19529223895226
H           -2.45265082439180        0.66439140325704       -5.90831486852089
H           -1.25891541646116        1.66783759158716       -1.92095047950055
H           -0.88459747140809        2.97309575986266       -4.96750347108474
H           -2.63363664967075        3.08968288072810       -4.95172274891676
H           -1.70950387998089        3.45116750857849       -3.48353948968329

          :  Hamiltonian                  GFN2-xTB          :
         :: total energy             -27.878042230909 Eh    ::
         :: gradient norm              0.000406227482 Eh/a0 ::
         :: HOMO-LUMO gap              2.864355617902 eV    ::
         :: SCC energy               -28.377052271745 Eh    ::
         :: -> dispersion             -0.015914197094 Eh    ::
         :: repulsion energy           0.499010040835 Eh    ::

    * Orbital Energies and Occupations

         #    Occupation            Energy/Eh            Energy/eV
      -------------------------------------------------------------
         1        2.0000           -0.8757050             -23.8291
       ...           ...                  ...                  ...
        14        2.0000           -0.6756933             -18.3866
        15        2.0000           -0.6654986             -18.1091
        16        2.0000           -0.6584379             -17.9170
        17        2.0000           -0.6515742             -17.7302
        18        2.0000           -0.6357368             -17.2993
        19        2.0000           -0.6256822             -17.0257
        20        2.0000           -0.6188748             -16.8404
        21        2.0000           -0.6165531             -16.7773
        22        2.0000           -0.6073727             -16.5275
        23        2.0000           -0.6043573             -16.4454
        24        2.0000           -0.5870831             -15.9753
        25        2.0000           -0.5765551             -15.6889
        26        2.0000           -0.5586068             -15.2005 (HOMO)
        27                         -0.4533436             -12.3361 (LUMO)
        28                         -0.4197875             -11.4230
        29                         -0.3560529              -9.6887
        30                         -0.3026200              -8.2347
        31                         -0.1635214              -4.4496
        32                         -0.0737937              -2.0080
        33                         -0.0498647              -1.3569
        34                         -0.0408998              -1.1129
        35                         -0.0378713              -1.0305
        36                         -0.0122581              -0.3336
        37                         -0.0055929              -0.1522
       ...                                ...                  ...
        52                          0.4775071              12.9936
      -------------------------------------------------------------
                  HL-Gap            0.1052631 Eh            2.8644 eV

     #   Z          covCN         q      C6AA      α(0)
     1   6 C        2.837    -0.077    29.901     8.961
     2   6 C        2.887    -0.039    28.978     8.825
     3   6 C        3.764    -0.034    21.221     6.566
     4   7 N        2.750     0.107    19.395     6.541
     5   6 C        2.890     0.027    27.405     8.583
     6   6 C        2.913    -0.014    28.354     8.732
     7   6 C        2.930    -0.002    28.080     8.690
     8   6 C        2.961     0.050    26.871     8.503
     9   6 C        2.899     0.017    27.620     8.617
    10   6 C        3.759    -0.134    23.128     6.856
    11   1 H        0.926     0.070     2.087     2.259
    12   1 H        0.926     0.085     1.932     2.173
    13   1 H        0.926     0.060     2.194     2.316
    14   1 H        0.924     0.095     1.829     2.115
    15   1 H        0.924     0.097     1.813     2.105
    16   1 H        0.926     0.106     1.735     2.060
    17   1 H        0.926     0.105     1.739     2.062
    18   1 H        0.926     0.102     1.763     2.077
    19   1 H        0.926     0.104     1.751     2.069
    20   1 H        0.925     0.100     1.788     2.091
    21   1 H        0.925     0.095     1.835     2.118
    22   1 H        0.925     0.080     1.982     2.202

Wiberg/Mayer (AO) data.
largest (>0.10) Wiberg bond orders for each atom

     #   Z sym  total        # sym  WBO       # sym  WBO       # sym  WBO
 ---------------------------------------------------------------------------
     1   6 C    3.980 --     2 C    1.987    11 H    0.971    12 H    0.968
     2   6 C    3.979 --     1 C    1.987     3 C    0.988    13 H    0.963
     3   6 C    3.935 --     2 C    0.988    15 H    0.958    14 H    0.955
                             4 N    0.954
     4   7 N    3.765 --     5 C    1.335     9 C    1.322     3 C    0.954
     5   6 C    3.959 --     6 C    1.440     4 N    1.335    16 H    0.955
     6   6 C    3.982 --     7 C    1.449     5 C    1.440    17 H    0.959
     7   6 C    3.974 --     6 C    1.449     8 C    1.367    18 H    0.961
     8   6 C    3.981 --     9 C    1.420     7 C    1.367    10 C    1.046
     9   6 C    3.958 --     8 C    1.420     4 N    1.322    19 H    0.954
    10   6 C    3.982 --     8 C    1.046    22 H    0.978    21 H    0.961
                            20 H    0.944
    11   1 H    0.995 --     1 C    0.971
    12   1 H    0.992 --     1 C    0.968
    13   1 H    0.996 --     2 C    0.963
    14   1 H    0.991 --     3 C    0.955
    15   1 H    0.990 --     3 C    0.958
    16   1 H    0.988 --     5 C    0.955
    17   1 H    0.988 --     6 C    0.959
    18   1 H    0.989 --     7 C    0.961
    19   1 H    0.989 --     9 C    0.954
    20   1 H    0.990 --    10 C    0.944
    21   1 H    0.991 --    10 C    0.961
    22   1 H    0.993 --    10 C    0.978
 ---------------------------------------------------------------------------

molecular dipole:
                 x           y           z       tot (Debye)
 q only:       -2.837       0.353      -5.455
   full:       -2.898       0.255      -5.435      15.669

           -------------------------------------------------
          | TOTAL ENERGY              -27.878042230909 Eh   |
          | GRADIENT NORM               0.000406227482 Eh/α |
          | HOMO-LUMO GAP               2.864355617902 eV   |
           -------------------------------------------------

 * finished run on 2024/12/20 at 07:15:22.217
