   * xtb version 6.7.1 (edcfbbe) compiled by 'conda@3ef47c1a292c' on 2024-11-25

   ID    Z sym.   atoms
    1    6 C      1-3, 5-10, 13-16
    2    7 N      4, 12
    3    8 O      11
    4    1 H      17-35

          program call               : xtb C1227.xyz --opt --namespace C1227 --charge +1
          :  Hamiltonian                  GFN2-xTB          :
 * total energy  :   -47.0070219 Eh     change       -0.1850360E-08 Eh
 * total energy  :   -47.0135693 Eh     change       -0.6547455E-02 Eh
 * total energy  :   -47.0152151 Eh     change       -0.1645733E-02 Eh
 * total energy  :   -47.0155821 Eh     change       -0.3670314E-03 Eh
 * total energy  :   -47.0159175 Eh     change       -0.3354107E-03 Eh
 * total energy  :   -47.0161213 Eh     change       -0.2037852E-03 Eh
 * total energy  :   -47.0163621 Eh     change       -0.2408551E-03 Eh
 * total energy  :   -47.0167183 Eh     change       -0.3561443E-03 Eh
 * total energy  :   -47.0170296 Eh     change       -0.3113426E-03 Eh
 * total energy  :   -47.0172946 Eh     change       -0.2650164E-03 Eh
 * total energy  :   -47.0210804 Eh     change       -0.2865059E-04 Eh
 * total energy  :   -47.0211024 Eh     change       -0.2206392E-04 Eh
 * total energy  :   -47.0211285 Eh     change       -0.2610616E-04 Eh
 * total energy  :   -47.0211436 Eh     change       -0.1510512E-04 Eh
 * total energy  :   -47.0211560 Eh     change       -0.1234770E-04 Eh
 * total energy  :   -47.0211636 Eh     change       -0.7596574E-05 Eh
 * total energy  :   -47.0211704 Eh     change       -0.6811679E-05 Eh
 * total energy  :   -47.0211764 Eh     change       -0.5948768E-05 Eh
 * total energy  :   -47.0211804 Eh     change       -0.4025345E-05 Eh
   *** GEOMETRY OPTIMIZATION CONVERGED AFTER 73 ITERATIONS ***

 final structure:
================
35
 xtb: 6.7.1 (edcfbbe)
C            1.84413498218022       -0.70339439788839       -0.09082667580371
C            0.98504190288735       -1.50673885417803        0.50518797577015
C           -0.40717908357349       -1.08937920490421        0.90476287071249
N           -1.39370660075615       -1.98732070166890        0.31550471711314
C           -2.14009246092565       -2.78726570630702        1.08041869366746
C           -3.03082324560505       -3.68009665269330        0.51496782361482
C           -3.15015873129013       -3.74366545927687       -0.86407619290675
C           -2.37179636074326       -2.89226296542221       -1.65281937699089
C           -1.49197167308055       -2.03366246116688       -1.01829747088438
C           -2.24071956445946       -3.09699965686147       -3.15466192088258
O           -1.28126625905222       -3.75525568145408       -3.50291974063344
N           -3.17252020764927       -2.58208446032839       -3.95612789257006
C           -4.25728062572731       -1.74501792466758       -3.48725835725171
C           -3.98516136362612       -0.25741153855003       -3.69759211916481
C           -3.02705369335946       -2.81298160117551       -5.39118319096749
C           -1.90858866241330       -1.98426049606735       -6.01240422435538
H            1.60464761124836        0.31869496659760       -0.33527806528231
H            2.83811862254055       -1.03145674079935       -0.33737829119522
H            1.24763962111411       -2.52489193135600        0.75460865618597
H           -0.50886972703746       -1.12018384215857        1.99241160228441
H           -0.60340250514968       -0.06960824358187        0.56309309471008
H           -2.01760731095901       -2.71459851202194        2.15088027573231
H           -3.61622700202248       -4.32300648500760        1.15264066131635
H           -3.82464084893202       -4.44740984803582       -1.32762406522360
H           -0.83405264219126       -1.38731665157587       -1.58165428015526
H           -5.16639171508606       -2.02969872978737       -4.02361939486240
H           -4.41874329707829       -1.93986992275115       -2.42374134639665
H           -3.92734937029855       -0.02145132063436       -4.75568944134125
H           -4.79265568635926        0.32584759518172       -3.26435408977125
H           -3.05020410016229        0.03386350641397       -3.22380213095147
H           -2.79984423928005       -3.87295079226517       -5.53251017017681
H           -3.98325893777908       -2.58722066401210       -5.86328875867449
H           -0.95664830122529       -2.24631273074136       -5.55925426596262
H           -1.85268379756393       -2.20082046691496       -7.07499814583909
H           -2.08206472658693       -0.91927142393892       -5.88522676286469

          :  Hamiltonian                  GFN2-xTB          :
         :: total energy             -47.021180379731 Eh    ::
         :: gradient norm              0.000431883225 Eh/a0 ::
         :: HOMO-LUMO gap              1.580511440702 eV    ::
         :: SCC energy               -47.746806019333 Eh    ::
         :: -> dispersion             -0.030377588889 Eh    ::
         :: repulsion energy           0.725625639602 Eh    ::

    * Orbital Energies and Occupations

         #    Occupation            Energy/Eh            Energy/eV
      -------------------------------------------------------------
         1        2.0000           -0.8757759             -23.8311
       ...           ...                  ...                  ...
        31        2.0000           -0.6103476             -16.6084
        32        2.0000           -0.6073231             -16.5261
        33        2.0000           -0.6033361             -16.4176
        34        2.0000           -0.5992189             -16.3056
        35        2.0000           -0.5826450             -15.8546
        36        2.0000           -0.5812897             -15.8177
        37        2.0000           -0.5729533             -15.5909
        38        2.0000           -0.5681553             -15.4603
        39        2.0000           -0.5546464             -15.0927
        40        2.0000           -0.5545967             -15.0913
        41        2.0000           -0.5397252             -14.6867
        42        2.0000           -0.5237461             -14.2519
        43        2.0000           -0.5123048             -13.9405 (HOMO)
        44                         -0.4542220             -12.3600 (LUMO)
        45                         -0.4232530             -11.5173
        46                         -0.3524355              -9.5903
        47                         -0.3364679              -9.1558
        48                         -0.3043814              -8.2826
        49                         -0.1659366              -4.5154
        50                         -0.1320815              -3.5941
        51                         -0.0814600              -2.2166
        52                         -0.0680425              -1.8515
        53                         -0.0423704              -1.1530
        54                         -0.0313105              -0.8520
       ...                                ...                  ...
        83                          0.5073923              13.8068
      -------------------------------------------------------------
                  HL-Gap            0.0580827 Eh            1.5805 eV

     #   Z          covCN         q      C6AA      α(0)
     1   6 C        2.837    -0.076    29.895     8.960
     2   6 C        2.886    -0.039    28.974     8.825
     3   6 C        3.763    -0.033    21.213     6.565
     4   7 N        2.750     0.108    19.379     6.538
     5   6 C        2.888     0.030    27.338     8.572
     6   6 C        2.914    -0.012    28.314     8.725
     7   6 C        2.926     0.008    27.835     8.652
     8   6 C        2.967     0.012    27.746     8.640
     9   6 C        2.899     0.034    27.250     8.559
    10   6 C        2.774     0.264    22.541     7.776
    11   8 O        0.860    -0.403    21.748     6.253
    12   7 N        2.732    -0.075    22.691     7.075
    13   6 C        3.743    -0.006    20.765     6.501
    14   6 C        3.751    -0.118    22.817     6.812
    15   6 C        3.754    -0.002    20.674     6.484
    16   6 C        3.752    -0.118    22.815     6.812
    17   1 H        0.926     0.069     2.101     2.267
    18   1 H        0.926     0.086     1.920     2.167
    19   1 H        0.926     0.064     2.158     2.297
    20   1 H        0.924     0.095     1.836     2.119
    21   1 H        0.924     0.098     1.803     2.100
    22   1 H        0.926     0.107     1.725     2.054
    23   1 H        0.926     0.107     1.721     2.051
    24   1 H        0.926     0.100     1.781     2.087
    25   1 H        0.926     0.107     1.718     2.050
    26   1 H        0.924     0.070     2.084     2.257
    27   1 H        0.924     0.040     2.443     2.444
    28   1 H        0.925     0.067     2.115     2.275
    29   1 H        0.925     0.062     2.179     2.308
    30   1 H        0.925     0.041     2.438     2.442
    31   1 H        0.924     0.076     2.022     2.224
    32   1 H        0.925     0.062     2.172     2.305
    33   1 H        0.925     0.064     2.158     2.297
    34   1 H        0.925     0.064     2.149     2.293
    35   1 H        0.925     0.048     2.343     2.394

Wiberg/Mayer (AO) data.
largest (>0.10) Wiberg bond orders for each atom

     #   Z sym  total        # sym  WBO       # sym  WBO       # sym  WBO
 ---------------------------------------------------------------------------
     1   6 C    3.980 --     2 C    1.986    17 H    0.971    18 H    0.968
     2   6 C    3.979 --     1 C    1.986     3 C    0.992    19 H    0.963
     3   6 C    3.934 --     2 C    0.992    20 H    0.956     4 N    0.953
                            21 H    0.952
     4   7 N    3.765 --     5 C    1.334     9 C    1.322     3 C    0.953
     5   6 C    3.957 --     6 C    1.443     4 N    1.334    22 H    0.954
     6   6 C    3.980 --     5 C    1.443     7 C    1.441    23 H    0.958
     7   6 C    3.973 --     6 C    1.441     8 C    1.371    24 H    0.962
     8   6 C    3.964 --     9 C    1.430     7 C    1.371    10 C    0.918
     9   6 C    3.958 --     8 C    1.430     4 N    1.322    25 H    0.954
    10   6 C    3.966 --    11 O    1.649    12 N    1.310     8 C    0.918
    11   8 O    2.057 --    10 C    1.649    12 N    0.222
    12   7 N    3.547 --    10 C    1.310    13 C    0.985    15 C    0.962
                            11 O    0.222
    13   6 C    3.967 --    14 C    1.006    12 N    0.985    26 H    0.966
                            27 H    0.964
    14   6 C    3.990 --    13 C    1.006    30 H    0.987    28 H    0.982
                            29 H    0.982
    15   6 C    3.953 --    16 C    1.010    32 H    0.971    31 H    0.966
                            12 N    0.962
    16   6 C    3.989 --    15 C    1.010    35 H    0.984    33 H    0.984
                            34 H    0.981
    17   1 H    0.995 --     1 C    0.971
    18   1 H    0.991 --     1 C    0.968
    19   1 H    0.996 --     2 C    0.963
    20   1 H    0.991 --     3 C    0.956
    21   1 H    0.990 --     3 C    0.952
    22   1 H    0.988 --     5 C    0.954
    23   1 H    0.988 --     6 C    0.958
    24   1 H    0.990 --     7 C    0.962
    25   1 H    0.988 --     9 C    0.954
    26   1 H    0.995 --    13 C    0.966
    27   1 H    0.998 --    13 C    0.964
    28   1 H    0.995 --    14 C    0.982
    29   1 H    0.995 --    14 C    0.982
    30   1 H    0.998 --    14 C    0.987
    31   1 H    0.994 --    15 C    0.966
    32   1 H    0.996 --    15 C    0.971
    33   1 H    0.996 --    16 C    0.984
    34   1 H    0.995 --    16 C    0.981
    35   1 H    0.998 --    16 C    0.984
 ---------------------------------------------------------------------------

molecular dipole:
                 x           y           z       tot (Debye)
 q only:       -4.303      -3.290      -1.159
   full:       -4.495      -3.257      -0.891      14.290

           -------------------------------------------------
          | TOTAL ENERGY              -47.021180379731 Eh   |
          | GRADIENT NORM               0.000431883225 Eh/α |
          | HOMO-LUMO GAP               1.580511440702 eV   |
           -------------------------------------------------

 * finished run on 2024/12/20 at 07:15:36.649
