   * xtb version 6.7.1 (edcfbbe) compiled by 'conda@3ef47c1a292c' on 2024-11-25

   ID    Z sym.   atoms
    1    8 O      1
    2    6 C      2-9, 11, 13-25
    3    7 N      10, 12
    4    1 H      26-44

          program call               : xtb C1239.xyz --opt --namespace C1239 --charge +1
          :  Hamiltonian                  GFN2-xTB          :
 * total energy  :   -66.3133511 Eh     change       -0.7391634E-09 Eh
 * total energy  :   -66.3209157 Eh     change       -0.7564544E-02 Eh
 * total energy  :   -66.3223835 Eh     change       -0.1467866E-02 Eh
 * total energy  :   -66.3226252 Eh     change       -0.2417170E-03 Eh
 * total energy  :   -66.3227665 Eh     change       -0.1413100E-03 Eh
 * total energy  :   -66.3228263 Eh     change       -0.5975329E-04 Eh
 * total energy  :   -66.3228788 Eh     change       -0.5249528E-04 Eh
 * total energy  :   -66.3229173 Eh     change       -0.3846574E-04 Eh
 * total energy  :   -66.3229606 Eh     change       -0.4332672E-04 Eh
 * total energy  :   -66.3229864 Eh     change       -0.2580720E-04 Eh
 * total energy  :   -66.3230328 Eh     change       -0.4640505E-04 Eh
 * total energy  :   -66.3230444 Eh     change       -0.1156580E-04 Eh
 * total energy  :   -66.3230497 Eh     change       -0.5374009E-05 Eh
 * total energy  :   -66.3230543 Eh     change       -0.4528856E-05 Eh
   *** GEOMETRY OPTIMIZATION CONVERGED AFTER 14 ITERATIONS ***

 final structure:
================
44
 xtb: 6.7.1 (edcfbbe)
O            0.36740448985204       -1.74794735312935       -2.25537027695512
C            1.22296142058432       -1.25327059885875       -1.56798869060975
C            2.25616688876549       -2.02258056752934       -0.86333714727705
C            3.05437741518923       -1.50432220944158        0.15959355502601
C            4.00587503942527       -2.30087829105536        0.76672473172216
C            4.17780462539110       -3.61766186546954        0.36644835345386
C            3.38367829946295       -4.14634187732762       -0.63988197410184
C            2.42806395089235       -3.35762233145641       -1.24779852729886
C            1.29846311789167        0.29778641976767       -1.46568283562350
N            2.51024105686843        0.76635746753440       -2.08035287321871
C            3.54411431028004        1.35804066020352       -1.49137204332709
N            4.52955591845110        1.58136558888558       -2.35429272844482
C            4.12316345704315        1.11972028880631       -3.58841519520903
C            2.82956713542861        0.59113710679527       -3.41313685053620
C            2.12005961528924        0.03625313739128       -4.47187966223021
C            2.74591869796407        0.03106008822036       -5.70106543786358
C            4.02973880807675        0.55731459943466       -5.87814856266928
C            4.74149865075443        1.10945531671139       -4.83363675547433
C            5.80854563502154        2.18551923193418       -2.03021454255625
C            6.22624878486235        1.83045240592987       -0.62459683330717
C            6.48623344798505        0.50261486491884       -0.30172731243520
C            6.86946706254645        0.16207130317514        0.98277519685267
C            6.99152888217935        1.14268013178633        1.95410511383823
C            6.72891773049705        2.46479773317578        1.63838519845356
C            6.34440437200717        2.80859500998740        0.35295128748962
H            2.91478984527499       -0.49775860715192        0.52191933910145
H            4.60784010249983       -1.89502560580087        1.56516122687875
H            4.92011782297116       -4.23433756120196        0.84921624137370
H            3.50554547167952       -5.17446766531728       -0.94276492544985
H            1.79682209888848       -3.75143559124115       -2.02971902630544
H            0.43513193404367        0.69973009549005       -2.00440867811471
H            1.25503691495741        0.62127123708056       -0.42559488567303
H            3.58848264044772        1.63442523166148       -0.45500642798788
H            1.13282287330411       -0.37467806920876       -4.33926614465807
H            2.23225400844051       -0.38802216549642       -6.55134097226463
H            4.47275254286999        0.53189454841931       -6.86094280929598
H            5.72709054204235        1.51895157688357       -4.98225272100511
H            6.54125451124268        1.81117052645524       -2.74978021585739
H            5.73431574535111        3.27167187899108       -2.14660144068312
H            6.39750583830040       -0.26358182163933       -1.05942362871797
H            7.08614663807362       -0.86773471585511        1.22105092599852
H            7.29825027358341        0.87738124178049        2.95370326792958
H            6.82724900488834        3.23156737713962        2.39063795704214
H            6.14822237843282        3.84211182862121        0.10797772999161

          :  Hamiltonian                  GFN2-xTB          :
         :: total energy             -66.323054268462 Eh    ::
         :: gradient norm              0.000757365631 Eh/a0 ::
         :: HOMO-LUMO gap              2.850516418810 eV    ::
         :: SCC energy               -67.476705849267 Eh    ::
         :: -> dispersion             -0.051222584523 Eh    ::
         :: repulsion energy           1.153651580805 Eh    ::

    * Orbital Energies and Occupations

         #    Occupation            Energy/Eh            Energy/eV
      -------------------------------------------------------------
         1        2.0000           -0.8792512             -23.9256
       ...           ...                  ...                  ...
        49        2.0000           -0.5777448             -15.7212
        50        2.0000           -0.5692422             -15.4899
        51        2.0000           -0.5547479             -15.0955
        52        2.0000           -0.5522604             -15.0278
        53        2.0000           -0.5453387             -14.8394
        54        2.0000           -0.5413021             -14.7296
        55        2.0000           -0.5401074             -14.6971
        56        2.0000           -0.5367587             -14.6059
        57        2.0000           -0.5299916             -14.4218
        58        2.0000           -0.5268389             -14.3360
        59        2.0000           -0.5219251             -14.2023
        60        2.0000           -0.5212676             -14.1844
        61        2.0000           -0.5195074             -14.1365 (HOMO)
        62                         -0.4147528             -11.2860 (LUMO)
        63                         -0.4040836             -10.9957
        64                         -0.3620630              -9.8522
        65                         -0.3535604              -9.6209
        66                         -0.3461268              -9.4186
        67                         -0.3439463              -9.3593
        68                         -0.3398586              -9.2480
        69                         -0.3169171              -8.6238
        70                         -0.2357895              -6.4162
        71                         -0.2172552              -5.9118
        72                         -0.2086188              -5.6768
       ...                                ...                  ...
       119                          0.5564310              15.1413
      -------------------------------------------------------------
                  HL-Gap            0.1047546 Eh            2.8505 eV

     #   Z          covCN         q      C6AA      α(0)
     1   8 O        0.857    -0.320    20.146     6.018
     2   6 C        2.820     0.227    23.229     7.897
     3   6 C        2.970    -0.019    28.487     8.755
     4   6 C        2.919    -0.031    28.771     8.796
     5   6 C        2.918    -0.024    28.598     8.769
     6   6 C        2.920    -0.011    28.291     8.722
     7   6 C        2.916    -0.018    28.467     8.749
     8   6 C        2.927    -0.012    28.312     8.726
     9   6 C        3.739    -0.045    21.457     6.609
    10   7 N        2.828     0.035    20.634     6.747
    11   6 C        3.068     0.067    26.441     8.432
    12   7 N        2.829     0.032    20.685     6.755
    13   6 C        3.117     0.039    26.968     8.506
    14   6 C        3.121     0.038    26.965     8.504
    15   6 C        2.908    -0.032    28.798     8.799
    16   6 C        2.926    -0.017    28.432     8.744
    17   6 C        2.925    -0.017    28.439     8.746
    18   6 C        2.908    -0.033    28.827     8.804
    19   6 C        3.747    -0.022    21.040     6.543
    20   6 C        2.972    -0.005    28.154     8.703
    21   6 C        2.923    -0.039    28.962     8.825
    22   6 C        2.919    -0.025    28.618     8.773
    23   6 C        2.920    -0.022    28.555     8.763
    24   6 C        2.919    -0.022    28.564     8.764
    25   6 C        2.922    -0.036    28.906     8.817
    26   1 H        0.926     0.029     2.593     2.518
    27   1 H        0.926     0.052     2.294     2.368
    28   1 H        0.926     0.063     2.166     2.302
    29   1 H        0.926     0.065     2.140     2.288
    30   1 H        0.926     0.074     2.039     2.233
    31   1 H        0.924     0.106     1.735     2.060
    32   1 H        0.925     0.088     1.895     2.153
    33   1 H        0.926     0.102     1.768     2.079
    34   1 H        0.926     0.086     1.916     2.164
    35   1 H        0.926     0.083     1.950     2.184
    36   1 H        0.926     0.081     1.971     2.195
    37   1 H        0.926     0.070     2.085     2.258
    38   1 H        0.924     0.088     1.894     2.152
    39   1 H        0.924     0.084     1.938     2.177
    40   1 H        0.925     0.031     2.576     2.510
    41   1 H        0.926     0.050     2.318     2.381
    42   1 H        0.926     0.058     2.227     2.334
    43   1 H        0.926     0.058     2.222     2.331
    44   1 H        0.926     0.045     2.385     2.415

Wiberg/Mayer (AO) data.
largest (>0.10) Wiberg bond orders for each atom

     #   Z sym  total        # sym  WBO       # sym  WBO       # sym  WBO
 ---------------------------------------------------------------------------
     1   8 O    2.112 --     2 C    1.850
     2   6 C    3.931 --     1 O    1.850     3 C    1.060     9 C    0.917
     3   6 C    3.987 --     4 C    1.366     8 C    1.358     2 C    1.060
     4   6 C    3.992 --     5 C    1.464     3 C    1.366    26 H    0.965
                             7 C    0.104
     5   6 C    3.991 --     4 C    1.464     6 C    1.424    27 H    0.968
                             8 C    0.102
     6   6 C    3.987 --     7 C    1.429     5 C    1.424    28 H    0.969
     7   6 C    3.989 --     8 C    1.461     6 C    1.429    29 H    0.967
                             4 C    0.104
     8   6 C    3.985 --     7 C    1.461     3 C    1.358    30 H    0.964
                             5 C    0.102
     9   6 C    3.940 --    10 N    0.983    32 H    0.957    31 H    0.955
                             2 C    0.917
    10   7 N    3.683 --    11 C    1.360    14 C    1.120     9 C    0.983
                            12 N    0.103
    11   6 C    3.954 --    12 N    1.368    10 N    1.360    33 H    0.952
    12   7 N    3.679 --    11 C    1.368    13 C    1.130    19 C    0.958
                            10 N    0.103
    13   6 C    3.952 --    18 C    1.336    14 C    1.272    12 N    1.130
    14   6 C    3.950 --    15 C    1.339    13 C    1.272    10 N    1.120
    15   6 C    3.983 --    16 C    1.496    14 C    1.339    34 H    0.960
                            18 C    0.119
    16   6 C    3.985 --    15 C    1.496    17 C    1.376    35 H    0.966
    17   6 C    3.985 --    18 C    1.497    16 C    1.376    36 H    0.966
    18   6 C    3.985 --    17 C    1.497    13 C    1.336    37 H    0.963
                            15 C    0.119
    19   6 C    3.939 --    20 C    0.993    12 N    0.958    38 H    0.956
                            39 H    0.953
    20   6 C    3.980 --    25 C    1.420    21 C    1.408    19 C    0.993
                            23 C    0.109
    21   6 C    3.992 --    22 C    1.449    20 C    1.408    40 H    0.970
                            24 C    0.113
    22   6 C    3.991 --    21 C    1.449    23 C    1.435    41 H    0.969
                            25 C    0.110
    23   6 C    3.990 --    24 C    1.443    22 C    1.435    42 H    0.969
                            20 C    0.109
    24   6 C    3.990 --    23 C    1.443    25 C    1.438    43 H    0.969
                            21 C    0.113
    25   6 C    3.990 --    24 C    1.438    20 C    1.420    44 H    0.968
                            22 C    0.110
    26   1 H    0.999 --     4 C    0.965
    27   1 H    0.997 --     5 C    0.968
    28   1 H    0.996 --     6 C    0.969
    29   1 H    0.995 --     7 C    0.967
    30   1 H    0.994 --     8 C    0.964
    31   1 H    0.988 --     9 C    0.955
    32   1 H    0.992 --     9 C    0.957
    33   1 H    0.989 --    11 C    0.952
    34   1 H    0.992 --    15 C    0.960
    35   1 H    0.993 --    16 C    0.966
    36   1 H    0.993 --    17 C    0.966
    37   1 H    0.994 --    18 C    0.963
    38   1 H    0.991 --    19 C    0.956
    39   1 H    0.991 --    19 C    0.953
    40   1 H    0.999 --    21 C    0.970
    41   1 H    0.997 --    22 C    0.969
    42   1 H    0.996 --    23 C    0.969
    43   1 H    0.996 --    24 C    0.969
    44   1 H    0.998 --    25 C    0.968
 ---------------------------------------------------------------------------

molecular dipole:
                 x           y           z       tot (Debye)
 q only:        8.084       1.243      -3.562
   full:        8.163       1.468      -3.307      22.695

           -------------------------------------------------
          | TOTAL ENERGY              -66.323054268462 Eh   |
          | GRADIENT NORM               0.000757365631 Eh/α |
          | HOMO-LUMO GAP               2.850516418810 eV   |
           -------------------------------------------------

 * finished run on 2024/12/20 at 07:15:53.837
