   * xtb version 6.7.1 (edcfbbe) compiled by 'conda@3ef47c1a292c' on 2024-11-25

   ID    Z sym.   atoms
    1    6 C      1, 3, 4, 6-10
    2    7 N      2, 5
    3    1 H      11-23

          program call               : xtb C1235.xyz --opt --namespace C1235 --charge +1
          :  Hamiltonian                  GFN2-xTB          :
 * total energy  :   -29.2606617 Eh     change       -0.4757084E-10 Eh
 * total energy  :   -29.2637519 Eh     change       -0.3090215E-02 Eh
 * total energy  :   -29.2643579 Eh     change       -0.6059932E-03 Eh
 * total energy  :   -29.2644498 Eh     change       -0.9192027E-04 Eh
 * total energy  :   -29.2644939 Eh     change       -0.4416126E-04 Eh
 * total energy  :   -29.2645024 Eh     change       -0.8496497E-05 Eh
 * total energy  :   -29.2645006 Eh     change        0.1820664E-05 Eh
 * total energy  :   -29.2645082 Eh     change       -0.7566565E-05 Eh
 * total energy  :   -29.2645132 Eh     change       -0.5034474E-05 Eh
 * total energy  :   -29.2645214 Eh     change       -0.8185975E-05 Eh
 * total energy  :   -29.2645278 Eh     change       -0.6412599E-05 Eh
 * total energy  :   -29.2645351 Eh     change       -0.7306817E-05 Eh
 * total energy  :   -29.2645419 Eh     change       -0.6789934E-05 Eh
 * total energy  :   -29.2645468 Eh     change       -0.4914928E-05 Eh
   *** GEOMETRY OPTIMIZATION CONVERGED AFTER 14 ITERATIONS ***

 final structure:
================
23
 xtb: 6.7.1 (edcfbbe)
C            0.85784614267243        0.14298121514445        0.01744505545302
N            0.43137148646665        0.11790913165734       -1.35667670997787
C            0.18396442820177       -1.00065923336376       -2.10052255728023
C           -0.19951335558331       -0.58914760030211       -3.33722243159226
N           -0.18182794064128        0.77534333266546       -3.33001812421438
C            0.20785521593467        1.19185727509267       -2.12427696992339
C            0.34028172173178        2.61327750556134       -1.73034714261268
C            0.29442199220763        3.51021306567669       -2.97174502630554
C           -0.82115933802957        3.04982375441013       -3.90611172345556
C           -0.51311781442898        1.65168359970402       -4.43341511676375
H            0.89201846895333       -0.87393891246913        0.40212951300266
H            0.16252518382533        0.72799419882913        0.62089833103193
H            1.85212431846902        0.58549647912175        0.10088649941165
H            0.29403268553589       -1.98977182323814       -1.70680039243940
H           -0.47814982628405       -1.15696758967749       -4.20049799484827
H            1.27050982304260        2.76378234301510       -1.17784616965471
H           -0.48089756007924        2.87005743274299       -1.05255287611513
H            1.25083193515358        3.46683164959400       -3.49491038762418
H            0.12877341005973        4.54168843497221       -2.66656591280394
H           -1.77242476670118        3.04378612166330       -3.37117006602377
H           -0.91459026525837        3.73205009726963       -4.74925867791100
H           -1.36895172034051        1.23338792995383       -4.96756958848350
H            0.33775577509201        1.68311159197658       -5.12222153086965

          :  Hamiltonian                  GFN2-xTB          :
         :: total energy             -29.264546837433 Eh    ::
         :: gradient norm              0.000751472775 Eh/a0 ::
         :: HOMO-LUMO gap              4.734566831244 eV    ::
         :: SCC energy               -29.706478853926 Eh    ::
         :: -> dispersion             -0.017360423128 Eh    ::
         :: repulsion energy           0.441932016492 Eh    ::

    * Orbital Energies and Occupations

         #    Occupation            Energy/Eh            Energy/eV
      -------------------------------------------------------------
         1        2.0000           -0.8885459             -24.1786
       ...           ...                  ...                  ...
        15        2.0000           -0.6740457             -18.3417
        16        2.0000           -0.6703751             -18.2418
        17        2.0000           -0.6648368             -18.0911
        18        2.0000           -0.6580337             -17.9060
        19        2.0000           -0.6528113             -17.7639
        20        2.0000           -0.6394611             -17.4006
        21        2.0000           -0.6344228             -17.2635
        22        2.0000           -0.6253226             -17.0159
        23        2.0000           -0.6017088             -16.3733
        24        2.0000           -0.5938675             -16.1600
        25        2.0000           -0.5883404             -16.0096
        26        2.0000           -0.5820729             -15.8390
        27        2.0000           -0.5677531             -15.4493 (HOMO)
        28                         -0.3937610             -10.7148 (LUMO)
        29                         -0.3628613              -9.8740
        30                         -0.1852412              -5.0407
        31                         -0.1349047              -3.6709
        32                         -0.0751649              -2.0453
        33                         -0.0699347              -1.9030
        34                         -0.0647278              -1.7613
        35                         -0.0540746              -1.4714
        36                         -0.0377997              -1.0286
        37                         -0.0204292              -0.5559
        38                         -0.0039463              -0.1074
       ...                                ...                  ...
        53                          0.4744457              12.9103
      -------------------------------------------------------------
                  HL-Gap            0.1739921 Eh            4.7346 eV

     #   Z          covCN         q      C6AA      α(0)
     1   6 C        3.691    -0.080    22.214     6.744
     2   7 N        2.869     0.044    20.476     6.721
     3   6 C        3.055    -0.009    28.190     8.707
     4   6 C        3.050    -0.012    28.272     8.720
     5   7 N        2.876     0.047    20.427     6.713
     6   6 C        3.118     0.103    25.562     8.281
     7   6 C        3.806    -0.075    21.920     6.665
     8   6 C        3.809    -0.070    21.832     6.651
     9   6 C        3.806    -0.075    21.922     6.665
    10   6 C        3.745    -0.022    21.031     6.542
    11   1 H        0.925     0.104     1.751     2.069
    12   1 H        0.924     0.096     1.824     2.112
    13   1 H        0.924     0.096     1.822     2.111
    14   1 H        0.927     0.104     1.753     2.070
    15   1 H        0.927     0.103     1.762     2.076
    16   1 H        0.924     0.088     1.898     2.155
    17   1 H        0.924     0.092     1.863     2.134
    18   1 H        0.924     0.064     2.153     2.295
    19   1 H        0.925     0.077     2.006     2.215
    20   1 H        0.924     0.066     2.131     2.283
    21   1 H        0.925     0.082     1.963     2.191
    22   1 H        0.924     0.089     1.884     2.147
    23   1 H        0.924     0.089     1.893     2.151

Wiberg/Mayer (AO) data.
largest (>0.10) Wiberg bond orders for each atom

     #   Z sym  total        # sym  WBO       # sym  WBO       # sym  WBO
 ---------------------------------------------------------------------------
     1   6 C    3.938 --     2 N    0.992    11 H    0.975    12 H    0.966
                            13 H    0.963
     2   7 N    3.692 --     6 C    1.319     3 C    1.209     1 C    0.992
     3   6 C    3.948 --     4 C    1.609     2 N    1.209    14 H    0.961
     4   6 C    3.950 --     3 C    1.609     5 N    1.210    15 H    0.962
     5   7 N    3.698 --     6 C    1.336     4 C    1.210    10 C    0.968
     6   6 C    3.949 --     5 N    1.336     2 N    1.319     7 C    1.030
     7   6 C    3.984 --     6 C    1.030     8 C    0.999    16 H    0.950
                            17 H    0.938
     8   6 C    3.988 --     9 C    1.010     7 C    0.999    18 H    0.975
                            19 H    0.973
     9   6 C    3.987 --     8 C    1.010    10 C    1.005    20 H    0.974
                            21 H    0.969
    10   6 C    3.943 --     9 C    1.005     5 N    0.968    22 H    0.962
                            23 H    0.954
    11   1 H    0.989 --     1 C    0.975
    12   1 H    0.991 --     1 C    0.966
    13   1 H    0.991 --     1 C    0.963
    14   1 H    0.988 --     3 C    0.961
    15   1 H    0.989 --     4 C    0.962
    16   1 H    0.992 --     7 C    0.950
    17   1 H    0.992 --     7 C    0.938
    18   1 H    0.996 --     8 C    0.975
    19   1 H    0.994 --     8 C    0.973
    20   1 H    0.996 --     9 C    0.974
    21   1 H    0.993 --     9 C    0.969
    22   1 H    0.992 --    10 C    0.962
    23   1 H    0.992 --    10 C    0.954
 ---------------------------------------------------------------------------

molecular dipole:
                 x           y           z       tot (Debye)
 q only:        0.249       1.928      -4.318
   full:        0.261       1.785      -4.302      11.858

           -------------------------------------------------
          | TOTAL ENERGY              -29.264546837433 Eh   |
          | GRADIENT NORM               0.000751472775 Eh/α |
          | HOMO-LUMO GAP               4.734566831244 eV   |
           -------------------------------------------------

 * finished run on 2024/12/20 at 07:15:46.062
