   * xtb version 6.7.1 (edcfbbe) compiled by 'conda@3ef47c1a292c' on 2024-11-25

   ID    Z sym.   atoms
    1    6 C      1, 3, 4, 6-8, 10-13
    2    7 N      2, 5
    3    8 O      9, 14
    4    1 H      15-25

          program call               : xtb C1231.xyz --opt --namespace C1231 --charge +1
          :  Hamiltonian                  GFN2-xTB          :
 * total energy  :   -40.5912042 Eh     change       -0.4495959E-09 Eh
 * total energy  :   -40.5968559 Eh     change       -0.5651698E-02 Eh
 * total energy  :   -40.5983150 Eh     change       -0.1459144E-02 Eh
 * total energy  :   -40.5986005 Eh     change       -0.2854503E-03 Eh
 * total energy  :   -40.5988230 Eh     change       -0.2225490E-03 Eh
 * total energy  :   -40.5989650 Eh     change       -0.1419441E-03 Eh
 * total energy  :   -40.5991753 Eh     change       -0.2103841E-03 Eh
 * total energy  :   -40.5995043 Eh     change       -0.3289241E-03 Eh
 * total energy  :   -40.5999562 Eh     change       -0.4519871E-03 Eh
 * total energy  :   -40.6005037 Eh     change       -0.5474313E-03 Eh
 * total energy  :   -40.6065052 Eh     change       -0.2502156E-04 Eh
 * total energy  :   -40.6065188 Eh     change       -0.1368732E-04 Eh
 * total energy  :   -40.6065305 Eh     change       -0.1162120E-04 Eh
 * total energy  :   -40.6065434 Eh     change       -0.1296946E-04 Eh
 * total energy  :   -40.6065495 Eh     change       -0.6023495E-05 Eh
 * total energy  :   -40.6065567 Eh     change       -0.7261433E-05 Eh
 * total energy  :   -40.6065608 Eh     change       -0.4086770E-05 Eh
 * total energy  :   -40.6065649 Eh     change       -0.4043061E-05 Eh
 * total energy  :   -40.6065677 Eh     change       -0.2883565E-05 Eh
   *** GEOMETRY OPTIMIZATION CONVERGED AFTER 44 ITERATIONS ***

 final structure:
================
25
 xtb: 6.7.1 (edcfbbe)
C            0.07103221030796       -0.78382122801599        0.73228214554692
N            0.04364218617108       -0.69970404287581       -0.70297263546705
C           -0.39193923991068        0.36715909655891       -1.42954894460522
C           -0.20616770043339        0.06775403312973       -2.74371153096279
N            0.32834608379865       -1.18525283127469       -2.80069565906977
C            0.48570333605296       -1.62341710361997       -1.55069291398993
C            0.88598810055523       -1.83358379378868       -3.94930422713782
C            2.42124771286789       -1.97287135286977       -3.71093456959404
O            2.86136752991097       -1.78339492156482       -2.60033936923092
C            3.18501401482535       -2.34558970512376       -4.86878079711564
C            2.82077754858795       -2.63520672562360       -6.17677749019028
C            4.00465384476904       -2.95600228764889       -6.85024392598336
C            5.00798495196492       -2.83981132556778       -5.91776363046964
O            4.52756475009471       -2.48017963994951       -4.74142278213397
H           -0.02940797555372       -1.82015375394290        1.04871360709102
H           -0.74520454546431       -0.19834972278294        1.15125428296974
H            1.01603497436348       -0.39235017426828        1.11410644264978
H           -0.79446267067606        1.24954166968818       -0.97539110138057
H           -0.42070731165765        0.64569284988615       -3.61913446236958
H            0.88706303374133       -2.57765171357618       -1.27133099453549
H            0.47018997007812       -2.83759483176256       -4.07109972107993
H            0.68024729580030       -1.24529987346689       -4.84255363272094
H            1.83419975238221       -2.62466392954987       -6.59300040818837
H            4.11089157602792       -3.23411837499793       -7.87800032327431
H            6.06776057139738       -2.98974031698951       -5.99929735876875

          :  Hamiltonian                  GFN2-xTB          :
         :: total energy             -40.606567737934 Eh    ::
         :: gradient norm              0.000303566463 Eh/a0 ::
         :: HOMO-LUMO gap              3.128439647933 eV    ::
         :: SCC energy               -41.172050740866 Eh    ::
         :: -> dispersion             -0.020568068527 Eh    ::
         :: repulsion energy           0.565483002932 Eh    ::

    * Orbital Energies and Occupations

         #    Occupation            Energy/Eh            Energy/eV
      -------------------------------------------------------------
         1        2.0000           -0.8883624             -24.1736
       ...           ...                  ...                  ...
        24        2.0000           -0.6547993             -17.8180
        25        2.0000           -0.6520837             -17.7441
        26        2.0000           -0.6407170             -17.4348
        27        2.0000           -0.6338704             -17.2485
        28        2.0000           -0.6312179             -17.1763
        29        2.0000           -0.6099112             -16.5965
        30        2.0000           -0.6034777             -16.4215
        31        2.0000           -0.5950113             -16.1911
        32        2.0000           -0.5906819             -16.0733
        33        2.0000           -0.5799543             -15.7814
        34        2.0000           -0.5598537             -15.2344
        35        2.0000           -0.5457550             -14.8508
        36        2.0000           -0.5310135             -14.4496 (HOMO)
        37                         -0.4160455             -11.3212 (LUMO)
        38                         -0.3983304             -10.8391
        39                         -0.3646220              -9.9219
        40                         -0.3167097              -8.6181
        41                         -0.2773943              -7.5483
        42                         -0.1747548              -4.7553
        43                         -0.1273820              -3.4662
        44                         -0.1062612              -2.8915
        45                         -0.0480972              -1.3088
        46                         -0.0418156              -1.1379
        47                         -0.0203697              -0.5543
       ...                                ...                  ...
        67                          0.5627363              15.3128
      -------------------------------------------------------------
                  HL-Gap            0.1149680 Eh            3.1284 eV

     #   Z          covCN         q      C6AA      α(0)
     1   6 C        3.693    -0.087    22.353     6.765
     2   7 N        2.867     0.081    19.832     6.614
     3   6 C        3.071    -0.008    28.132     8.697
     4   6 C        3.065    -0.008    28.162     8.702
     5   7 N        2.873     0.076    19.921     6.629
     6   6 C        3.095     0.056    26.627     8.457
     7   6 C        3.745    -0.056    21.653     6.638
     8   6 C        2.813     0.220    23.364     7.919
     9   8 O        0.857    -0.344    20.600     6.085
    10   6 C        3.120     0.077    26.115     8.370
    11   6 C        3.025    -0.045    29.085     8.846
    12   6 C        3.008    -0.048    29.173     8.860
    13   6 C        3.083     0.102    25.666     8.305
    14   8 O        1.730    -0.120    16.120     5.421
    15   1 H        0.925     0.101     1.778     2.085
    16   1 H        0.925     0.106     1.735     2.060
    17   1 H        0.924     0.110     1.700     2.039
    18   1 H        0.926     0.110     1.698     2.038
    19   1 H        0.926     0.105     1.739     2.062
    20   1 H        0.926     0.125     1.573     1.961
    21   1 H        0.924     0.105     1.739     2.062
    22   1 H        0.925     0.104     1.750     2.069
    23   1 H        0.926     0.064     2.155     2.296
    24   1 H        0.927     0.081     1.969     2.194
    25   1 H        0.926     0.095     1.833     2.117

Wiberg/Mayer (AO) data.
largest (>0.10) Wiberg bond orders for each atom

     #   Z sym  total        # sym  WBO       # sym  WBO       # sym  WBO
 ---------------------------------------------------------------------------
     1   6 C    3.933 --     2 N    0.990    15 H    0.972    16 H    0.971
                            17 H    0.957
     2   7 N    3.720 --     6 C    1.364     3 C    1.223     1 C    0.990
     3   6 C    3.948 --     4 C    1.599     2 N    1.223    18 H    0.961
     4   6 C    3.947 --     3 C    1.599     5 N    1.214    19 H    0.961
     5   7 N    3.710 --     6 C    1.341     4 C    1.214     7 C    1.000
     6   6 C    3.945 --     2 N    1.364     5 N    1.341    20 H    0.952
     7   6 C    3.949 --     5 N    1.000    22 H    0.958    21 H    0.943
                             8 C    0.916
     8   6 C    3.953 --     9 O    1.779    10 C    1.127     7 C    0.916
     9   8 O    2.115 --     8 C    1.779
    10   6 C    3.904 --    11 C    1.426     8 C    1.127    14 O    1.097
                            13 C    0.119
    11   6 C    3.987 --    10 C    1.426    12 C    1.392    23 H    0.971
    12   6 C    3.983 --    13 C    1.505    11 C    1.392    24 H    0.970
    13   6 C    3.915 --    12 C    1.505    14 O    1.218    25 H    0.959
                            10 C    0.119
    14   8 O    2.511 --    13 C    1.218    10 C    1.097
    15   1 H    0.989 --     1 C    0.972
    16   1 H    0.988 --     1 C    0.971
    17   1 H    0.988 --     1 C    0.957
    18   1 H    0.988 --     3 C    0.961
    19   1 H    0.989 --     4 C    0.961
    20   1 H    0.984 --     6 C    0.952
    21   1 H    0.989 --     7 C    0.943
    22   1 H    0.989 --     7 C    0.958
    23   1 H    0.996 --    11 C    0.971
    24   1 H    0.993 --    12 C    0.970
    25   1 H    0.990 --    13 C    0.959
 ---------------------------------------------------------------------------

molecular dipole:
                 x           y           z       tot (Debye)
 q only:        1.130      -2.469      -5.183
   full:        1.085      -2.553      -5.367      15.356

           -------------------------------------------------
          | TOTAL ENERGY              -40.606567737934 Eh   |
          | GRADIENT NORM               0.000303566463 Eh/α |
          | HOMO-LUMO GAP               3.128439647933 eV   |
           -------------------------------------------------

 * finished run on 2024/12/20 at 07:15:42.831
