   * xtb version 6.7.1 (edcfbbe) compiled by 'conda@3ef47c1a292c' on 2024-11-25

   ID    Z sym.   atoms
    1    6 C      1-4, 7-11, 13, 15-22
    2    8 O      5, 6, 24, 25
    3    7 N      12, 14, 23
    4    1 H      26-47

          program call               : xtb C1233.xyz --opt --namespace C1233 --charge +1
          :  Hamiltonian                  GFN2-xTB          :
 * total energy  :   -74.3457257 Eh     change       -0.7719478E-09 Eh
 * total energy  :   -74.3554726 Eh     change       -0.9746870E-02 Eh
 * total energy  :   -74.3570793 Eh     change       -0.1606675E-02 Eh
 * total energy  :   -74.3574282 Eh     change       -0.3489396E-03 Eh
 * total energy  :   -74.3576992 Eh     change       -0.2710289E-03 Eh
 * total energy  :   -74.3578111 Eh     change       -0.1118921E-03 Eh
 * total energy  :   -74.3579994 Eh     change       -0.1882399E-03 Eh
 * total energy  :   -74.3582959 Eh     change       -0.2965559E-03 Eh
 * total energy  :   -74.3585252 Eh     change       -0.2292905E-03 Eh
 * total energy  :   -74.3587656 Eh     change       -0.2403603E-03 Eh
 * total energy  :   -74.3593805 Eh     change       -0.4501258E-04 Eh
 * total energy  :   -74.3594109 Eh     change       -0.3041702E-04 Eh
 * total energy  :   -74.3594401 Eh     change       -0.2920580E-04 Eh
 * total energy  :   -74.3594556 Eh     change       -0.1548250E-04 Eh
 * total energy  :   -74.3594672 Eh     change       -0.1158859E-04 Eh
 * total energy  :   -74.3594732 Eh     change       -0.6003234E-05 Eh
 * total energy  :   -74.3594866 Eh     change       -0.1341853E-04 Eh
 * total energy  :   -74.3594931 Eh     change       -0.6512392E-05 Eh
 * total energy  :   -74.3594976 Eh     change       -0.4479804E-05 Eh
   *** GEOMETRY OPTIMIZATION CONVERGED AFTER 26 ITERATIONS ***

 final structure:
================
47
 xtb: 6.7.1 (edcfbbe)
C            1.42443908417664       -0.09276608296028       -0.12046969438585
C            0.45301253412253       -1.16058314210839        0.36687640557969
C            0.62283879816990       -1.45397019343121        1.85429631607740
C           -0.22025643568471       -2.63311515857676        2.33609116642335
O           -0.63266039222511       -3.55379444917478        1.70740954446292
O           -0.50307023998323       -2.45757526260237        3.65486712400101
C            0.12049962430791       -1.27079135162164        4.12228678474678
C            0.23110615306954       -0.37850512025160        2.88123137560747
C           -1.12697903549031        0.26019746506599        2.50577811544297
C           -1.82130655944670        0.88737499168800        3.65849413368600
C           -1.60229210614534        2.08914242553976        4.27556794810564
N           -2.48324525111497        2.19940317604235        5.30735788276603
C           -3.23246267397306        1.10088807063611        5.32199226571195
N           -2.85144682594205        0.28752274890497        4.33978867478369
C           -3.43976604786917       -0.99405856464564        4.04395699437146
C           -2.62966897519426        3.33999172214268        6.19158323834579
C           -3.77724843859499        4.21713829024829        5.73951196407565
C           -3.58494993677081        5.13675569358415        4.71350841921043
C           -4.63087735786344        5.93305963964316        4.28680468872410
C           -5.87179544427130        5.79776561478475        4.89225952921905
C           -6.08054797008727        4.88524362208359        5.91583832562974
C           -5.02778548732372        4.09313310661778        6.33481617660642
N           -6.97844787670911        6.63306482790945        4.44511597443718
O           -6.74585994519583        7.42268778943193        3.56267504614173
O           -8.04445869906455        6.46342845108916        4.98456870541061
H            1.25610453057441        0.85662055295905        0.38384360831696
H            1.29964118217080        0.06330372001509       -1.18788791647672
H            2.45207118515100       -0.39854580619479        0.05858262897356
H           -0.57195186974684       -0.86188212178008        0.14497136929215
H            0.63585720626158       -2.09321477289589       -0.16889315637646
H            1.67019571915760       -1.73191734370847        2.02778667813572
H            1.11569638816528       -1.51295754224869        4.51234036756143
H           -0.47993377929634       -0.86647180021553        4.93809772495407
H            0.98942263211162        0.39211349893344        3.01154533327586
H           -0.95094271984008        1.01703572764043        1.74073667586967
H           -1.77144175291794       -0.51011909136026        2.08091950446013
H           -0.88386993450591        2.84909625754169        4.04664912875745
H           -4.02014940144390        0.89851561165005        6.02098986436440
H           -4.17817380206467       -1.23679335241833        4.80440631833037
H           -3.93406922621585       -0.96735441033135        3.07168336297859
H           -2.67847471172049       -1.77637320942756        4.02785098137856
H           -2.81066936597440        2.97661357080726        7.20551872581350
H           -1.69391164388260        3.90197559960119        6.17666336594279
H           -2.61374746692477        5.24362944340966        4.25481984876871
H           -4.50294783489761        6.66016462913845        3.49947590223504
H           -7.05719335189374        4.81297309874855        6.36960040856401
H           -5.17914247716399        3.39142943008657        7.14113216969861

          :  Hamiltonian                  GFN2-xTB          :
         :: total energy             -74.359497627606 Eh    ::
         :: gradient norm              0.000707361852 Eh/a0 ::
         :: HOMO-LUMO gap              2.723262274828 eV    ::
         :: SCC energy               -75.325074539262 Eh    ::
         :: -> dispersion             -0.047318342404 Eh    ::
         :: repulsion energy           0.965576911656 Eh    ::

    * Orbital Energies and Occupations

         #    Occupation            Energy/Eh            Energy/eV
      -------------------------------------------------------------
         1        2.0000           -0.9025395             -24.5593
       ...           ...                  ...                  ...
        54        2.0000           -0.5848903             -15.9157
        55        2.0000           -0.5698938             -15.5076
        56        2.0000           -0.5661642             -15.4061
        57        2.0000           -0.5661343             -15.4053
        58        2.0000           -0.5601557             -15.2426
        59        2.0000           -0.5599380             -15.2367
        60        2.0000           -0.5576161             -15.1735
        61        2.0000           -0.5532338             -15.0543
        62        2.0000           -0.5431145             -14.7789
        63        2.0000           -0.5404301             -14.7059
        64        2.0000           -0.5348583             -14.5542
        65        2.0000           -0.5288930             -14.3919
        66        2.0000           -0.5189452             -14.1212 (HOMO)
        67                         -0.4188671             -11.3980 (LUMO)
        68                         -0.4120646             -11.2128
        69                         -0.3768286             -10.2540
        70                         -0.3712870             -10.1032
        71                         -0.3501898              -9.5292
        72                         -0.3388787              -9.2214
        73                         -0.2407059              -6.5499
        74                         -0.1854006              -5.0450
        75                         -0.1465712              -3.9884
        76                         -0.1170530              -3.1852
        77                         -0.1136065              -3.0914
       ...                                ...                  ...
       122                          0.5833016              15.8724
      -------------------------------------------------------------
                  HL-Gap            0.1000780 Eh            2.7233 eV

     #   Z          covCN         q      C6AA      α(0)
     1   6 C        3.752    -0.112    22.704     6.795
     2   6 C        3.801    -0.062    21.682     6.630
     3   6 C        3.893    -0.057    21.536     6.597
     4   6 C        2.785     0.351    21.048     7.515
     5   8 O        0.856    -0.342    20.548     6.078
     6   8 O        1.706    -0.273    18.520     5.810
     7   6 C        3.786     0.064    19.516     6.292
     8   6 C        3.877    -0.029    21.046     6.523
     9   6 C        3.805    -0.078    21.977     6.674
    10   6 C        3.095     0.044    26.893     8.499
    11   6 C        3.076    -0.025    28.545     8.760
    12   7 N        2.857     0.058    20.220     6.679
    13   6 C        3.084     0.043    26.944     8.509
    14   7 N        2.867     0.058    20.228     6.680
    15   6 C        3.692    -0.087    22.345     6.764
    16   6 C        3.747    -0.030    21.182     6.565
    17   6 C        2.971     0.009    27.809     8.650
    18   6 C        2.924    -0.031    28.771     8.796
    19   6 C        2.917    -0.017    28.429     8.743
    20   6 C        2.917     0.011    27.775     8.642
    21   6 C        2.917    -0.017    28.424     8.743
    22   6 C        2.924    -0.032    28.799     8.801
    23   7 N        2.758     0.554    13.436     5.444
    24   8 O        0.930    -0.360    20.865     6.126
    25   8 O        0.930    -0.360    20.859     6.125
    26   1 H        0.925     0.033     2.544     2.494
    27   1 H        0.925     0.057     2.236     2.338
    28   1 H        0.925     0.049     2.327     2.386
    29   1 H        0.924     0.043     2.414     2.430
    30   1 H        0.924     0.072     2.063     2.246
    31   1 H        0.924     0.080     1.984     2.203
    32   1 H        0.924     0.064     2.153     2.294
    33   1 H        0.924     0.047     2.356     2.400
    34   1 H        0.925     0.060     2.199     2.319
    35   1 H        0.924     0.090     1.881     2.145
    36   1 H        0.924     0.081     1.965     2.192
    37   1 H        0.926     0.100     1.785     2.089
    38   1 H        0.926     0.110     1.699     2.038
    39   1 H        0.925     0.096     1.821     2.110
    40   1 H        0.924     0.102     1.764     2.077
    41   1 H        0.924     0.124     1.583     1.968
    42   1 H        0.924     0.092     1.864     2.135
    43   1 H        0.924     0.097     1.809     2.103
    44   1 H        0.926     0.060     2.202     2.321
    45   1 H        0.926     0.100     1.786     2.090
    46   1 H        0.926     0.101     1.780     2.086
    47   1 H        0.926     0.059     2.207     2.323

Wiberg/Mayer (AO) data.
largest (>0.10) Wiberg bond orders for each atom

     #   Z sym  total        # sym  WBO       # sym  WBO       # sym  WBO
 ---------------------------------------------------------------------------
     1   6 C    3.993 --     2 C    1.019    26 H    0.987    28 H    0.986
                            27 H    0.984
     2   6 C    3.988 --     1 C    1.019     3 C    0.993    29 H    0.974
                            30 H    0.969
     3   6 C    3.987 --     2 C    0.993     8 C    0.978     4 C    0.947
                            31 H    0.934
     4   6 C    3.914 --     5 O    1.827     6 O    1.074     3 C    0.947
     5   8 O    2.113 --     4 C    1.827     6 O    0.159
     6   8 O    2.278 --     4 C    1.074     7 C    0.962     5 O    0.159
     7   6 C    3.939 --     8 C    0.989    33 H    0.969    32 H    0.966
                             6 O    0.962
     8   6 C    3.990 --     7 C    0.989     3 C    0.978    34 H    0.969
                             9 C    0.966
     9   6 C    3.984 --    10 C    1.028     8 C    0.966    36 H    0.961
                            35 H    0.956
    10   6 C    3.951 --    11 C    1.543    14 N    1.195     9 C    1.028
    11   6 C    3.941 --    10 C    1.543    12 N    1.221    37 H    0.962
    12   7 N    3.709 --    13 C    1.358    11 C    1.221    16 C    0.961
    13   6 C    3.945 --    12 N    1.358    14 N    1.358    38 H    0.954
    14   7 N    3.709 --    13 C    1.358    10 C    1.195    15 C    0.988
    15   6 C    3.928 --    14 N    0.988    39 H    0.975    40 H    0.959
                            41 H    0.952
    16   6 C    3.938 --    17 C    0.983    43 H    0.961    42 H    0.961
                            12 N    0.961
    17   6 C    3.983 --    22 C    1.413    18 C    1.411    16 C    0.983
    18   6 C    3.990 --    19 C    1.448    17 C    1.411    44 H    0.966
                            21 C    0.109
    19   6 C    3.982 --    18 C    1.448    20 C    1.396    45 H    0.957
                            22 C    0.109
    20   6 C    3.970 --    21 C    1.398    19 C    1.396    23 N    0.939
    21   6 C    3.981 --    22 C    1.446    20 C    1.398    46 H    0.956
                            18 C    0.109
    22   6 C    3.990 --    21 C    1.446    17 C    1.413    47 H    0.966
                            19 C    0.109
    23   7 N    3.916 --    25 O    1.470    24 O    1.469    20 C    0.939
    24   8 O    1.962 --    23 N    1.469    25 O    0.382
    25   8 O    1.963 --    23 N    1.470    24 O    0.382
    26   1 H    0.999 --     1 C    0.987
    27   1 H    0.996 --     1 C    0.984
    28   1 H    0.998 --     1 C    0.986
    29   1 H    0.998 --     2 C    0.974
    30   1 H    0.994 --     2 C    0.969
    31   1 H    0.992 --     3 C    0.934
    32   1 H    0.996 --     7 C    0.966
    33   1 H    0.997 --     7 C    0.969
    34   1 H    0.996 --     8 C    0.969
    35   1 H    0.992 --     9 C    0.956
    36   1 H    0.993 --     9 C    0.961
    37   1 H    0.990 --    11 C    0.962
    38   1 H    0.988 --    13 C    0.954
    39   1 H    0.990 --    15 C    0.975
    40   1 H    0.989 --    15 C    0.959
    41   1 H    0.984 --    15 C    0.952
    42   1 H    0.991 --    16 C    0.961
    43   1 H    0.990 --    16 C    0.961
    44   1 H    0.996 --    18 C    0.966
    45   1 H    0.990 --    19 C    0.957
    46   1 H    0.989 --    21 C    0.956
    47   1 H    0.996 --    22 C    0.966
 ---------------------------------------------------------------------------

molecular dipole:
                 x           y           z       tot (Debye)
 q only:       -3.030       2.627       9.061
   full:       -2.875       2.753       9.414      25.978

           -------------------------------------------------
          | TOTAL ENERGY              -74.359497627606 Eh   |
          | GRADIENT NORM               0.000707361852 Eh/α |
          | HOMO-LUMO GAP               2.723262274828 eV   |
           -------------------------------------------------

 * finished run on 2024/12/20 at 07:15:45.427
