   * xtb version 6.7.1 (edcfbbe) compiled by 'conda@3ef47c1a292c' on 2024-11-25

   ID    Z sym.   atoms
    1    6 C      1-4, 6, 8-19
    2    7 N      5
    3    8 O      7
    4    1 H      20-55

          program call               : xtb C1230.xyz --opt --namespace C1230 --charge +1
          :  Hamiltonian                  GFN2-xTB          :
 * total energy  :   -61.3757494 Eh     change       -0.3209379E-09 Eh
 * total energy  :   -61.3827478 Eh     change       -0.6998430E-02 Eh
 * total energy  :   -61.3845553 Eh     change       -0.1807485E-02 Eh
 * total energy  :   -61.3848570 Eh     change       -0.3016878E-03 Eh
 * total energy  :   -61.3851529 Eh     change       -0.2958780E-03 Eh
 * total energy  :   -61.3852892 Eh     change       -0.1363621E-03 Eh
 * total energy  :   -61.3854083 Eh     change       -0.1190523E-03 Eh
 * total energy  :   -61.3854877 Eh     change       -0.7940427E-04 Eh
 * total energy  :   -61.3855569 Eh     change       -0.6926983E-04 Eh
 * total energy  :   -61.3856464 Eh     change       -0.8940761E-04 Eh
 * total energy  :   -61.3873827 Eh     change       -0.1171413E-04 Eh
 * total energy  :   -61.3873894 Eh     change       -0.6675198E-05 Eh
 * total energy  :   -61.3873978 Eh     change       -0.8384886E-05 Eh
 * total energy  :   -61.3874028 Eh     change       -0.5044203E-05 Eh
 * total energy  :   -61.3874082 Eh     change       -0.5412415E-05 Eh
 * total energy  :   -61.3874155 Eh     change       -0.7267864E-05 Eh
 * total energy  :   -61.3874219 Eh     change       -0.6429170E-05 Eh
 * total energy  :   -61.3874284 Eh     change       -0.6488366E-05 Eh
 * total energy  :   -61.3874332 Eh     change       -0.4768983E-05 Eh
   *** GEOMETRY OPTIMIZATION CONVERGED AFTER 49 ITERATIONS ***

 final structure:
================
55
 xtb: 6.7.1 (edcfbbe)
C           -2.20924935536845       -5.52128763662321        3.18478469339376
C           -1.62585989868165       -4.16248400105108        2.81371870774575
C           -0.68043113315553       -4.22965232282836        1.60819745481184
C           -1.35521757263654       -4.56181004959098        0.27346296496013
N           -1.71287933986890       -3.40408836592468       -0.60704178725063
C           -0.43921377479877       -2.80494601955486       -1.18518077719884
O            0.25324763653457       -3.77018447703814       -1.86000862208974
C            0.52493426081505       -3.55247286579396       -3.26790271490808
C            1.60032623622785       -2.48492426828022       -3.46477206703708
C            3.01320262207528       -2.93208665312317       -3.08056010225226
C            3.19642348594043       -3.07088567329270       -1.57073807492021
C            3.34541128224716       -4.22041735348385       -3.83243590969787
C            2.32387427225108       -5.32529760300686       -3.57749923888738
C            0.86053433535806       -4.94106103227079       -3.84144076929306
C            0.36471979080597       -5.13025335006114       -5.29551581145958
C            1.25827296192839       -4.54253932431041       -6.38285324395963
C            0.14378515306122       -6.61695362847785       -5.58163879666756
C           -2.53655091404768       -3.91526151157339       -1.71898916116520
C           -2.46351102672123       -2.36527006077706        0.11122235938382
H           -2.85448362127307       -5.91771130019006        2.40389007473935
H           -2.80310674030264       -5.43278763112605        4.08984292376289
H           -1.41566900374282       -6.24026749399088        3.36977907231348
H           -2.43789047703628       -3.45471798352664        2.64355132002978
H           -1.04954423571443       -3.79339405415135        3.66321164484213
H           -0.10978100362770       -3.30351046640820        1.53835779623804
H            0.04452246893695       -5.02065914894581        1.80762517357651
H           -0.68819521777064       -5.18316933978063       -0.32669977827005
H           -2.27074695735629       -5.12131788660067        0.46806075399193
H           -0.73386476750188       -1.96381714964926       -1.82559237127805
H            0.14559801306309       -2.42616002911461       -0.33775230885514
H           -0.40608413811651       -3.19001986540032       -3.73299628412748
H            1.32892843099778       -1.59252765408120       -2.89297480099628
H            1.59424865709077       -2.20676273807758       -4.51902098349279
H            3.70306624147827       -2.15227023224189       -3.42195582230588
H            2.98610932066501       -2.12376268888877       -1.07659516089267
H            2.54156113001345       -3.83230994275313       -1.15882401365604
H            4.22476248241178       -3.34400464575801       -1.34879118229098
H            3.40364014594756       -3.99553329329700       -4.89603430789499
H            4.32742299677135       -4.57912959904107       -3.51986344359323
H            2.40535084456366       -5.63290605232675       -2.53371332667170
H            2.57659143516232       -6.19287243031751       -4.18655031688321
H            0.25220727921996       -5.63774659522896       -3.24856912238647
H           -0.61374085697076       -4.63580694048766       -5.36491114638571
H            2.21022871055131       -5.06279109265996       -6.42508012039094
H            0.77199804531146       -4.66352625499972       -7.34824913006880
H            1.43595807466041       -3.48219546888396       -6.23167201368689
H           -0.54675289182146       -7.05910716741820       -4.86645174659339
H           -0.27162609220593       -6.74571147555870       -6.57736210980239
H            1.08072447450238       -7.16507583003196       -5.53645799523892
H           -3.45189212846880       -4.36100787073996       -1.33510950194546
H           -2.79990056970641       -3.10167426356852       -2.39323345527617
H           -1.97768138573672       -4.66864566237159       -2.27170350017654
H           -3.36500317379279       -2.79740748133976        0.54194754654346
H           -1.85952013389247       -1.93485217656493        0.90618391953245
H           -2.75203437827605       -1.57059389740349       -0.57550538591548

          :  Hamiltonian                  GFN2-xTB          :
         :: total energy             -61.387433163862 Eh    ::
         :: gradient norm              0.000399511770 Eh/a0 ::
         :: HOMO-LUMO gap              7.243316140210 eV    ::
         :: SCC energy               -62.216002051606 Eh    ::
         :: -> dispersion             -0.048814274624 Eh    ::
         :: repulsion energy           0.828568887744 Eh    ::

    * Orbital Energies and Occupations

         #    Occupation            Energy/Eh            Energy/eV
      -------------------------------------------------------------
         1        2.0000           -0.8661097             -23.5680
       ...           ...                  ...                  ...
        45        2.0000           -0.5528759             -15.0445
        46        2.0000           -0.5515508             -15.0085
        47        2.0000           -0.5498793             -14.9630
        48        2.0000           -0.5460507             -14.8588
        49        2.0000           -0.5430258             -14.7765
        50        2.0000           -0.5397739             -14.6880
        51        2.0000           -0.5341944             -14.5362
        52        2.0000           -0.5265457             -14.3280
        53        2.0000           -0.5219039             -14.2017
        54        2.0000           -0.5192842             -14.1304
        55        2.0000           -0.5060827             -13.7712
        56        2.0000           -0.5035110             -13.7012
        57        2.0000           -0.4995857             -13.5944 (HOMO)
        58                         -0.2333988              -6.3511 (LUMO)
        59                         -0.1831155              -4.9828
        60                         -0.1469561              -3.9989
        61                         -0.1391980              -3.7878
        62                         -0.1246362              -3.3915
        63                         -0.0689259              -1.8756
        64                         -0.0608345              -1.6554
        65                         -0.0539836              -1.4690
        66                         -0.0345052              -0.9389
        67                         -0.0290256              -0.7898
        68                         -0.0255951              -0.6965
       ...                                ...                  ...
       112                          0.2395411               6.5182
      -------------------------------------------------------------
                  HL-Gap            0.2661870 Eh            7.2433 eV

     #   Z          covCN         q      C6AA      α(0)
     1   6 C        3.752    -0.114    22.747     6.801
     2   6 C        3.799    -0.066    21.761     6.642
     3   6 C        3.800    -0.073    21.902     6.663
     4   6 C        3.758    -0.041    21.353     6.588
     5   7 N        3.618     0.106    19.409     6.543
     6   6 C        3.642     0.122    18.915     6.253
     7   8 O        1.699    -0.299    18.983     5.882
     8   6 C        3.735     0.108    18.884     6.202
     9   6 C        3.805    -0.068    21.794     6.646
    10   6 C        3.851    -0.013    20.766     6.482
    11   6 C        3.753    -0.110    22.664     6.789
    12   6 C        3.806    -0.069    21.815     6.649
    13   6 C        3.803    -0.061    21.675     6.628
    14   6 C        3.850    -0.028    21.041     6.524
    15   6 C        3.848    -0.014    20.786     6.485
    16   6 C        3.755    -0.111    22.677     6.790
    17   6 C        3.757    -0.112    22.696     6.792
    18   6 C        3.723    -0.086    22.258     6.737
    19   6 C        3.713    -0.092    22.403     6.763
    20   1 H        0.925     0.033     2.547     2.496
    21   1 H        0.925     0.057     2.239     2.340
    22   1 H        0.925     0.050     2.316     2.380
    23   1 H        0.924     0.037     2.496     2.471
    24   1 H        0.924     0.057     2.237     2.339
    25   1 H        0.925     0.048     2.344     2.394
    26   1 H        0.924     0.077     2.009     2.217
    27   1 H        0.924     0.099     1.793     2.094
    28   1 H        0.924     0.089     1.885     2.147
    29   1 H        0.924     0.063     2.163     2.300
    30   1 H        0.924     0.078     2.000     2.211
    31   1 H        0.923     0.013     2.838     2.635
    32   1 H        0.924     0.027     2.627     2.535
    33   1 H        0.924     0.051     2.303     2.373
    34   1 H        0.924     0.039     2.463     2.454
    35   1 H        0.925     0.026     2.640     2.541
    36   1 H        0.925     0.044     2.401     2.423
    37   1 H        0.925     0.046     2.374     2.410
    38   1 H        0.925     0.047     2.354     2.399
    39   1 H        0.924     0.045     2.379     2.412
    40   1 H        0.924     0.042     2.427     2.436
    41   1 H        0.925     0.050     2.324     2.384
    42   1 H        0.923     0.038     2.474     2.460
    43   1 H        0.923     0.020     2.730     2.584
    44   1 H        0.925     0.051     2.312     2.378
    45   1 H        0.925     0.047     2.357     2.401
    46   1 H        0.925     0.035     2.521     2.483
    47   1 H        0.925     0.030     2.583     2.513
    48   1 H        0.925     0.050     2.326     2.385
    49   1 H        0.925     0.046     2.368     2.406
    50   1 H        0.925     0.094     1.838     2.120
    51   1 H        0.925     0.090     1.882     2.145
    52   1 H        0.925     0.107     1.726     2.054
    53   1 H        0.925     0.103     1.756     2.072
    54   1 H        0.925     0.101     1.777     2.085
    55   1 H        0.925     0.091     1.871     2.139

Wiberg/Mayer (AO) data.
largest (>0.10) Wiberg bond orders for each atom

     #   Z sym  total        # sym  WBO       # sym  WBO       # sym  WBO
 ---------------------------------------------------------------------------
     1   6 C    3.993 --     2 C    1.021    22 H    0.986    21 H    0.984
                            20 H    0.983
     2   6 C    3.993 --     1 C    1.021     3 C    1.005    23 H    0.975
                            24 H    0.975
     3   6 C    3.985 --     4 C    1.005     2 C    1.005    26 H    0.967
                            25 H    0.965
     4   6 C    3.919 --     3 C    1.005    27 H    0.964    28 H    0.962
                             5 N    0.918
     5   7 N    3.798 --    19 C    0.964    18 C    0.959     4 C    0.918
                             6 C    0.887
     6   6 C    3.933 --     7 O    1.067    29 H    0.957    30 H    0.950
                             5 N    0.887
     7   8 O    2.122 --     6 C    1.067     8 C    0.904
     8   6 C    3.912 --     9 C    0.996    14 C    0.979    31 H    0.959
                             7 O    0.904
     9   6 C    3.993 --     8 C    0.996    10 C    0.995    32 H    0.971
                            33 H    0.965
    10   6 C    3.994 --    11 C    1.010    12 C    0.997     9 C    0.995
                            34 H    0.967
    11   6 C    3.996 --    10 C    1.010    35 H    0.987    37 H    0.985
                            36 H    0.982
    12   6 C    3.996 --    13 C    1.010    10 C    0.997    39 H    0.974
                            38 H    0.972
    13   6 C    3.995 --    12 C    1.010    14 C    0.995    40 H    0.975
                            41 H    0.970
    14   6 C    3.987 --    13 C    0.995     8 C    0.979    15 C    0.978
                            42 H    0.960
    15   6 C    3.994 --    16 C    1.011    17 C    1.008    14 C    0.978
                            43 H    0.966
    16   6 C    3.994 --    15 C    1.011    45 H    0.984    44 H    0.982
                            46 H    0.980
    17   6 C    3.994 --    15 C    1.008    47 H    0.986    48 H    0.985
                            49 H    0.983
    18   6 C    3.928 --    51 H    0.976    50 H    0.975    52 H    0.971
                             5 N    0.959
    19   6 C    3.930 --    55 H    0.975    53 H    0.972    54 H    0.971
                             5 N    0.964
    20   1 H    0.999 --     1 C    0.983
    21   1 H    0.997 --     1 C    0.984
    22   1 H    0.997 --     1 C    0.986
    23   1 H    0.999 --     2 C    0.975
    24   1 H    0.997 --     2 C    0.975
    25   1 H    0.998 --     3 C    0.965
    26   1 H    0.994 --     3 C    0.967
    27   1 H    0.990 --     4 C    0.964
    28   1 H    0.992 --     4 C    0.962
    29   1 H    0.996 --     6 C    0.957
    30   1 H    0.994 --     6 C    0.950
    31   1 H    1.000 --     8 C    0.959
    32   1 H    0.999 --     9 C    0.971
    33   1 H    0.997 --     9 C    0.965
    34   1 H    0.998 --    10 C    0.967
    35   1 H    0.999 --    11 C    0.987
    36   1 H    0.998 --    11 C    0.982
    37   1 H    0.998 --    11 C    0.985
    38   1 H    0.998 --    12 C    0.972
    39   1 H    0.998 --    12 C    0.974
    40   1 H    0.998 --    13 C    0.975
    41   1 H    0.997 --    13 C    0.970
    42   1 H    0.999 --    14 C    0.960
    43   1 H    1.000 --    15 C    0.966
    44   1 H    0.997 --    16 C    0.982
    45   1 H    0.998 --    16 C    0.984
    46   1 H    0.999 --    16 C    0.980
    47   1 H    0.999 --    17 C    0.986
    48   1 H    0.997 --    17 C    0.985
    49   1 H    0.998 --    17 C    0.983
    50   1 H    0.991 --    18 C    0.975
    51   1 H    0.992 --    18 C    0.976
    52   1 H    0.989 --    18 C    0.971
    53   1 H    0.989 --    19 C    0.972
    54   1 H    0.990 --    19 C    0.971
    55   1 H    0.992 --    19 C    0.975
 ---------------------------------------------------------------------------

molecular dipole:
                 x           y           z       tot (Debye)
 q only:       -2.482      -6.754      -1.724
   full:       -2.694      -6.460      -1.774      18.352

           -------------------------------------------------
          | TOTAL ENERGY              -61.387433163862 Eh   |
          | GRADIENT NORM               0.000399511770 Eh/α |
          | HOMO-LUMO GAP               7.243316140210 eV   |
           -------------------------------------------------

 * finished run on 2024/12/20 at 07:15:41.849
