   * xtb version 6.7.1 (edcfbbe) compiled by 'conda@3ef47c1a292c' on 2024-11-25

   ID    Z sym.   atoms
    1    6 C      1-4, 6, 8-10, 13, 16, 19, 22, 25, 29, 30
    2    7 N      5, 7
    3    9 F      11, 12, 14, 15, 17, 18, 20, 21, 23, 24, 26-28
    4    1 H      31-46

          program call               : xtb C1237.xyz --opt --namespace C1237 --charge +1
          :  Hamiltonian                  GFN2-xTB          :
 * total energy  :  -107.2291654 Eh     change       -0.2613987E-08 Eh
 * total energy  :  -107.2424698 Eh     change       -0.1330438E-01 Eh
 * total energy  :  -107.2470777 Eh     change       -0.4607841E-02 Eh
 * total energy  :  -107.2482243 Eh     change       -0.1146625E-02 Eh
 * total energy  :  -107.2488699 Eh     change       -0.6455667E-03 Eh
 * total energy  :  -107.2492520 Eh     change       -0.3821627E-03 Eh
 * total energy  :  -107.2497091 Eh     change       -0.4570653E-03 Eh
 * total energy  :  -107.2502081 Eh     change       -0.4990399E-03 Eh
 * total energy  :  -107.2506058 Eh     change       -0.3976820E-03 Eh
 * total energy  :  -107.2508248 Eh     change       -0.2189690E-03 Eh
 * total energy  :  -107.2535625 Eh     change       -0.6276530E-04 Eh
 * total energy  :  -107.2536007 Eh     change       -0.3825140E-04 Eh
 * total energy  :  -107.2536352 Eh     change       -0.3445760E-04 Eh
 * total energy  :  -107.2536544 Eh     change       -0.1919235E-04 Eh
 * total energy  :  -107.2536670 Eh     change       -0.1268014E-04 Eh
 * total energy  :  -107.2536816 Eh     change       -0.1455085E-04 Eh
 * total energy  :  -107.2536879 Eh     change       -0.6269413E-05 Eh
 * total energy  :  -107.2536978 Eh     change       -0.9938910E-05 Eh
 * total energy  :  -107.2537027 Eh     change       -0.4905265E-05 Eh
   *** GEOMETRY OPTIMIZATION CONVERGED AFTER 51 ITERATIONS ***

 final structure:
================
46
 xtb: 6.7.1 (edcfbbe)
C            1.12957928759718        0.17169620002367        0.60797511301555
C            0.87896968759207        1.56528301220418        0.04376910293213
C            0.71344375683134        1.58268212089981       -1.47635874635008
C           -0.54635639986320        0.86167966087422       -1.97565697451006
N           -1.73996063580313        1.51796032493095       -1.49441213673836
C           -2.29120093761424        2.60625269176975       -2.01547058794855
N           -3.31185803055309        2.99698418101057       -1.25120860767270
C           -4.16254396345960        4.14833638729588       -1.46381073229281
C           -4.09703267856323        5.17096934757354       -0.32266528260378
C           -2.92086854440254        6.15069124016160       -0.39801876182317
F           -2.90795810044694        6.77349822595025       -1.59722739907084
F           -3.08597186847690        7.10369629294674        0.53340990250487
C           -1.51119047880704        5.48678529307057       -0.23095669374833
F           -1.59881815438000        4.39859250386802        0.56665061324895
F           -1.14623709438198        5.01530891231483       -1.44303271290637
C           -0.40232061522649        6.43413069057818        0.32163978733172
F           -0.31720186418313        7.51303524790763       -0.46264740050662
F           -0.74329245366715        6.83151750349383        1.55451924631548
C            0.98568329362406        5.71590324508858        0.41864365313304
F            0.93439726235171        4.84251429945024        1.43833429898131
F            1.21840622845882        4.98881788050075       -0.68950318157903
C            2.16930409290605        6.71395447253272        0.60993479464911
F            2.44700124560063        7.27044980504387       -0.57807045452113
F            1.82866194151002        7.69333724555605        1.45513540698332
C            3.44657720221049        5.98879981546855        1.15156863932598
F            3.31269583485225        5.72303674609608        2.44242956433221
F            3.62955133532504        4.83444387916088        0.51031417106179
F            4.51500396619167        6.73993990441389        0.97464057784694
C           -3.41881752626992        2.11594649114985       -0.21429936633083
C           -2.42844512537180        1.19523094258363       -0.36574093979865
H            0.28078671753326       -0.49212568327182        0.46025910445926
H            1.31945466157874        0.23471327752198        1.67537838910831
H            1.99993515700361       -0.27655322431181        0.13639421245560
H            0.00607457725506        2.01194769586530        0.52768237287343
H            1.73573249342806        2.19425824155178        0.28721868756218
H            0.69571295044669        2.61590262215573       -1.82787400462559
H            1.57264413874062        1.09120791600400       -1.93247398854340
H           -0.56149784332879        0.86411329934333       -3.06706094325269
H           -0.55593372043513       -0.16999083300870       -1.62341633471991
H           -1.96273727487959        3.09792317967181       -2.91101366127207
H           -3.88380554174614        4.62207568882855       -2.40836404714061
H           -5.19601169517779        3.79838399607110       -1.54392874762878
H           -4.98927341184001        5.80086570087191       -0.37070992518114
H           -4.07761036722492        4.68777496586684        0.65553194310395
H           -4.17441187525723        2.19316428194660        0.53998571806544
H           -2.18142962966692        0.34866431099113        0.24183633148950

          :  Hamiltonian                  GFN2-xTB          :
         :: total energy            -107.253702713112 Eh    ::
         :: gradient norm              0.000574905175 Eh/a0 ::
         :: HOMO-LUMO gap              3.549517287072 eV    ::
         :: SCC energy              -107.951451051321 Eh    ::
         :: -> dispersion             -0.046440090097 Eh    ::
         :: repulsion energy           0.697748338209 Eh    ::

    * Orbital Energies and Occupations

         #    Occupation            Energy/Eh            Energy/eV
      -------------------------------------------------------------
         1        2.0000           -1.0447286             -28.4285
       ...           ...                  ...                  ...
        76        2.0000           -0.6471034             -17.6086
        77        2.0000           -0.6464231             -17.5901
        78        2.0000           -0.6392158             -17.3939
        79        2.0000           -0.6250511             -17.0085
        80        2.0000           -0.6197482             -16.8642
        81        2.0000           -0.6109025             -16.6235
        82        2.0000           -0.6068045             -16.5120
        83        2.0000           -0.6007894             -16.3483
        84        2.0000           -0.5961062             -16.2209
        85        2.0000           -0.5873592             -15.9829
        86        2.0000           -0.5613455             -15.2750
        87        2.0000           -0.5530224             -15.0485
        88        2.0000           -0.5469479             -14.8832 (HOMO)
        89                         -0.4165055             -11.3337 (LUMO)
        90                         -0.3790696             -10.3150
        91                         -0.2621639              -7.1338
        92                         -0.2278537              -6.2002
        93                         -0.2020998              -5.4994
        94                         -0.1925161              -5.2386
        95                         -0.1641803              -4.4676
        96                         -0.1559947              -4.2448
        97                         -0.1482616              -4.0344
        98                         -0.1430792              -3.8934
        99                         -0.1394328              -3.7942
       ...                                ...                  ...
       136                          0.4560192              12.4089
      -------------------------------------------------------------
                  HL-Gap            0.1304424 Eh            3.5495 eV

     #   Z          covCN         q      C6AA      α(0)
     1   6 C        3.752    -0.115    22.759     6.803
     2   6 C        3.800    -0.063    21.714     6.635
     3   6 C        3.802    -0.075    21.933     6.668
     4   6 C        3.742    -0.032    21.215     6.571
     5   7 N        2.869     0.083    19.803     6.609
     6   6 C        3.096     0.048    26.817     8.487
     7   7 N        2.868     0.058    20.227     6.680
     8   6 C        3.740    -0.029    21.175     6.566
     9   6 C        3.802    -0.092    22.244     6.715
    10   6 C        3.516     0.324    16.870     6.063
    11   9 F        0.789    -0.189    11.126     3.940
    12   9 F        0.789    -0.183    11.062     3.929
    13   6 C        3.516     0.314    17.008     6.087
    14   9 F        0.788    -0.200    11.234     3.959
    15   9 F        0.789    -0.193    11.160     3.946
    16   6 C        3.515     0.329    16.814     6.055
    17   9 F        0.788    -0.160    10.834     3.888
    18   9 F        0.789    -0.160    10.830     3.887
    19   6 C        3.516     0.319    16.935     6.074
    20   9 F        0.789    -0.173    10.958     3.910
    21   9 F        0.789    -0.175    10.983     3.915
    22   6 C        3.516     0.316    16.979     6.083
    23   9 F        0.789    -0.158    10.815     3.885
    24   9 F        0.788    -0.159    10.820     3.886
    25   6 C        3.326     0.491    17.344     6.616
    26   9 F        0.791    -0.156    10.790     3.880
    27   9 F        0.791    -0.171    10.940     3.907
    28   9 F        0.791    -0.141    10.648     3.855
    29   6 C        3.067    -0.009    28.163     8.702
    30   6 C        3.075    -0.002    27.985     8.673
    31   1 H        0.925     0.031     2.567     2.506
    32   1 H        0.925     0.056     2.245     2.343
    33   1 H        0.925     0.054     2.270     2.356
    34   1 H        0.924     0.029     2.606     2.525
    35   1 H        0.924     0.059     2.205     2.322
    36   1 H        0.924     0.056     2.251     2.346
    37   1 H        0.925     0.082     1.962     2.191
    38   1 H        0.924     0.087     1.913     2.163
    39   1 H        0.925     0.099     1.790     2.092
    40   1 H        0.926     0.123     1.590     1.972
    41   1 H        0.924     0.109     1.708     2.044
    42   1 H        0.924     0.113     1.671     2.022
    43   1 H        0.924     0.126     1.566     1.957
    44   1 H        0.924     0.102     1.764     2.077
    45   1 H        0.926     0.109     1.705     2.042
    46   1 H        0.926     0.117     1.635     1.999

Wiberg/Mayer (AO) data.
largest (>0.10) Wiberg bond orders for each atom

     #   Z sym  total        # sym  WBO       # sym  WBO       # sym  WBO
 ---------------------------------------------------------------------------
     1   6 C    3.993 --     2 C    1.020    33 H    0.986    32 H    0.985
                            31 H    0.984
     2   6 C    3.994 --     1 C    1.020     3 C    1.008    34 H    0.975
                            35 H    0.972
     3   6 C    3.982 --     2 C    1.008     4 C    0.979    36 H    0.974
                            37 H    0.965
     4   6 C    3.930 --     3 C    0.979     5 N    0.965    38 H    0.964
                            39 H    0.961
     5   7 N    3.727 --     6 C    1.379    30 C    1.228     4 C    0.965
     6   6 C    3.947 --     5 N    1.379     7 N    1.347    40 H    0.951
     7   7 N    3.704 --     6 C    1.347    29 C    1.217     8 C    0.979
     8   6 C    3.947 --     9 C    1.000     7 N    0.979    41 H    0.963
                            42 H    0.954
     9   6 C    3.971 --     8 C    1.000    44 H    0.963    10 C    0.962
                            43 H    0.954
    10   6 C    3.870 --    12 F    0.972     9 C    0.962    11 F    0.961
                            13 C    0.901
    11   9 F    1.077 --    10 C    0.961
    12   9 F    1.086 --    10 C    0.972
    13   6 C    3.864 --    15 F    0.963    14 F    0.959    16 C    0.910
                            10 C    0.901
    14   9 F    1.067 --    13 C    0.959
    15   9 F    1.073 --    13 C    0.963
    16   6 C    3.895 --    17 F    0.986    18 F    0.983    13 C    0.910
                            19 C    0.902
    17   9 F    1.106 --    16 C    0.986
    18   9 F    1.104 --    16 C    0.983
    19   6 C    3.886 --    20 F    0.977    21 F    0.974    22 C    0.907
                            16 C    0.902
    20   9 F    1.091 --    19 C    0.977
    21   9 F    1.087 --    19 C    0.974
    22   6 C    3.896 --    24 F    0.986    23 F    0.983    19 C    0.907
                            25 C    0.882
    23   9 F    1.103 --    22 C    0.983
    24   9 F    1.105 --    22 C    0.986
    25   6 C    3.884 --    28 F    0.995    26 F    0.982    27 F    0.966
                            22 C    0.882
    26   9 F    1.118 --    25 C    0.982
    27   9 F    1.100 --    25 C    0.966
    28   9 F    1.135 --    25 C    0.995
    29   6 C    3.946 --    30 C    1.595     7 N    1.217    45 H    0.961
    30   6 C    3.949 --    29 C    1.595     5 N    1.228    46 H    0.958
    31   1 H    0.999 --     1 C    0.984
    32   1 H    0.997 --     1 C    0.985
    33   1 H    0.997 --     1 C    0.986
    34   1 H    0.999 --     2 C    0.975
    35   1 H    0.996 --     2 C    0.972
    36   1 H    0.997 --     3 C    0.974
    37   1 H    0.993 --     3 C    0.965
    38   1 H    0.992 --     4 C    0.964
    39   1 H    0.990 --     4 C    0.961
    40   1 H    0.985 --     6 C    0.951
    41   1 H    0.988 --     8 C    0.963
    42   1 H    0.987 --     8 C    0.954
    43   1 H    0.983 --     9 C    0.954
    44   1 H    0.990 --     9 C    0.963
    45   1 H    0.988 --    29 C    0.961
    46   1 H    0.986 --    30 C    0.958
 ---------------------------------------------------------------------------

molecular dipole:
                 x           y           z       tot (Debye)
 q only:       -5.008       3.878      -2.310
   full:       -5.073       3.962      -2.365      17.430

           -------------------------------------------------
          | TOTAL ENERGY             -107.253702713112 Eh   |
          | GRADIENT NORM               0.000574905175 Eh/α |
          | HOMO-LUMO GAP               3.549517287072 eV   |
           -------------------------------------------------

 * finished run on 2024/12/20 at 07:15:51.238
