   * xtb version 6.7.1 (edcfbbe) compiled by 'conda@3ef47c1a292c' on 2024-11-25

   ID    Z sym.   atoms
    1    6 C      1, 3, 4, 6-14
    2    8 O      2
    3    7 N      5
    4    1 H      15-34

          program call               : xtb C1238.xyz --opt --namespace C1238 --charge +1
          :  Hamiltonian                  GFN2-xTB          :
 * total energy  :   -42.4544705 Eh     change       -0.7040981E-09 Eh
 * total energy  :   -42.4619055 Eh     change       -0.7434966E-02 Eh
 * total energy  :   -42.4638671 Eh     change       -0.1961625E-02 Eh
 * total energy  :   -42.4640863 Eh     change       -0.2191767E-03 Eh
 * total energy  :   -42.4643112 Eh     change       -0.2249581E-03 Eh
 * total energy  :   -42.4644333 Eh     change       -0.1220760E-03 Eh
 * total energy  :   -42.4646061 Eh     change       -0.1728213E-03 Eh
 * total energy  :   -42.4647643 Eh     change       -0.1581644E-03 Eh
 * total energy  :   -42.4648481 Eh     change       -0.8385792E-04 Eh
 * total energy  :   -42.4649019 Eh     change       -0.5374240E-04 Eh
 * total energy  :   -42.4656797 Eh     change       -0.2585158E-04 Eh
 * total energy  :   -42.4657046 Eh     change       -0.2483096E-04 Eh
 * total energy  :   -42.4657280 Eh     change       -0.2347925E-04 Eh
 * total energy  :   -42.4657485 Eh     change       -0.2045988E-04 Eh
 * total energy  :   -42.4657647 Eh     change       -0.1616758E-04 Eh
 * total energy  :   -42.4657766 Eh     change       -0.1192134E-04 Eh
 * total energy  :   -42.4657850 Eh     change       -0.8438297E-05 Eh
 * total energy  :   -42.4657911 Eh     change       -0.6102172E-05 Eh
 * total energy  :   -42.4657957 Eh     change       -0.4575521E-05 Eh
   *** GEOMETRY OPTIMIZATION CONVERGED AFTER 41 ITERATIONS ***

 final structure:
================
34
 xtb: 6.7.1 (edcfbbe)
C            0.30478297144142       -0.81503545732815        1.60908818296254
O            0.19174920827334       -0.69866377063864        0.20542755678991
C            0.88818582964550       -1.69618024616914       -0.49853583125209
C            0.50381911919600       -1.63694546142162       -1.97673371061612
N            1.06630943920107       -0.50368994072867       -2.76508694762910
C            2.55545188930149       -0.62727004991204       -2.92914796548697
C            3.00216267064940       -1.86064339464210       -3.67136444534554
C            3.27037030489219       -3.04442620016882       -2.99019255075468
C            3.70019942623274       -4.16675767878104       -3.67678261803488
C            3.87447810617997       -4.11791926616567       -5.04970688224363
C            3.62837010966892       -2.93911219831572       -5.73355255423345
C            3.19615076500651       -1.81696485285377       -5.04906538166786
C            0.42291432545264       -0.51770081230219       -4.09236027107307
C            0.76802872978502        0.78591029419668       -2.11632256939531
H           -0.09569000357052       -1.77111229181485        1.95822677109312
H           -0.27811388342427        0.00019444863911        2.02870953495734
H            1.34770804532354       -0.72454829306897        1.92990732075611
H            1.97266524516206       -1.59241799097040       -0.34087744058445
H            0.59837007836179       -2.69170598208732       -0.12866097041086
H            0.81252488249642       -2.56303438989520       -2.46481136399373
H           -0.58476593893317       -1.55810886962176       -2.01555238817679
H            2.89208425777938        0.26134450004116       -3.46746526335865
H            3.00233661810617       -0.61066374485684       -1.93423805646094
H            3.16580619675366       -3.08910510059757       -1.91585523293432
H            3.90862090624084       -5.07637294887842       -3.13596002827572
H            4.21514615140410       -4.99123351081176       -5.58260561945323
H            3.78075346772474       -2.88879604862972       -6.80005560900333
H            3.02988621915658       -0.89727883623673       -5.59072923588420
H           -0.64908492933091       -0.36075732295048       -3.98950020641154
H            0.83185555778541        0.27826551934966       -4.71183734809001
H            0.59698148100869       -1.47158020005518       -4.58693292713944
H           -0.29922261908511        0.86357597002105       -1.92031245490992
H            1.28506189569502        0.86545622034868       -1.16399306375136
H            1.07595347641316        1.60694790730226       -2.76095042998578

          :  Hamiltonian                  GFN2-xTB          :
         :: total energy             -42.465795707445 Eh    ::
         :: gradient norm              0.000263834328 Eh/a0 ::
         :: HOMO-LUMO gap              4.636478634740 eV    ::
         :: SCC energy               -43.091887640448 Eh    ::
         :: -> dispersion             -0.029108398561 Eh    ::
         :: repulsion energy           0.626091933003 Eh    ::

    * Orbital Energies and Occupations

         #    Occupation            Energy/Eh            Energy/eV
      -------------------------------------------------------------
         1        2.0000           -0.8589154             -23.3723
       ...           ...                  ...                  ...
        27        2.0000           -0.6236666             -16.9708
        28        2.0000           -0.6106885             -16.6177
        29        2.0000           -0.6074489             -16.5295
        30        2.0000           -0.6057791             -16.4841
        31        2.0000           -0.6031506             -16.4126
        32        2.0000           -0.6012009             -16.3595
        33        2.0000           -0.6002119             -16.3326
        34        2.0000           -0.5760831             -15.6760
        35        2.0000           -0.5498161             -14.9613
        36        2.0000           -0.5451269             -14.8337
        37        2.0000           -0.5321839             -14.4815
        38        2.0000           -0.5306381             -14.4394
        39        2.0000           -0.5298552             -14.4181 (HOMO)
        40                         -0.3594678              -9.7816 (LUMO)
        41                         -0.3488426              -9.4925
        42                         -0.2363828              -6.4323
        43                         -0.2081662              -5.6645
        44                         -0.1532130              -4.1691
        45                         -0.1435556              -3.9063
        46                         -0.1361121              -3.7038
        47                         -0.1091438              -2.9700
        48                         -0.0600117              -1.6330
        49                         -0.0493076              -1.3417
        50                         -0.0391678              -1.0658
       ...                                ...                  ...
        76                          0.5366564              14.6032
      -------------------------------------------------------------
                  HL-Gap            0.1703875 Eh            4.6365 eV

     #   Z          covCN         q      C6AA      α(0)
     1   6 C        3.651     0.026    20.444     6.494
     2   8 O        1.701    -0.315    19.260     5.925
     3   6 C        3.700     0.076    19.460     6.309
     4   6 C        3.761    -0.043    21.386     6.592
     5   7 N        3.621     0.133    18.977     6.470
     6   6 C        3.764    -0.043    21.379     6.591
     7   6 C        2.967    -0.008    28.217     8.713
     8   6 C        2.923    -0.040    28.991     8.830
     9   6 C        2.919    -0.022    28.562     8.764
    10   6 C        2.920    -0.018    28.455     8.748
    11   6 C        2.918    -0.022    28.547     8.762
    12   6 C        2.923    -0.038    28.952     8.824
    13   6 C        3.727    -0.094    22.409     6.759
    14   6 C        3.721    -0.097    22.474     6.771
    15   1 H        0.924     0.048     2.348     2.396
    16   1 H        0.925     0.080     1.981     2.201
    17   1 H        0.924     0.041     2.430     2.438
    18   1 H        0.923     0.040     2.451     2.448
    19   1 H        0.923     0.060     2.196     2.317
    20   1 H        0.924     0.093     1.852     2.128
    21   1 H        0.924     0.103     1.756     2.072
    22   1 H        0.924     0.087     1.913     2.163
    23   1 H        0.924     0.085     1.928     2.171
    24   1 H        0.926     0.036     2.498     2.472
    25   1 H        0.926     0.059     2.215     2.327
    26   1 H        0.926     0.063     2.162     2.299
    27   1 H        0.926     0.060     2.195     2.317
    28   1 H        0.926     0.042     2.417     2.431
    29   1 H        0.925     0.097     1.810     2.104
    30   1 H        0.925     0.099     1.793     2.094
    31   1 H        0.925     0.099     1.794     2.094
    32   1 H        0.925     0.107     1.723     2.053
    33   1 H        0.925     0.112     1.676     2.025
    34   1 H        0.925     0.093     1.854     2.129

Wiberg/Mayer (AO) data.
largest (>0.10) Wiberg bond orders for each atom

     #   Z sym  total        # sym  WBO       # sym  WBO       # sym  WBO
 ---------------------------------------------------------------------------
     1   6 C    3.935 --    17 H    0.979     2 O    0.978    15 H    0.977
                            16 H    0.977
     2   8 O    2.068 --     3 C    0.998     1 C    0.978
     3   6 C    3.962 --     4 C    1.005     2 O    0.998    19 H    0.957
                            18 H    0.956
     4   6 C    3.939 --     3 C    1.005    21 H    0.962    20 H    0.961
                             5 N    0.937
     5   7 N    3.811 --    13 C    0.959    14 C    0.956     4 C    0.937
                             6 C    0.911
     6   6 C    3.929 --     7 C    1.005    22 H    0.965    23 H    0.961
                             5 N    0.911
     7   6 C    3.979 --     8 C    1.408    12 C    1.407     6 C    1.005
                            10 C    0.109
     8   6 C    3.992 --     9 C    1.444     7 C    1.408    24 H    0.967
                            11 C    0.109
     9   6 C    3.990 --     8 C    1.444    10 C    1.438    25 H    0.969
                            12 C    0.109
    10   6 C    3.988 --     9 C    1.438    11 C    1.437    26 H    0.968
                             7 C    0.109
    11   6 C    3.990 --    12 C    1.445    10 C    1.437    27 H    0.968
                             8 C    0.109
    12   6 C    3.991 --    11 C    1.445     7 C    1.407    28 H    0.968
                             9 C    0.109
    13   6 C    3.928 --    29 H    0.975    30 H    0.974    31 H    0.972
                             5 N    0.959
    14   6 C    3.920 --    34 H    0.975    32 H    0.972    33 H    0.970
                             5 N    0.956
    15   1 H    0.998 --     1 C    0.977
    16   1 H    0.994 --     1 C    0.977
    17   1 H    0.998 --     1 C    0.979
    18   1 H    0.998 --     3 C    0.956
    19   1 H    0.996 --     3 C    0.957
    20   1 H    0.991 --     4 C    0.961
    21   1 H    0.989 --     4 C    0.962
    22   1 H    0.992 --     6 C    0.965
    23   1 H    0.993 --     6 C    0.961
    24   1 H    0.999 --     8 C    0.967
    25   1 H    0.996 --     9 C    0.969
    26   1 H    0.995 --    10 C    0.968
    27   1 H    0.996 --    11 C    0.968
    28   1 H    0.998 --    12 C    0.968
    29   1 H    0.990 --    13 C    0.975
    30   1 H    0.990 --    13 C    0.974
    31   1 H    0.990 --    13 C    0.972
    32   1 H    0.988 --    14 C    0.972
    33   1 H    0.987 --    14 C    0.970
    34   1 H    0.991 --    14 C    0.975
 ---------------------------------------------------------------------------

molecular dipole:
                 x           y           z       tot (Debye)
 q only:        2.507      -1.914      -5.159
   full:        2.613      -1.993      -5.056      15.327

           -------------------------------------------------
          | TOTAL ENERGY              -42.465795707445 Eh   |
          | GRADIENT NORM               0.000263834328 Eh/α |
          | HOMO-LUMO GAP               4.636478634740 eV   |
           -------------------------------------------------

 * finished run on 2024/12/20 at 07:15:52.350
