   * xtb version 6.7.1 (edcfbbe) compiled by 'conda@3ef47c1a292c' on 2024-11-25

   ID    Z sym.   atoms
    1    8 O      1, 8
    2    7 N      2, 5
    3    6 C      3, 4, 6
    4   35 Br     7
    5    1 H      9-12

          program call               : xtb C1234.xyz --opt --namespace C1234 --charge +1
          :  Hamiltonian                  GFN2-xTB          :
 * total energy  :   -25.9878701 Eh     change       -0.9844285E-09 Eh
 * total energy  :   -25.9918520 Eh     change       -0.3981866E-02 Eh
 * total energy  :   -25.9933541 Eh     change       -0.1502072E-02 Eh
 * total energy  :   -25.9934675 Eh     change       -0.1134548E-03 Eh
 * total energy  :   -25.9935181 Eh     change       -0.5060960E-04 Eh
 * total energy  :   -25.9935190 Eh     change       -0.8921660E-06 Eh
   *** GEOMETRY OPTIMIZATION CONVERGED AFTER 6 ITERATIONS ***

 final structure:
================
12
 xtb: 6.7.1 (edcfbbe)
O            1.09725142834848        0.13977738778364       -0.25427874383211
N            0.36878689420450       -0.67951369921136       -1.03728908468230
C            0.63217199544741       -1.95747595977253       -1.40618210122013
C           -0.40086662365897       -2.36445381712651       -2.20357776979848
N           -1.26370684526720       -1.32265480772772       -2.29740257648537
C           -0.79433578828055       -0.28660025888665       -1.58262426573156
Br          -1.59633654216630        1.36525805195297       -1.38670082363424
O           -2.42628390862876       -1.24836694686614       -2.97408207576899
H            1.90821720154054       -0.30010575752194        0.05578636034048
H            1.50728899110280       -2.49471168284899       -1.09596260709397
H           -0.55705405955770       -3.30798686339073       -2.68941683448441
H           -2.61703274308425       -2.08288564638404       -3.43721947760893

          :  Hamiltonian                  GFN2-xTB          :
         :: total energy             -25.993519040423 Eh    ::
         :: gradient norm              0.000193822171 Eh/a0 ::
         :: HOMO-LUMO gap              3.855934693242 eV    ::
         :: SCC energy               -26.215885575791 Eh    ::
         :: -> dispersion             -0.009316664407 Eh    ::
         :: repulsion energy           0.222366535368 Eh    ::

    * Orbital Energies and Occupations

         #    Occupation            Energy/Eh            Energy/eV
      -------------------------------------------------------------
         1        2.0000           -1.0118838             -27.5348
       ...           ...                  ...                  ...
        10        2.0000           -0.8045522             -21.8930
        11        2.0000           -0.7928913             -21.5757
        12        2.0000           -0.7754143             -21.1001
        13        2.0000           -0.7506283             -20.4256
        14        2.0000           -0.7494860             -20.3946
        15        2.0000           -0.7075802             -19.2542
        16        2.0000           -0.7061300             -19.2148
        17        2.0000           -0.7014505             -19.0874
        18        2.0000           -0.6836787             -18.6038
        19        2.0000           -0.6490581             -17.6618
        20        2.0000           -0.6231736             -16.9574
        21        2.0000           -0.5969437             -16.2437
        22        2.0000           -0.5859562             -15.9447 (HOMO)
        23                         -0.4442532             -12.0887 (LUMO)
        24                         -0.4134394             -11.2503
        25                         -0.3891175             -10.5884
        26                         -0.3004342              -8.1752
        27                         -0.2418381              -6.5807
        28                         -0.1871592              -5.0929
        29                         -0.1449356              -3.9439
        30                         -0.1380439              -3.7564
        31                         -0.1084191              -2.9502
        32                         -0.0975283              -2.6539
        33                         -0.0743062              -2.0220
       ...                                ...                  ...
        41                          0.4153263              11.3016
      -------------------------------------------------------------
                  HL-Gap            0.1417030 Eh            3.8559 eV

     #   Z          covCN         q      C6AA      α(0)
     1   8 O        1.725    -0.276    18.571     5.819
     2   7 N        2.935     0.201    17.924     6.288
     3   6 C        3.039    -0.033    28.792     8.801
     4   6 C        3.039    -0.033    28.792     8.801
     5   7 N        2.935     0.201    17.924     6.288
     6   6 C        3.016     0.134    25.061     8.212
     7  35 Br       1.010     0.062   183.292    21.829
     8   8 O        1.725    -0.276    18.571     5.819
     9   1 H        0.804     0.371     0.541     1.156
    10   1 H        0.926     0.140     1.463     1.892
    11   1 H        0.926     0.140     1.463     1.892
    12   1 H        0.804     0.371     0.541     1.156

Wiberg/Mayer (AO) data.
largest (>0.10) Wiberg bond orders for each atom

     #   Z sym  total        # sym  WBO       # sym  WBO       # sym  WBO
 ---------------------------------------------------------------------------
     1   8 O    2.054 --     2 N    1.036     9 H    0.846
     2   7 N    3.714 --     6 C    1.270     3 C    1.214     1 O    1.036
     3   6 C    3.928 --     4 C    1.546     2 N    1.214    10 H    0.951
     4   6 C    3.928 --     3 C    1.546     5 N    1.214    11 H    0.951
     5   7 N    3.714 --     6 C    1.270     4 C    1.214     8 O    1.036
     6   6 C    3.935 --     2 N    1.270     5 N    1.270     7 Br   1.110
     7  35 Br   1.332 --     6 C    1.110
     8   8 O    2.054 --     5 N    1.036    12 H    0.846
     9   1 H    0.862 --     1 O    0.846
    10   1 H    0.980 --     3 C    0.951
    11   1 H    0.980 --     4 C    0.951
    12   1 H    0.862 --     8 O    0.846
 ---------------------------------------------------------------------------

molecular dipole:
                 x           y           z       tot (Debye)
 q only:       -0.294      -3.025      -3.287
   full:       -0.159      -3.303      -3.320      11.909

           -------------------------------------------------
          | TOTAL ENERGY              -25.993519040423 Eh   |
          | GRADIENT NORM               0.000193822171 Eh/α |
          | HOMO-LUMO GAP               3.855934693242 eV   |
           -------------------------------------------------

 * finished run on 2024/12/20 at 07:15:45.541
