   * xtb version 6.7.1 (edcfbbe) compiled by 'conda@3ef47c1a292c' on 2024-11-25

   ID    Z sym.   atoms
    1    6 C      1-5, 7, 8, 10-13
    2    7 N      6, 9
    3    1 H      14-32

          program call               : xtb C1232.xyz --opt --namespace C1232 --charge +1
          :  Hamiltonian                  GFN2-xTB          :
 * total energy  :   -38.6919840 Eh     change       -0.1602501E-08 Eh
 * total energy  :   -38.6959163 Eh     change       -0.3932372E-02 Eh
 * total energy  :   -38.6967131 Eh     change       -0.7967488E-03 Eh
 * total energy  :   -38.6969062 Eh     change       -0.1930787E-03 Eh
 * total energy  :   -38.6970382 Eh     change       -0.1320093E-03 Eh
 * total energy  :   -38.6970967 Eh     change       -0.5851516E-04 Eh
 * total energy  :   -38.6971484 Eh     change       -0.5174236E-04 Eh
 * total energy  :   -38.6972134 Eh     change       -0.6493557E-04 Eh
 * total energy  :   -38.6972619 Eh     change       -0.4849209E-04 Eh
 * total energy  :   -38.6972842 Eh     change       -0.2233623E-04 Eh
 * total energy  :   -38.6973032 Eh     change       -0.1897630E-04 Eh
 * total energy  :   -38.6973202 Eh     change       -0.1707917E-04 Eh
 * total energy  :   -38.6973427 Eh     change       -0.2245060E-04 Eh
 * total energy  :   -38.6973537 Eh     change       -0.1104265E-04 Eh
 * total energy  :   -38.6973632 Eh     change       -0.9509730E-05 Eh
 * total energy  :   -38.6973751 Eh     change       -0.1183245E-04 Eh
 * total energy  :   -38.6973834 Eh     change       -0.8282170E-05 Eh
 * total energy  :   -38.6973866 Eh     change       -0.3236030E-05 Eh
   *** GEOMETRY OPTIMIZATION CONVERGED AFTER 18 ITERATIONS ***

 final structure:
================
32
 xtb: 6.7.1 (edcfbbe)
C            1.33803739852283       -0.10603518348089       -0.11720964403836
C            0.82149890916992       -0.30498965962412        1.30277113384559
C            1.03487043818781        0.91625700632611        2.20088062878552
C            0.31201637244750        2.18415610769646        1.74328276177450
C           -1.21757535098983        2.07315888982550        1.75977734344088
N           -1.71716748210410        1.92076829646018        3.10712444996952
C           -1.91939858042883        0.74417744900976        3.75937702409588
C           -2.32327993940676        1.04565080082237        5.02598640696528
N           -2.36076432837414        2.40108959700296        5.12615680450678
C           -1.98407468987451        2.90956383427058        3.95497955864508
C           -2.71142785666184        3.17410963069065        6.30180590526535
C           -1.54353898694373        4.00197539786214        6.76673332905829
C           -1.60234074260334        5.30581476207949        6.95666041275126
H            0.75746239586952        0.63926983319963       -0.65524875506442
H            1.27388866441904       -1.03959797354392       -0.66944311717010
H            2.37835168227314        0.20847467884395       -0.10327347172262
H           -0.23525609170289       -0.58030488078119        1.26628126271124
H            1.35408343097657       -1.14373839350122        1.75410972881852
H            0.73567990625159        0.66878412687900        3.22348692326315
H            2.10285408535738        1.13762698254214        2.22548682991148
H            0.61279216333902        3.01745945906504        2.38230521348804
H            0.61454143858953        2.42555096516883        0.72543376885718
H           -1.65661592317051        2.97551174714786        1.32972221978927
H           -1.53886632280698        1.21140015953331        1.17400792338083
H           -1.77525965144444       -0.20896399921295        3.29336281762121
H           -2.58148534138434        0.39691461550286        5.83797520370635
H           -1.91488846549389        3.95681081057810        3.73343423164127
H           -3.56171574976859        3.82066243436033        6.06776893225849
H           -3.00969911719944        2.47226701183139        7.08492710973166
H           -0.63609137819551        3.44760703454549        6.96015518191478
H           -0.75365948596804        5.86106305591834        7.31412709140004
H           -2.50389140087970        5.86999540298174        6.78299479040080

          :  Hamiltonian                  GFN2-xTB          :
         :: total energy             -38.697386596605 Eh    ::
         :: gradient norm              0.000762514867 Eh/a0 ::
         :: HOMO-LUMO gap              3.412694598259 eV    ::
         :: SCC energy               -39.313088389065 Eh    ::
         :: -> dispersion             -0.024380430439 Eh    ::
         :: repulsion energy           0.615701792460 Eh    ::

    * Orbital Energies and Occupations

         #    Occupation            Energy/Eh            Energy/eV
      -------------------------------------------------------------
         1        2.0000           -0.8930584             -24.3014
       ...           ...                  ...                  ...
        24        2.0000           -0.6206230             -16.8880
        25        2.0000           -0.6081434             -16.5484
        26        2.0000           -0.6026799             -16.3998
        27        2.0000           -0.5996565             -16.3175
        28        2.0000           -0.5883628             -16.0102
        29        2.0000           -0.5837687             -15.8852
        30        2.0000           -0.5748765             -15.6432
        31        2.0000           -0.5686212             -15.4730
        32        2.0000           -0.5646565             -15.3651
        33        2.0000           -0.5493662             -14.9490
        34        2.0000           -0.5434793             -14.7888
        35        2.0000           -0.5353189             -14.5668
        36        2.0000           -0.5301860             -14.4271 (HOMO)
        37                         -0.4047718             -11.0144 (LUMO)
        38                         -0.3680342             -10.0147
        39                         -0.3473363              -9.4515
        40                         -0.1784063              -4.8547
        41                         -0.1272210              -3.4619
        42                         -0.0601497              -1.6368
        43                         -0.0526112              -1.4316
        44                         -0.0435482              -1.1850
        45                         -0.0323886              -0.8813
        46                         -0.0311850              -0.8486
        47                         -0.0197220              -0.5367
       ...                                ...                  ...
        71                          0.4848116              13.1924
      -------------------------------------------------------------
                  HL-Gap            0.1254142 Eh            3.4127 eV

     #   Z          covCN         q      C6AA      α(0)
     1   6 C        3.752    -0.112    22.695     6.794
     2   6 C        3.799    -0.058    21.611     6.619
     3   6 C        3.801    -0.066    21.771     6.643
     4   6 C        3.801    -0.070    21.841     6.654
     5   6 C        3.742    -0.028    21.149     6.561
     6   7 N        2.868     0.071    19.995     6.641
     7   6 C        3.076    -0.005    28.072     8.687
     8   6 C        3.072    -0.007    28.125     8.695
     9   7 N        2.871     0.066    20.089     6.657
    10   6 C        3.103     0.047    26.825     8.487
    11   6 C        3.746    -0.027    21.120     6.555
    12   6 C        2.886    -0.042    29.053     8.837
    13   6 C        2.837    -0.079    29.976     8.972
    14   1 H        0.925     0.036     2.507     2.476
    15   1 H        0.925     0.050     2.324     2.384
    16   1 H        0.925     0.047     2.357     2.401
    17   1 H        0.924     0.024     2.679     2.560
    18   1 H        0.924     0.047     2.364     2.404
    19   1 H        0.924     0.026     2.644     2.543
    20   1 H        0.924     0.060     2.204     2.322
    21   1 H        0.924     0.048     2.349     2.397
    22   1 H        0.925     0.080     1.982     2.201
    23   1 H        0.924     0.080     1.977     2.199
    24   1 H        0.924     0.096     1.824     2.112
    25   1 H        0.926     0.109     1.702     2.040
    26   1 H        0.926     0.106     1.735     2.060
    27   1 H        0.926     0.110     1.692     2.034
    28   1 H        0.924     0.092     1.861     2.134
    29   1 H        0.924     0.096     1.823     2.112
    30   1 H        0.926     0.059     2.214     2.327
    31   1 H        0.926     0.080     1.979     2.200
    32   1 H        0.926     0.067     2.115     2.274

Wiberg/Mayer (AO) data.
largest (>0.10) Wiberg bond orders for each atom

     #   Z sym  total        # sym  WBO       # sym  WBO       # sym  WBO
 ---------------------------------------------------------------------------
     1   6 C    3.994 --     2 C    1.021    16 H    0.986    14 H    0.985
                            15 H    0.985
     2   6 C    3.996 --     1 C    1.021     3 C    1.007    18 H    0.976
                            17 H    0.974
     3   6 C    3.993 --     4 C    1.008     2 C    1.007    19 H    0.975
                            20 H    0.972
     4   6 C    3.983 --     3 C    1.008     5 C    0.981    21 H    0.975
                            22 H    0.964
     5   6 C    3.935 --     4 C    0.981     6 N    0.967    23 H    0.966
                            24 H    0.960
     6   7 N    3.721 --    10 C    1.365     7 C    1.232     5 C    0.967
     7   6 C    3.949 --     8 C    1.581     6 N    1.232    25 H    0.959
     8   6 C    3.948 --     7 C    1.581     9 N    1.234    26 H    0.961
     9   7 N    3.716 --    10 C    1.358     8 C    1.234    11 C    0.960
    10   6 C    3.948 --     6 N    1.365     9 N    1.358    27 H    0.955
    11   6 C    3.937 --    12 C    0.999     9 N    0.960    29 H    0.955
                            28 H    0.955
    12   6 C    3.981 --    13 C    1.988    11 C    0.999    30 H    0.964
    13   6 C    3.983 --    12 C    1.988    32 H    0.972    31 H    0.970
    14   1 H    0.999 --     1 C    0.985
    15   1 H    0.997 --     1 C    0.985
    16   1 H    0.998 --     1 C    0.986
    17   1 H    0.999 --     2 C    0.974
    18   1 H    0.998 --     2 C    0.976
    19   1 H    0.999 --     3 C    0.975
    20   1 H    0.996 --     3 C    0.972
    21   1 H    0.998 --     4 C    0.975
    22   1 H    0.993 --     4 C    0.964
    23   1 H    0.994 --     5 C    0.966
    24   1 H    0.990 --     5 C    0.960
    25   1 H    0.988 --     7 C    0.959
    26   1 H    0.989 --     8 C    0.961
    27   1 H    0.988 --    10 C    0.955
    28   1 H    0.991 --    11 C    0.955
    29   1 H    0.990 --    11 C    0.955
    30   1 H    0.997 --    12 C    0.964
    31   1 H    0.993 --    13 C    0.970
    32   1 H    0.995 --    13 C    0.972
 ---------------------------------------------------------------------------

molecular dipole:
                 x           y           z       tot (Debye)
 q only:       -3.192       4.350       7.620
   full:       -3.326       4.382       7.650      23.951

           -------------------------------------------------
          | TOTAL ENERGY              -38.697386596605 Eh   |
          | GRADIENT NORM               0.000762514867 Eh/α |
          | HOMO-LUMO GAP               3.412694598259 eV   |
           -------------------------------------------------

 * finished run on 2024/12/20 at 07:15:43.634
