   * xtb version 6.7.1 (edcfbbe) compiled by 'conda@3ef47c1a292c' on 2024-11-25

   ID    Z sym.   atoms
    1    6 C      1, 3-9, 11-13, 15, 17-21
    2    8 O      2, 10, 22
    3    7 N      14, 16
    4    1 H      23-43

          program call               : xtb C1236.xyz --opt --namespace C1236 --charge +1
          :  Hamiltonian                  GFN2-xTB          :
 * total energy  :   -64.7387797 Eh     change       -0.1241929E-08 Eh
 * total energy  :   -64.7460849 Eh     change       -0.7305251E-02 Eh
 * total energy  :   -64.7476922 Eh     change       -0.1607296E-02 Eh
 * total energy  :   -64.7483152 Eh     change       -0.6230308E-03 Eh
 * total energy  :   -64.7490918 Eh     change       -0.7765697E-03 Eh
 * total energy  :   -64.7496706 Eh     change       -0.5787933E-03 Eh
 * total energy  :   -64.7503745 Eh     change       -0.7038767E-03 Eh
 * total energy  :   -64.7513129 Eh     change       -0.9384071E-03 Eh
 * total energy  :   -64.7520731 Eh     change       -0.7602100E-03 Eh
 * total energy  :   -64.7526092 Eh     change       -0.5361283E-03 Eh
 * total energy  :   -64.7619601 Eh     change       -0.2798850E-04 Eh
 * total energy  :   -64.7619734 Eh     change       -0.1327117E-04 Eh
 * total energy  :   -64.7619900 Eh     change       -0.1668026E-04 Eh
 * total energy  :   -64.7620042 Eh     change       -0.1416255E-04 Eh
 * total energy  :   -64.7620138 Eh     change       -0.9549348E-05 Eh
 * total energy  :   -64.7620211 Eh     change       -0.7375237E-05 Eh
 * total energy  :   -64.7620300 Eh     change       -0.8843070E-05 Eh
 * total energy  :   -64.7620351 Eh     change       -0.5150187E-05 Eh
 * total energy  :   -64.7620390 Eh     change       -0.3918403E-05 Eh
   *** GEOMETRY OPTIMIZATION CONVERGED AFTER 70 ITERATIONS ***

 final structure:
================
43
 xtb: 6.7.1 (edcfbbe)
C           -0.95707658421002       -1.13829268316767       -1.60476771882930
O            0.12224479440552       -2.03882373811582       -1.44514661556707
C            1.35401761157773       -1.74952029488570       -1.87066970929921
C            1.64192616048362       -0.39667400677433       -2.41321686213669
C            2.69218759534457       -0.26021756558502       -3.22970227990641
C            3.24363629283002        0.96062092926005       -3.78100767842319
C            2.84375801453473        2.23865940898354       -3.37569607522619
C            3.47592220156392        3.36164907656666       -3.85762382628802
C            4.53067788045536        3.25613488551448       -4.77147755106610
O            5.11127751663518        4.43410344803793       -5.12646014521596
C            6.40326438411168        4.47167778589823       -5.69699735169952
C            7.35328850400512        5.24609497631786       -4.77093875966226
C            7.26385906679210        4.77821573428406       -3.31432243781060
N            7.43755618859754        3.34819341548847       -3.16691917797168
C            6.58243594897248        2.51388802393519       -2.57989074348894
N            7.06965541945626        1.27704871985020       -2.61818524011089
C            8.26912965380864        1.32003726469015       -3.25971244998702
C            8.50190505091680        2.61787869402581       -3.60183042082106
C            6.43244755739297        0.09722075272945       -2.09705784504082
C            4.89757928869015        1.99272273969958       -5.22826179441043
C            4.26081264878204        0.87096098222279       -4.73337020813486
O            2.22326604413320       -2.58314509586301       -1.78779864661951
H           -1.84994271468584       -1.70782577478834       -1.35269661693285
H           -1.03442452556191       -0.78092661825539       -2.63426816027330
H           -0.87155882274433       -0.29081212049525       -0.91928593357702
H            1.03263906461405        0.43491433542836       -2.09776149638870
H            3.20807098307704       -1.17354729517250       -3.50494450360474
H            2.04156920401976        2.35253102666064       -2.66460924513883
H            3.16949276183669        4.34806104528203       -3.54655650670848
H            6.79709045408984        3.46782911918146       -5.87387874199170
H            6.33534503038434        4.98826313342162       -6.65896456060742
H            8.36847865746211        5.15111472866359       -5.15502974169467
H            7.08452499602107        6.30193384718642       -4.78138315839801
H            8.02981407282695        5.28919263282880       -2.72431618201381
H            6.28176010362779        5.03464266159096       -2.91323788146606
H            5.64336793542871        2.79291913567005       -2.14206785440350
H            8.86870652309742        0.44770609960542       -3.42326247300405
H            9.34025807592345        3.05694369116351       -4.10246488145995
H            5.92170351256459        0.32499186099394       -1.16332167649417
H            5.69497548955278       -0.27986206964080       -2.80775020454476
H            7.17873573762932       -0.67384934953756       -1.91867461685844
H            5.65259660229744        1.86349415500905       -5.98872949882665
H            4.54761561916169       -0.10075769799520       -5.10952252791391

          :  Hamiltonian                  GFN2-xTB          :
         :: total energy             -64.762039040727 Eh    ::
         :: gradient norm              0.000650631027 Eh/a0 ::
         :: HOMO-LUMO gap              2.058584270408 eV    ::
         :: SCC energy               -65.682445162170 Eh    ::
         :: -> dispersion             -0.044520092748 Eh    ::
         :: repulsion energy           0.920406121443 Eh    ::

    * Orbital Energies and Occupations

         #    Occupation            Energy/Eh            Energy/eV
      -------------------------------------------------------------
         1        2.0000           -0.8989694             -24.4622
       ...           ...                  ...                  ...
        46        2.0000           -0.5890192             -16.0280
        47        2.0000           -0.5804992             -15.7962
        48        2.0000           -0.5789226             -15.7533
        49        2.0000           -0.5745724             -15.6349
        50        2.0000           -0.5608845             -15.2624
        51        2.0000           -0.5591878             -15.2163
        52        2.0000           -0.5447712             -14.8240
        53        2.0000           -0.5350835             -14.5604
        54        2.0000           -0.5326849             -14.4951
        55        2.0000           -0.5278586             -14.3638
        56        2.0000           -0.5160514             -14.0425
        57        2.0000           -0.4909421             -13.3592
        58        2.0000           -0.4841810             -13.1752 (HOMO)
        59                         -0.4085294             -11.1167 (LUMO)
        60                         -0.3789054             -10.3105
        61                         -0.3735197             -10.1640
        62                         -0.3452378              -9.3944
        63                         -0.3104730              -8.4484
        64                         -0.2536789              -6.9030
        65                         -0.1965242              -5.3477
        66                         -0.1887355              -5.1358
        67                         -0.1334627              -3.6317
        68                         -0.1116543              -3.0383
        69                         -0.0776298              -2.1124
       ...                                ...                  ...
       109                          0.6025928              16.3974
      -------------------------------------------------------------
                  HL-Gap            0.0756516 Eh            2.0586 eV

     #   Z          covCN         q      C6AA      α(0)
     1   6 C        3.638     0.024    20.537     6.519
     2   8 O        1.704    -0.239    17.954     5.721
     3   6 C        2.716     0.352    21.015     7.504
     4   6 C        2.889    -0.077    29.915     8.967
     5   6 C        2.910    -0.023    28.591     8.768
     6   6 C        2.968     0.004    27.931     8.669
     7   6 C        2.922    -0.033    28.830     8.805
     8   6 C        2.918    -0.060    29.496     8.906
     9   6 C        2.857     0.138    24.990     8.194
    10   8 O        1.706    -0.269    18.455     5.800
    11   6 C        3.687     0.069    19.604     6.338
    12   6 C        3.800    -0.080    22.026     6.682
    13   6 C        3.741    -0.024    21.074     6.550
    14   7 N        2.867     0.068    20.056     6.651
    15   6 C        3.102     0.046    26.850     8.491
    16   7 N        2.865     0.079    19.864     6.619
    17   6 C        3.075    -0.008    28.145     8.698
    18   6 C        3.071    -0.007    28.128     8.696
    19   6 C        3.692    -0.091    22.427     6.776
    20   6 C        2.914    -0.074    29.839     8.957
    21   6 C        2.929    -0.042    29.042     8.838
    22   8 O        0.858    -0.391    21.509     6.218
    23   1 H        0.925     0.089     1.891     2.151
    24   1 H        0.924     0.056     2.250     2.346
    25   1 H        0.924     0.057     2.239     2.340
    26   1 H        0.926     0.057     2.237     2.339
    27   1 H        0.925     0.067     2.120     2.277
    28   1 H        0.926     0.056     2.252     2.347
    29   1 H        0.926     0.060     2.196     2.317
    30   1 H        0.924     0.037     2.491     2.468
    31   1 H        0.924     0.072     2.059     2.244
    32   1 H        0.925     0.067     2.121     2.278
    33   1 H        0.925     0.091     1.871     2.139
    34   1 H        0.924     0.093     1.848     2.126
    35   1 H        0.924     0.096     1.827     2.113
    36   1 H        0.926     0.113     1.674     2.023
    37   1 H        0.926     0.111     1.685     2.030
    38   1 H        0.926     0.109     1.705     2.042
    39   1 H        0.925     0.102     1.767     2.079
    40   1 H        0.924     0.112     1.682     2.028
    41   1 H        0.925     0.111     1.690     2.033
    42   1 H        0.926     0.037     2.495     2.470
    43   1 H        0.926     0.048     2.348     2.396

Wiberg/Mayer (AO) data.
largest (>0.10) Wiberg bond orders for each atom

     #   Z sym  total        # sym  WBO       # sym  WBO       # sym  WBO
 ---------------------------------------------------------------------------
     1   6 C    3.926 --    24 H    0.978    23 H    0.976    25 H    0.974
                             2 O    0.964
     2   8 O    2.327 --     3 C    1.131     1 C    0.964    22 O    0.163
     3   6 C    3.921 --    22 O    1.721     2 O    1.131     4 C    1.009
     4   6 C    3.979 --     5 C    1.798     3 C    1.009    26 H    0.958
     5   6 C    3.985 --     4 C    1.798     6 C    1.114    27 H    0.956
     6   6 C    3.988 --    21 C    1.367     7 C    1.345     5 C    1.114
     7   6 C    3.988 --     8 C    1.494     6 C    1.345    28 H    0.965
     8   6 C    3.986 --     7 C    1.494     9 C    1.332    29 H    0.966
     9   6 C    3.927 --    20 C    1.361     8 C    1.332    10 O    1.062
    10   8 O    2.229 --     9 C    1.062    11 C    0.973
    11   6 C    3.946 --    12 C    0.994    10 O    0.973    31 H    0.965
                            30 H    0.963
    12   6 C    3.983 --    11 C    0.994    13 C    0.994    32 H    0.973
                            33 H    0.967
    13   6 C    3.939 --    12 C    0.994    14 N    0.968    35 H    0.966
                            34 H    0.955
    14   7 N    3.716 --    15 C    1.361    18 C    1.227    13 C    0.968
    15   6 C    3.948 --    16 N    1.363    14 N    1.361    36 H    0.952
    16   7 N    3.723 --    15 C    1.363    17 C    1.229    19 C    0.989
    17   6 C    3.948 --    18 C    1.590    16 N    1.229    37 H    0.960
    18   6 C    3.949 --    17 C    1.590    14 N    1.227    38 H    0.961
    19   6 C    3.928 --    16 N    0.989    41 H    0.971    39 H    0.969
                            40 H    0.950
    20   6 C    3.987 --    21 C    1.457     9 C    1.361    42 H    0.960
    21   6 C    3.988 --    20 C    1.457     6 C    1.367    43 H    0.966
    22   8 O    2.039 --     3 C    1.721     2 O    0.163
    23   1 H    0.992 --     1 C    0.976
    24   1 H    0.997 --     1 C    0.978
    25   1 H    0.997 --     1 C    0.974
    26   1 H    0.997 --     4 C    0.958
    27   1 H    0.995 --     5 C    0.956
    28   1 H    0.996 --     7 C    0.965
    29   1 H    0.996 --     8 C    0.966
    30   1 H    0.999 --    11 C    0.963
    31   1 H    0.993 --    11 C    0.965
    32   1 H    0.995 --    12 C    0.973
    33   1 H    0.991 --    12 C    0.967
    34   1 H    0.991 --    13 C    0.955
    35   1 H    0.991 --    13 C    0.966
    36   1 H    0.987 --    15 C    0.952
    37   1 H    0.988 --    17 C    0.960
    38   1 H    0.988 --    18 C    0.961
    39   1 H    0.989 --    19 C    0.969
    40   1 H    0.987 --    19 C    0.950
    41   1 H    0.987 --    19 C    0.971
    42   1 H    0.998 --    20 C    0.960
    43   1 H    0.998 --    21 C    0.966
 ---------------------------------------------------------------------------

molecular dipole:
                 x           y           z       tot (Debye)
 q only:       12.827       5.798      -6.068
   full:       12.674       5.987      -6.225      38.984

           -------------------------------------------------
          | TOTAL ENERGY              -64.762039040727 Eh   |
          | GRADIENT NORM               0.000650631027 Eh/α |
          | HOMO-LUMO GAP               2.058584270408 eV   |
           -------------------------------------------------

 * finished run on 2024/12/20 at 07:15:48.703
