   * xtb version 6.7.1 (edcfbbe) compiled by 'conda@3ef47c1a292c' on 2024-11-25

   ID    Z sym.   atoms
    1    6 C      1-8, 10, 11, 13-16, 20, 21, 23, 24
    2    7 N      9, 12
    3   15 P      17
    4    8 O      18, 19, 22
    5    1 H      25-62

          program call               : xtb C1248.xyz --opt --namespace C1248 --charge +1
          :  Hamiltonian                  GFN2-xTB          :
 * total energy  :   -78.1916489 Eh     change       -0.1843148E-09 Eh
 * total energy  :   -78.1998990 Eh     change       -0.8250095E-02 Eh
 * total energy  :   -78.2026315 Eh     change       -0.2732514E-02 Eh
 * total energy  :   -78.2033893 Eh     change       -0.7577813E-03 Eh
 * total energy  :   -78.2039251 Eh     change       -0.5358222E-03 Eh
 * total energy  :   -78.2042526 Eh     change       -0.3275249E-03 Eh
 * total energy  :   -78.2045771 Eh     change       -0.3244560E-03 Eh
 * total energy  :   -78.2049034 Eh     change       -0.3263689E-03 Eh
 * total energy  :   -78.2052286 Eh     change       -0.3251148E-03 Eh
 * total energy  :   -78.2055837 Eh     change       -0.3551790E-03 Eh
 * total energy  :   -78.2195940 Eh     change       -0.1245548E-04 Eh
 * total energy  :   -78.2196073 Eh     change       -0.1337702E-04 Eh
 * total energy  :   -78.2196215 Eh     change       -0.1413815E-04 Eh
 * total energy  :   -78.2196402 Eh     change       -0.1875008E-04 Eh
 * total energy  :   -78.2196530 Eh     change       -0.1274373E-04 Eh
 * total energy  :   -78.2196658 Eh     change       -0.1282772E-04 Eh
 * total energy  :   -78.2196731 Eh     change       -0.7269514E-05 Eh
 * total energy  :   -78.2196795 Eh     change       -0.6443742E-05 Eh
 * total energy  :   -78.2196839 Eh     change       -0.4346751E-05 Eh
   *** GEOMETRY OPTIMIZATION CONVERGED AFTER 96 ITERATIONS ***

 final structure:
================
62
 xtb: 6.7.1 (edcfbbe)
C            2.97097310501973        0.67436132860445        0.04167224526083
C            2.92243051429155        2.05306664252127       -0.60582516493903
C            2.48807896188722        2.01669014431539       -2.07209980000883
C            1.08798688946715        1.44909025189266       -2.31480525006765
C           -0.04360691284840        2.18886000385544       -1.59700423209517
C           -0.16290872794957        3.67505372588504       -1.94628064150480
C           -0.37912109129081        3.97171394090229       -3.43270765564010
C           -1.63593048966301        3.38253530392174       -4.06527664320216
N           -2.89162143143256        4.05439030743600       -3.61027988589780
C           -3.97423434705426        3.90150488064524       -4.60866207161957
C           -4.92651931958393        3.11072652145874       -4.10375963585967
N           -4.64817661253409        2.73987849922097       -2.83049234184088
C           -3.49774853760838        3.48746412804199       -2.36860376789405
C           -5.53128969425388        2.04429830141711       -1.93290845714944
C           -6.41692616625640        2.96411183193824       -1.08196935444322
C           -7.31009411029533        3.87017868906016       -1.91693115966500
P           -8.43533230067903        2.93588723365262       -3.02385117984863
O           -7.81495318818720        2.14716745445671       -4.10385500453375
O           -9.31943829047351        2.04371567729841       -2.03048013881091
C           -9.49923571793850        0.64558304226792       -2.24886256241329
C          -10.81215186227387        0.36154183844090       -2.95561140233271
O           -9.35892608939769        4.15988049615708       -3.46133810991872
C          -10.43860734713857        4.01110226096235       -4.38687723098332
C           -9.95153543288297        3.88649931340492       -5.81992445607316
H            1.97751981886124        0.24212139537728        0.13247876369163
H            3.39839699172976        0.74444397099526        1.03844402546221
H            3.58835068325680       -0.00027864473478       -0.54676030542499
H            2.25931058410946        2.70351039013835       -0.03149139024514
H            3.92011741602135        2.49459851857373       -0.56460396799584
H            2.55436584676683        3.02624023045351       -2.48402310703653
H            3.19651533693074        1.39774446301668       -2.62651502094594
H            0.89888400075825        1.44165855233755       -3.39094647374256
H            1.06823124332632        0.40983906325951       -1.98493595817285
H           -0.97923781054788        1.66535935457181       -1.81740159732156
H            0.11178306743795        2.11218659601901       -0.52048002882596
H           -0.96156714734125        4.12392771229744       -1.34927596692026
H            0.76094022588024        4.17111980964753       -1.64891161784680
H           -0.38263154385333        5.05548805195765       -3.58116686619471
H            0.47262806341314        3.58151657657211       -3.98984752161116
H           -1.58042705680617        3.51581735194352       -5.14788228809561
H           -1.73091113450987        2.31573921083617       -3.86440346897629
H           -2.65742903692989        5.04320235800895       -3.47726025980104
H           -3.84978359084306        4.32013085917223       -5.58232059667269
H           -5.82655516427578        2.76307480970449       -4.58020341861854
H           -3.79496974147861        4.30538088058811       -1.69577802919772
H           -2.79160253944319        2.83502337247109       -1.84748193915245
H           -6.16670352297073        1.40715884736580       -2.54782795491376
H           -4.92662408450737        1.41052600472115       -1.27643290637712
H           -7.04532143155542        2.32730439582380       -0.45797563718889
H           -5.79780376475116        3.57069304858063       -0.41481103714881
H           -7.93828579364036        4.47830077823920       -1.26947888646114
H           -6.72929901230116        4.54279585205085       -2.54886779294962
H           -8.66573440756527        0.26322264208304       -2.84584673872489
H           -9.48411750506424        0.18498711755753       -1.25724060696855
H          -10.78446414618414        0.76084036156127       -3.96757895818880
H          -10.97380581877479       -0.71147174592654       -3.00713090534211
H          -11.63745410685123        0.81791397055529       -2.41449867394639
H          -11.04110870803085        3.14112002373667       -4.10815474243471
H          -11.04288974615351        4.91375360081371       -4.25787327120292
H           -9.33074046939591        3.00177227815380       -5.92828334850890
H          -10.80454353592808        3.80996560669498       -6.48856153056730
H           -9.36501425946942        4.75997051736478       -6.09273607416742

          :  Hamiltonian                  GFN2-xTB          :
         :: total energy             -78.219683863145 Eh    ::
         :: gradient norm              0.000792304326 Eh/a0 ::
         :: HOMO-LUMO gap              4.219528994482 eV    ::
         :: SCC energy               -79.200475423746 Eh    ::
         :: -> dispersion             -0.057075679016 Eh    ::
         :: repulsion energy           0.980791560601 Eh    ::

    * Orbital Energies and Occupations

         #    Occupation            Energy/Eh            Energy/eV
      -------------------------------------------------------------
         1        2.0000           -0.8590446             -23.3758
       ...           ...                  ...                  ...
        59        2.0000           -0.5394227             -14.6784
        60        2.0000           -0.5373100             -14.6210
        61        2.0000           -0.5324630             -14.4891
        62        2.0000           -0.5282738             -14.3751
        63        2.0000           -0.5273458             -14.3498
        64        2.0000           -0.5241615             -14.2632
        65        2.0000           -0.5159855             -14.0407
        66        2.0000           -0.5158394             -14.0367
        67        2.0000           -0.5058155             -13.7639
        68        2.0000           -0.5032875             -13.6951
        69        2.0000           -0.5019807             -13.6596
        70        2.0000           -0.4975141             -13.5380
        71        2.0000           -0.4934681             -13.4279 (HOMO)
        72                         -0.3384032              -9.2084 (LUMO)
        73                         -0.2224113              -6.0521
        74                         -0.1627802              -4.4295
        75                         -0.1576395              -4.2896
        76                         -0.1564971              -4.2585
        77                         -0.1439342              -3.9166
        78                         -0.1435118              -3.9052
        79                         -0.1293491              -3.5198
        80                         -0.0971506              -2.6436
        81                         -0.0793069              -2.1581
        82                         -0.0557875              -1.5181
       ...                                ...                  ...
       139                          1.1469234              31.2094
      -------------------------------------------------------------
                  HL-Gap            0.1550648 Eh            4.2195 eV

     #   Z          covCN         q      C6AA      α(0)
     1   6 C        3.751    -0.106    22.578     6.776
     2   6 C        3.799    -0.055    21.560     6.611
     3   6 C        3.801    -0.062    21.684     6.630
     4   6 C        3.800    -0.063    21.706     6.633
     5   6 C        3.800    -0.062    21.686     6.630
     6   6 C        3.799    -0.069    21.826     6.652
     7   6 C        3.800    -0.078    21.982     6.676
     8   6 C        3.739    -0.035    21.283     6.583
     9   7 N        3.607     0.041    20.516     6.727
    10   6 C        2.918    -0.082    30.039     8.988
    11   6 C        2.915     0.019    27.592     8.614
    12   7 N        2.791    -0.062    22.445     7.036
    13   6 C        3.773     0.035    20.016     6.375
    14   6 C        3.740    -0.024    21.080     6.551
    15   6 C        3.869    -0.070    21.788     6.637
    16   6 C        3.752    -0.100    22.475     6.760
    17  15 P        3.834     0.520   139.142    21.189
    18   8 O        0.808    -0.490    23.588     6.510
    19   8 O        1.656    -0.287    18.791     5.852
    20   6 C        3.882     0.081    19.190     6.228
    21   6 C        3.750    -0.119    22.841     6.816
    22   8 O        1.656    -0.289    18.824     5.857
    23   6 C        3.870     0.083    19.161     6.224
    24   6 C        3.751    -0.125    22.956     6.833
    25   1 H        0.925     0.032     2.555     2.500
    26   1 H        0.925     0.040     2.451     2.448
    27   1 H        0.925     0.040     2.446     2.446
    28   1 H        0.924     0.028     2.620     2.531
    29   1 H        0.924     0.037     2.491     2.468
    30   1 H        0.924     0.027     2.633     2.537
    31   1 H        0.924     0.041     2.432     2.439
    32   1 H        0.924     0.026     2.644     2.543
    33   1 H        0.924     0.047     2.355     2.400
    34   1 H        0.924     0.014     2.825     2.628
    35   1 H        0.924     0.051     2.302     2.373
    36   1 H        0.924     0.021     2.713     2.576
    37   1 H        0.925     0.065     2.137     2.286
    38   1 H        0.924     0.047     2.364     2.404
    39   1 H        0.925     0.083     1.943     2.180
    40   1 H        0.924     0.090     1.880     2.144
    41   1 H        0.925     0.095     1.831     2.116
    42   1 H        0.859     0.219     1.015     1.578
    43   1 H        0.927     0.080     1.980     2.200
    44   1 H        0.926     0.134     1.507     1.920
    45   1 H        0.923     0.077     2.009     2.216
    46   1 H        0.924     0.104     1.750     2.069
    47   1 H        0.925     0.097     1.816     2.108
    48   1 H        0.924     0.061     2.192     2.315
    49   1 H        0.924     0.069     2.095     2.264
    50   1 H        0.924     0.045     2.383     2.414
    51   1 H        0.927     0.085     1.928     2.171
    52   1 H        0.927     0.055     2.258     2.350
    53   1 H        0.924     0.054     2.272     2.357
    54   1 H        0.924     0.056     2.246     2.344
    55   1 H        0.925     0.056     2.245     2.343
    56   1 H        0.925     0.063     2.165     2.301
    57   1 H        0.925     0.062     2.180     2.309
    58   1 H        0.924     0.047     2.355     2.400
    59   1 H        0.924     0.064     2.157     2.297
    60   1 H        0.925     0.069     2.096     2.264
    61   1 H        0.925     0.060     2.197     2.318
    62   1 H        0.925     0.056     2.243     2.342

Wiberg/Mayer (AO) data.
largest (>0.10) Wiberg bond orders for each atom

     #   Z sym  total        # sym  WBO       # sym  WBO       # sym  WBO
 ---------------------------------------------------------------------------
     1   6 C    3.996 --     2 C    1.020    27 H    0.987    26 H    0.987
                            25 H    0.986
     2   6 C    3.997 --     1 C    1.020     3 C    1.008    29 H    0.978
                            28 H    0.976
     3   6 C    3.996 --     2 C    1.008     4 C    1.007    31 H    0.976
                            30 H    0.975
     4   6 C    3.996 --     3 C    1.007     5 C    1.007    32 H    0.975
                            33 H    0.974
     5   6 C    3.995 --     6 C    1.007     4 C    1.007    35 H    0.972
                            34 H    0.970
     6   6 C    3.992 --     5 C    1.007     7 C    1.006    36 H    0.975
                            37 H    0.970
     7   6 C    3.984 --     8 C    1.008     6 C    1.006    38 H    0.970
                            39 H    0.961
     8   6 C    3.922 --     7 C    1.008    40 H    0.965    41 H    0.964
                             9 N    0.920
     9   7 N    3.766 --    13 C    0.951     8 C    0.920    42 H    0.916
                            10 C    0.910
    10   6 C    3.822 --    11 C    1.718    43 H    0.966     9 N    0.910
                            12 N    0.163
    11   6 C    3.959 --    10 C    1.718    12 N    1.216    44 H    0.934
    12   7 N    3.446 --    11 C    1.216    13 C    1.001    14 C    0.989
                            10 C    0.163
    13   6 C    3.940 --    12 N    1.001    45 H    0.960     9 N    0.951
                            46 H    0.951
    14   6 C    3.960 --    15 C    0.992    12 N    0.989    48 H    0.967
                            47 H    0.955
    15   6 C    3.992 --    16 C    1.010    14 C    0.992    50 H    0.974
                            49 H    0.968
    16   6 C    3.994 --    15 C    1.010    52 H    0.958    51 H    0.955
                            17 P    0.912
    17  15 P    5.349 --    18 O    1.840    19 O    1.226    22 O    1.222
                            16 C    0.912
    18   8 O    2.099 --    17 P    1.840
    19   8 O    2.344 --    17 P    1.226    20 C    0.921
    20   6 C    3.918 --    21 C    1.019    54 H    0.971    53 H    0.968
                            19 O    0.921
    21   6 C    3.991 --    20 C    1.019    57 H    0.984    56 H    0.980
                            55 H    0.980
    22   8 O    2.337 --    17 P    1.222    23 C    0.914
    23   6 C    3.916 --    24 C    1.018    59 H    0.970    58 H    0.968
                            22 O    0.914
    24   6 C    3.990 --    23 C    1.018    62 H    0.986    61 H    0.981
                            60 H    0.979
    25   1 H    0.999 --     1 C    0.986
    26   1 H    0.998 --     1 C    0.987
    27   1 H    0.998 --     1 C    0.987
    28   1 H    0.999 --     2 C    0.976
    29   1 H    0.999 --     2 C    0.978
    30   1 H    0.999 --     3 C    0.975
    31   1 H    0.998 --     3 C    0.976
    32   1 H    0.999 --     4 C    0.975
    33   1 H    0.998 --     4 C    0.974
    34   1 H    1.000 --     5 C    0.970
    35   1 H    0.997 --     5 C    0.972
    36   1 H    1.000 --     6 C    0.975
    37   1 H    0.995 --     6 C    0.970
    38   1 H    0.998 --     7 C    0.970
    39   1 H    0.992 --     7 C    0.961
    40   1 H    0.992 --     8 C    0.965
    41   1 H    0.991 --     8 C    0.964
    42   1 H    0.952 --     9 N    0.916
    43   1 H    0.993 --    10 C    0.966
    44   1 H    0.982 --    11 C    0.934
    45   1 H    0.994 --    13 C    0.960
    46   1 H    0.989 --    13 C    0.951
    47   1 H    0.991 --    14 C    0.955
    48   1 H    0.996 --    14 C    0.967
    49   1 H    0.994 --    15 C    0.968
    50   1 H    0.997 --    15 C    0.974
    51   1 H    0.993 --    16 C    0.955
    52   1 H    0.997 --    16 C    0.958
    53   1 H    0.997 --    20 C    0.968
    54   1 H    0.997 --    20 C    0.971
    55   1 H    0.997 --    21 C    0.980
    56   1 H    0.995 --    21 C    0.980
    57   1 H    0.996 --    21 C    0.984
    58   1 H    0.998 --    23 C    0.968
    59   1 H    0.996 --    23 C    0.970
    60   1 H    0.995 --    24 C    0.979
    61   1 H    0.996 --    24 C    0.981
    62   1 H    0.997 --    24 C    0.986
 ---------------------------------------------------------------------------

molecular dipole:
                 x           y           z       tot (Debye)
 q only:       -7.027       6.353      -5.622
   full:       -7.076       6.742      -5.366      28.339

           -------------------------------------------------
          | TOTAL ENERGY              -78.219683863145 Eh   |
          | GRADIENT NORM               0.000792304326 Eh/α |
          | HOMO-LUMO GAP               4.219528994482 eV   |
           -------------------------------------------------

 * finished run on 2024/12/20 at 07:16:15.663
