   * xtb version 6.7.1 (edcfbbe) compiled by 'conda@3ef47c1a292c' on 2024-11-25

   ID    Z sym.   atoms
    1   17 Cl     1
    2    6 C      2-8, 10, 11, 13-30
    3    7 N      9, 12, 32
    4    8 O      31
    5    1 H      33-59

          program call               : xtb C1247.xyz --opt --namespace C1247 --charge +1
          :  Hamiltonian                  GFN2-xTB          :
 * total energy  :   -88.6119856 Eh     change       -0.2103121E-08 Eh
 * total energy  :   -88.6240563 Eh     change       -0.1207064E-01 Eh
 * total energy  :   -88.6277448 Eh     change       -0.3688480E-02 Eh
 * total energy  :   -88.6287591 Eh     change       -0.1014378E-02 Eh
 * total energy  :   -88.6293298 Eh     change       -0.5707128E-03 Eh
 * total energy  :   -88.6296009 Eh     change       -0.2710621E-03 Eh
 * total energy  :   -88.6297800 Eh     change       -0.1790558E-03 Eh
 * total energy  :   -88.6299453 Eh     change       -0.1653193E-03 Eh
 * total energy  :   -88.6301410 Eh     change       -0.1957203E-03 Eh
 * total energy  :   -88.6303871 Eh     change       -0.2460979E-03 Eh
 * total energy  :   -88.6318429 Eh     change       -0.7053103E-05 Eh
 * total energy  :   -88.6318511 Eh     change       -0.8123204E-05 Eh
 * total energy  :   -88.6318598 Eh     change       -0.8756768E-05 Eh
 * total energy  :   -88.6318678 Eh     change       -0.7927077E-05 Eh
 * total energy  :   -88.6318747 Eh     change       -0.6973116E-05 Eh
 * total energy  :   -88.6318825 Eh     change       -0.7744691E-05 Eh
 * total energy  :   -88.6318921 Eh     change       -0.9585426E-05 Eh
 * total energy  :   -88.6319024 Eh     change       -0.1038450E-04 Eh
 * total energy  :   -88.6319050 Eh     change       -0.2510556E-05 Eh
   *** GEOMETRY OPTIMIZATION CONVERGED AFTER 44 ITERATIONS ***

 final structure:
================
59
 xtb: 6.7.1 (edcfbbe)
Cl          -2.33433313780360        0.06278290821248        1.69124191289415
C           -0.72396673289299       -0.04700393035483        1.09240266987717
C            0.01438276181186       -1.20383660323857        1.30529384885432
C            1.30508381778240       -1.28904678185339        0.81945451311709
C            1.87319885877658       -0.22594465062558        0.12617068288357
C            1.12559835329677        0.92680131035132       -0.07683173801049
C           -0.16981380136587        1.01952861071871        0.39810796559959
C            3.28024469095793       -0.33811446909136       -0.41574075061458
N            4.20427085428184       -0.82604102752681        0.58199376082366
C            4.78832623545003       -2.05834362887793        0.58922646238685
C            5.58021147231674       -2.11586342888546        1.68686348309449
N            5.46571487239440       -0.91995784051849        2.34044710196335
C            4.62521063238293       -0.14288109691461        1.65177358379011
C            4.15855802404254        1.21733091258473        1.97996542859255
C            6.29138202007044       -0.57783315018812        3.47498971413213
C            7.76769025153133       -0.40998020426638        3.07769839522093
C            8.21121138660191        1.00347952595878        2.61723873875827
C            7.60465432215565        2.04821784977651        3.54128853297317
C            6.80429718824577        3.08439411063158        3.07783068699347
C            6.26205239359673        4.00766426643544        3.95865450797814
C            6.51346734848360        3.91032220416827        5.31499483702005
C            7.31580569821048        2.88427326124666        5.78759337369475
C            7.85427343935881        1.96194079248490        4.91009898062380
C            9.73868815723587        1.07372674811222        2.64375798683680
C           10.49376581714269        0.04509803753970        2.08807435499061
C           11.87553992149612        0.10924505975095        2.07308023982020
C           12.52981577805209        1.20854357847169        2.60169624500693
C           11.78891282807085        2.24880635969274        3.13294733814457
C           10.40560176975266        2.18571448005700        3.14840992853394
C            7.78187272510606        1.24653646654397        1.15810702032804
O            6.89013855085417        0.62218919638227        0.61163707208254
N            8.45905389937343        2.21991985250329        0.53087464438843
H           -0.42415108539718       -2.03083738505899        1.83967295406610
H            1.87079699203584       -2.19577337439151        0.97832336165230
H            1.55164470467754        1.75689916646254       -0.62022612621248
H           -0.74957327228178        1.91274894295917        0.23142013794689
H            3.30094274615121       -1.03875724659617       -1.25486505455195
H            3.62679383850130        0.63482872611510       -0.77327110514535
H            4.60921414557581       -2.78507193935051       -0.17592519575653
H            6.20271515098361       -2.90730477664428        2.04965640085574
H            4.45475783240226        1.90311430162802        1.18689502640130
H            3.07058722286200        1.23108645381606        2.04746851593956
H            4.58070822067875        1.57449280846224        2.91350007925158
H            5.91237254687194        0.32741684713133        3.94903272019789
H            6.21490567878346       -1.40012628975055        4.19158431608531
H            8.37784381105040       -0.67914500600506        3.93988688804065
H            7.98406107610162       -1.12143716375494        2.28098134695201
H            6.60305395496059        3.18671661565479        2.02219439199683
H            5.64573948515679        4.80773859765844        3.57763386636089
H            6.09531001452024        4.63220084675596        5.99868100360769
H            7.52871800939554        2.80509875940111        6.84240116077997
H            8.49401226320090        1.18024246792607        5.29050050868723
H           10.00955355363435       -0.81427459043435        1.65043933578393
H           12.44121725625958       -0.70270458816299        1.64260505965611
H           13.60726953085696        1.25666073146735        2.59230384185692
H           12.28477598756736        3.11784115905811        3.53724842152252
H            9.84807088060237        3.01173363489114        3.56452389542040
H            9.23470182366857        2.68875943121504        0.96830694029460
H            8.26949723438635        2.40017415030263       -0.44200421439598

          :  Hamiltonian                  GFN2-xTB          :
         :: total energy             -88.631904952631 Eh    ::
         :: gradient norm              0.000249691279 Eh/a0 ::
         :: HOMO-LUMO gap              3.328039663081 eV    ::
         :: SCC energy               -90.059405692327 Eh    ::
         :: -> dispersion             -0.075640745448 Eh    ::
         :: repulsion energy           1.427500739696 Eh    ::

    * Orbital Energies and Occupations

         #    Occupation            Energy/Eh            Energy/eV
      -------------------------------------------------------------
         1        2.0000           -1.1337091             -30.8498
       ...           ...                  ...                  ...
        69        2.0000           -0.5303981             -14.4329
        70        2.0000           -0.5245326             -14.2733
        71        2.0000           -0.5200151             -14.1503
        72        2.0000           -0.5193120             -14.1312
        73        2.0000           -0.5166756             -14.0595
        74        2.0000           -0.5089313             -13.8487
        75        2.0000           -0.5077138             -13.8156
        76        2.0000           -0.5034760             -13.7003
        77        2.0000           -0.4987019             -13.5704
        78        2.0000           -0.4963149             -13.5054
        79        2.0000           -0.4941878             -13.4475
        80        2.0000           -0.4865859             -13.2407
        81        2.0000           -0.4862472             -13.2315 (HOMO)
        82                         -0.3639440              -9.9034 (LUMO)
        83                         -0.3405604              -9.2671
        84                         -0.3371405              -9.1741
        85                         -0.3333119              -9.0699
        86                         -0.3245433              -8.8313
        87                         -0.3225028              -8.7757
        88                         -0.3212204              -8.7409
        89                         -0.3146399              -8.5618
        90                         -0.3113039              -8.4710
        91                         -0.2144441              -5.8353
        92                         -0.2134900              -5.8094
       ...                                ...                  ...
       160                          0.5735420              15.6069
      -------------------------------------------------------------
                  HL-Gap            0.1223032 Eh            3.3280 eV

     #   Z          covCN         q      C6AA      α(0)
     1  17 Cl       0.967    -0.138   103.474    15.562
     2   6 C        2.887     0.105    25.674     8.307
     3   6 C        2.954    -0.036    28.906     8.818
     4   6 C        2.924    -0.037    28.926     8.820
     5   6 C        2.969    -0.004    28.122     8.699
     6   6 C        2.924    -0.036    28.907     8.817
     7   6 C        2.954    -0.036    28.893     8.816
     8   6 C        3.748    -0.027    21.128     6.556
     9   7 N        2.882     0.050    20.367     6.703
    10   6 C        3.046    -0.008    28.164     8.704
    11   6 C        3.062    -0.008    28.166     8.703
    12   7 N        2.872     0.050    20.364     6.702
    13   6 C        3.105     0.127    25.103     8.210
    14   6 C        3.755    -0.129    23.040     6.844
    15   6 C        3.741    -0.017    20.962     6.532
    16   6 C        3.807    -0.061    21.676     6.628
    17   6 C        3.910    -0.020    20.872     6.494
    18   6 C        2.974     0.002    27.966     8.674
    19   6 C        2.923    -0.047    29.162     8.856
    20   6 C        2.919    -0.031    28.774     8.796
    21   6 C        2.919    -0.028    28.694     8.784
    22   6 C        2.919    -0.027    28.687     8.783
    23   6 C        2.925    -0.037    28.921     8.819
    24   6 C        2.977    -0.003    28.104     8.696
    25   6 C        2.924    -0.040    29.003     8.832
    26   6 C        2.920    -0.026    28.649     8.777
    27   6 C        2.919    -0.026    28.645     8.777
    28   6 C        2.919    -0.027    28.681     8.782
    29   6 C        2.923    -0.042    29.047     8.838
    30   6 C        2.751     0.290    22.086     7.695
    31   8 O        0.859    -0.472    23.169     6.454
    32   7 N        2.638    -0.259    26.725     7.678
    33   1 H        0.926     0.073     2.050     2.239
    34   1 H        0.926     0.045     2.380     2.412
    35   1 H        0.926     0.055     2.252     2.347
    36   1 H        0.926     0.076     2.020     2.223
    37   1 H        0.924     0.092     1.858     2.131
    38   1 H        0.924     0.089     1.889     2.149
    39   1 H        0.926     0.095     1.828     2.114
    40   1 H        0.927     0.094     1.839     2.120
    41   1 H        0.925     0.102     1.766     2.078
    42   1 H        0.925     0.092     1.860     2.133
    43   1 H        0.925     0.085     1.923     2.169
    44   1 H        0.925     0.079     1.994     2.208
    45   1 H        0.924     0.079     1.993     2.208
    46   1 H        0.925     0.067     2.124     2.279
    47   1 H        0.925     0.064     2.154     2.295
    48   1 H        0.926     0.027     2.630     2.536
    49   1 H        0.926     0.042     2.423     2.434
    50   1 H        0.926     0.048     2.341     2.393
    51   1 H        0.926     0.048     2.349     2.397
    52   1 H        0.926     0.039     2.459     2.452
    53   1 H        0.926     0.030     2.590     2.517
    54   1 H        0.926     0.046     2.366     2.405
    55   1 H        0.926     0.049     2.326     2.385
    56   1 H        0.926     0.046     2.366     2.406
    57   1 H        0.926     0.035     2.510     2.478
    58   1 H        0.860     0.199     1.110     1.650
    59   1 H        0.860     0.203     1.090     1.636

Wiberg/Mayer (AO) data.
largest (>0.10) Wiberg bond orders for each atom

     #   Z sym  total        # sym  WBO       # sym  WBO       # sym  WBO
 ---------------------------------------------------------------------------
     1  17 Cl   1.156 --     2 C    1.006
     2   6 C    3.926 --     7 C    1.396     3 C    1.391     1 Cl   1.006
     3   6 C    3.988 --     4 C    1.453     2 C    1.391    33 H    0.965
                             6 C    0.106
     4   6 C    3.991 --     3 C    1.453     5 C    1.405    34 H    0.968
                             7 C    0.107
     5   6 C    3.983 --     6 C    1.409     4 C    1.405     8 C    0.988
     6   6 C    3.989 --     7 C    1.447     5 C    1.409    35 H    0.966
                             3 C    0.106
     7   6 C    3.987 --     6 C    1.447     2 C    1.396    36 H    0.965
                             4 C    0.107
     8   6 C    3.945 --     5 C    0.988     9 N    0.971    38 H    0.956
                            37 H    0.956
     9   7 N    3.693 --    13 C    1.327    10 C    1.205     8 C    0.971
    10   6 C    3.949 --    11 C    1.616     9 N    1.205    39 H    0.963
    11   6 C    3.949 --    10 C    1.616    12 N    1.200    40 H    0.963
    12   7 N    3.692 --    13 C    1.331    11 C    1.200    15 C    0.975
    13   6 C    3.954 --    12 N    1.331     9 N    1.327    14 C    1.046
    14   6 C    3.980 --    13 C    1.046    43 H    0.968    42 H    0.953
                            41 H    0.948
    15   6 C    3.947 --    16 C    0.987    12 N    0.975    45 H    0.964
                            44 H    0.958
    16   6 C    3.987 --    15 C    0.987    46 H    0.969    17 C    0.969
                            47 H    0.967
    17   6 C    3.988 --    18 C    0.971    16 C    0.969    24 C    0.961
                            30 C    0.926
    18   6 C    3.986 --    19 C    1.421    23 C    1.397    17 C    0.971
                            21 C    0.110
    19   6 C    3.991 --    20 C    1.432    18 C    1.421    48 H    0.965
                            22 C    0.109
    20   6 C    3.991 --    21 C    1.447    19 C    1.432    49 H    0.970
                            23 C    0.112
    21   6 C    3.990 --    20 C    1.447    22 C    1.430    50 H    0.970
                            18 C    0.110
    22   6 C    3.990 --    23 C    1.454    21 C    1.430    51 H    0.970
                            19 C    0.109
    23   6 C    3.991 --    22 C    1.454    18 C    1.397    52 H    0.967
                            20 C    0.112
    24   6 C    3.983 --    29 C    1.412    25 C    1.408    17 C    0.961
                            27 C    0.109
    25   6 C    3.991 --    26 C    1.448    24 C    1.408    53 H    0.967
                            28 C    0.111
    26   6 C    3.991 --    25 C    1.448    27 C    1.435    54 H    0.970
                            29 C    0.110
    27   6 C    3.989 --    28 C    1.442    26 C    1.435    55 H    0.970
                            24 C    0.109
    28   6 C    3.991 --    27 C    1.442    29 C    1.438    56 H    0.970
                            25 C    0.111
    29   6 C    3.991 --    28 C    1.438    24 C    1.412    57 H    0.965
                            26 C    0.110
    30   6 C    3.940 --    31 O    1.657    32 N    1.296    17 C    0.926
    31   8 O    1.972 --    30 C    1.657    32 N    0.197
    32   7 N    3.406 --    30 C    1.296    59 H    0.937    58 H    0.932
                            31 O    0.197
    33   1 H    0.994 --     3 C    0.965
    34   1 H    0.998 --     4 C    0.968
    35   1 H    0.997 --     6 C    0.966
    36   1 H    0.994 --     7 C    0.965
    37   1 H    0.990 --     8 C    0.956
    38   1 H    0.992 --     8 C    0.956
    39   1 H    0.990 --    10 C    0.963
    40   1 H    0.991 --    11 C    0.963
    41   1 H    0.989 --    14 C    0.948
    42   1 H    0.991 --    14 C    0.953
    43   1 H    0.992 --    14 C    0.968
    44   1 H    0.993 --    15 C    0.958
    45   1 H    0.993 --    15 C    0.964
    46   1 H    0.995 --    16 C    0.969
    47   1 H    0.995 --    16 C    0.967
    48   1 H    0.999 --    19 C    0.965
    49   1 H    0.998 --    20 C    0.970
    50   1 H    0.997 --    21 C    0.970
    51   1 H    0.997 --    22 C    0.970
    52   1 H    0.998 --    23 C    0.967
    53   1 H    0.999 --    25 C    0.967
    54   1 H    0.997 --    26 C    0.970
    55   1 H    0.997 --    27 C    0.970
    56   1 H    0.997 --    28 C    0.970
    57   1 H    0.999 --    29 C    0.965
    58   1 H    0.960 --    32 N    0.932
    59   1 H    0.958 --    32 N    0.937
 ---------------------------------------------------------------------------

molecular dipole:
                 x           y           z       tot (Debye)
 q only:       11.020       0.393       3.302
   full:       10.974       0.513       3.342      29.187

           -------------------------------------------------
          | TOTAL ENERGY              -88.631904952631 Eh   |
          | GRADIENT NORM               0.000249691279 Eh/α |
          | HOMO-LUMO GAP               3.328039663081 eV   |
           -------------------------------------------------

 * finished run on 2024/12/20 at 07:16:10.468
