   * xtb version 6.7.1 (edcfbbe) compiled by 'conda@3ef47c1a292c' on 2024-11-25

   ID    Z sym.   atoms
    1    6 C      1, 3, 4, 6, 7, 9-11, 13-15, 17
    2    8 O      2, 8, 12, 16
    3    7 N      5
    4    1 H      18-45

          program call               : xtb C1249.xyz --opt --namespace C1249 --charge +1
          :  Hamiltonian                  GFN2-xTB          :
 * total energy  :   -58.7093827 Eh     change       -0.1334755E-09 Eh
 * total energy  :   -58.7213406 Eh     change       -0.1195797E-01 Eh
 * total energy  :   -58.7253547 Eh     change       -0.4014053E-02 Eh
 * total energy  :   -58.7259042 Eh     change       -0.5494761E-03 Eh
 * total energy  :   -58.7264756 Eh     change       -0.5713997E-03 Eh
 * total energy  :   -58.7267913 Eh     change       -0.3157477E-03 Eh
 * total energy  :   -58.7271601 Eh     change       -0.3688137E-03 Eh
 * total energy  :   -58.7275196 Eh     change       -0.3594543E-03 Eh
 * total energy  :   -58.7278924 Eh     change       -0.3728014E-03 Eh
 * total energy  :   -58.7283098 Eh     change       -0.4174409E-03 Eh
 * total energy  :   -58.7320688 Eh     change       -0.6649148E-04 Eh
 * total energy  :   -58.7321212 Eh     change       -0.5234402E-04 Eh
 * total energy  :   -58.7321646 Eh     change       -0.4342384E-04 Eh
 * total energy  :   -58.7321932 Eh     change       -0.2862948E-04 Eh
 * total energy  :   -58.7322130 Eh     change       -0.1973897E-04 Eh
 * total energy  :   -58.7322225 Eh     change       -0.9507670E-05 Eh
 * total energy  :   -58.7322333 Eh     change       -0.1080174E-04 Eh
 * total energy  :   -58.7322401 Eh     change       -0.6843272E-05 Eh
 * total energy  :   -58.7322451 Eh     change       -0.4990199E-05 Eh
   *** GEOMETRY OPTIMIZATION CONVERGED AFTER 34 ITERATIONS ***

 final structure:
================
45
 xtb: 6.7.1 (edcfbbe)
C            2.73282263055416        2.60220508553371        0.08162654072261
O            2.03990826249685        1.50032593946822        0.63382753302019
C            1.68364310629211        1.68371094133953        1.98341675678428
C            0.66251543848194        0.63237845617344        2.43756189978196
N            1.00302214882166       -0.79730850192670        2.16164987812171
C            2.46550920604115       -1.05623504362332        2.34934410741759
C            3.04821277655521       -0.78112846314773        3.73821527588156
O            2.76375869547867       -1.86515029100222        4.59201939819447
C            3.48159627161326       -1.83251588277168        5.80941300727297
C            0.26573058512163       -1.70962060807393        3.08981968253092
C           -1.23288667562390       -1.47376695622952        3.32946837141038
O           -1.92854139112205       -2.57452592163550        2.78562889705048
C           -3.30100359954237       -2.59110106878062        3.11103073656004
C            0.71973031409220       -1.10443078401749        0.72050141025922
C           -0.74262283569129       -1.21601905289028        0.29502904771003
O           -1.42081506712154        0.01152799785614        0.47332128349013
C           -2.67430097996067        0.05031427395919       -0.17570164124233
H            2.95483323099069        2.33759033688099       -0.94910597686293
H            3.66554446087193        2.79091788512518        0.62261664173846
H            2.11487226555242        3.50421526150519        0.10442120933108
H            2.58921506310249        1.68279335143103        2.60842683795762
H            1.19706097770144        2.66177914124255        2.11578410560863
H            0.51012788325375        0.75394495588315        3.51049157747648
H           -0.26981868373452        0.83515421204657        1.90966945337633
H            2.64509506445832       -2.11436720028220        2.14708764773526
H            2.99499803605015       -0.46068826037770        1.60548028522207
H            4.13798304097570       -0.68124937710858        3.62091994820407
H            2.67400873114436        0.15333289498434        4.18048984427059
H            4.56022707428432       -1.84703292400612        5.62845836440086
H            3.22682080168276       -0.94271097012037        6.39410793540052
H            3.19087919923675       -2.72577428437306        6.35555490835324
H            0.35627903801831       -2.72471503257454        2.69549077357764
H            0.79064081283688       -1.68582043725226        4.04401572389583
H           -1.42741775538162       -1.42163365358181        4.41040676195132
H           -1.59771946233045       -0.54210630597971        2.87941188051584
H           -3.44715945455457       -2.65453662671893        4.19375292238374
H           -3.80832814702973       -1.69570449349667        2.73476622418174
H           -3.71662111857456       -3.47612056953849        2.63595036776123
H            1.18824000600313       -0.30831992325694        0.13957201483249
H            1.19143420775649       -2.05882535478888        0.48240629314515
H           -0.72826055437746       -1.47614138857107       -0.77397567180503
H           -1.26205824285657       -2.02234086001848        0.82806954924457
H           -2.55781119365922       -0.05969471812132       -1.25790058384065
H           -3.33361432609580       -0.74148999036830        0.19450433977340
H           -3.10625984181025        1.02322421119401        0.04652443721924

          :  Hamiltonian                  GFN2-xTB          :
         :: total energy             -58.732245120997 Eh    ::
         :: gradient norm              0.000628929834 Eh/a0 ::
         :: HOMO-LUMO gap              7.632812573232 eV    ::
         :: SCC energy               -59.333013781304 Eh    ::
         :: -> dispersion             -0.037033323257 Eh    ::
         :: repulsion energy           0.600768660306 Eh    ::

    * Orbital Energies and Occupations

         #    Occupation            Energy/Eh            Energy/eV
      -------------------------------------------------------------
         1        2.0000           -0.8443228             -22.9752
       ...           ...                  ...                  ...
        40        2.0000           -0.5975319             -16.2597
        41        2.0000           -0.5952993             -16.1989
        42        2.0000           -0.5931452             -16.1403
        43        2.0000           -0.5872055             -15.9787
        44        2.0000           -0.5815017             -15.8235
        45        2.0000           -0.5745568             -15.6345
        46        2.0000           -0.5723456             -15.5743
        47        2.0000           -0.5673086             -15.4373
        48        2.0000           -0.5649835             -15.3740
        49        2.0000           -0.5309999             -14.4492
        50        2.0000           -0.5278527             -14.3636
        51        2.0000           -0.5253351             -14.2951
        52        2.0000           -0.5109587             -13.9039 (HOMO)
        53                         -0.2304580              -6.2711 (LUMO)
        54                         -0.1707732              -4.6470
        55                         -0.1584804              -4.3125
        56                         -0.1541929              -4.1958
        57                         -0.1155015              -3.1430
        58                         -0.1096104              -2.9827
        59                         -0.0999438              -2.7196
        60                         -0.0830815              -2.2608
        61                         -0.0581354              -1.5819
        62                         -0.0507724              -1.3816
        63                         -0.0372783              -1.0144
       ...                                ...                  ...
        96                          0.1597926               4.3482
      -------------------------------------------------------------
                  HL-Gap            0.2805007 Eh            7.6328 eV

     #   Z          covCN         q      C6AA      α(0)
     1   6 C        3.651     0.026    20.440     6.494
     2   8 O        1.700    -0.319    19.322     5.935
     3   6 C        3.699     0.072    19.535     6.321
     4   6 C        3.750    -0.052    21.575     6.624
     5   7 N        3.617     0.116    19.249     6.516
     6   6 C        3.768    -0.049    21.483     6.606
     7   6 C        3.698     0.072    19.532     6.321
     8   8 O        1.700    -0.317    19.298     5.931
     9   6 C        3.649     0.026    20.451     6.496
    10   6 C        3.754    -0.056    21.637     6.633
    11   6 C        3.698     0.070    19.566     6.327
    12   8 O        1.701    -0.314    19.236     5.921
    13   6 C        3.650     0.030    20.386     6.486
    14   6 C        3.761    -0.051    21.543     6.617
    15   6 C        3.700     0.063    19.669     6.342
    16   8 O        1.700    -0.322    19.381     5.944
    17   6 C        3.651     0.030    20.372     6.483
    18   1 H        0.925     0.078     2.003     2.213
    19   1 H        0.924     0.043     2.412     2.429
    20   1 H        0.924     0.050     2.317     2.381
    21   1 H        0.923     0.039     2.466     2.456
    22   1 H        0.923     0.063     2.162     2.299
    23   1 H        0.924     0.084     1.942     2.179
    24   1 H        0.924     0.133     1.509     1.921
    25   1 H        0.924     0.103     1.757     2.073
    26   1 H        0.925     0.107     1.726     2.054
    27   1 H        0.923     0.062     2.180     2.309
    28   1 H        0.923     0.042     2.423     2.434
    29   1 H        0.924     0.049     2.338     2.391
    30   1 H        0.924     0.042     2.426     2.436
    31   1 H        0.925     0.081     1.968     2.194
    32   1 H        0.924     0.111     1.690     2.033
    33   1 H        0.925     0.118     1.633     1.999
    34   1 H        0.923     0.050     2.318     2.381
    35   1 H        0.924     0.057     2.238     2.340
    36   1 H        0.924     0.045     2.380     2.413
    37   1 H        0.924     0.038     2.475     2.460
    38   1 H        0.925     0.077     2.014     2.219
    39   1 H        0.924     0.127     1.556     1.950
    40   1 H        0.924     0.084     1.938     2.177
    41   1 H        0.923     0.059     2.213     2.326
    42   1 H        0.924     0.075     2.034     2.230
    43   1 H        0.924     0.046     2.366     2.405
    44   1 H        0.924     0.042     2.429     2.437
    45   1 H        0.925     0.071     2.074     2.252

Wiberg/Mayer (AO) data.
largest (>0.10) Wiberg bond orders for each atom

     #   Z sym  total        # sym  WBO       # sym  WBO       # sym  WBO
 ---------------------------------------------------------------------------
     1   6 C    3.934 --    19 H    0.979    18 H    0.978    20 H    0.977
                             2 O    0.975
     2   8 O    2.075 --     3 C    0.993     1 C    0.975
     3   6 C    3.959 --     4 C    1.001     2 O    0.993    21 H    0.962
                            22 H    0.958
     4   6 C    3.932 --     3 C    1.001    23 H    0.967    24 H    0.943
                             5 N    0.937
     5   7 N    3.804 --     4 C    0.937     6 C    0.936    10 C    0.933
                            14 C    0.929
     6   6 C    3.936 --     7 C    1.004    25 H    0.962    26 H    0.961
                             5 N    0.936
     7   6 C    3.960 --     6 C    1.004     8 O    0.993    27 H    0.959
                            28 H    0.959
     8   8 O    2.075 --     7 C    0.993     9 C    0.976
     9   6 C    3.934 --    30 H    0.979    29 H    0.977    31 H    0.977
                             8 O    0.976
    10   6 C    3.923 --    11 C    1.000    32 H    0.960    33 H    0.951
                             5 N    0.933
    11   6 C    3.958 --    10 C    1.000    12 O    0.991    34 H    0.965
                            35 H    0.957
    12   8 O    2.076 --    11 C    0.991    13 C    0.982
    13   6 C    3.938 --    12 O    0.982    37 H    0.978    38 H    0.977
                            36 H    0.977
    14   6 C    3.927 --    15 C    1.006    40 H    0.967    39 H    0.948
                             5 N    0.929
    15   6 C    3.950 --    14 C    1.006    16 O    0.985    41 H    0.958
                            42 H    0.951
    16   8 O    2.073 --    15 C    0.985    17 C    0.978
    17   6 C    3.938 --    45 H    0.978    16 O    0.978    44 H    0.978
                            43 H    0.977
    18   1 H    0.994 --     1 C    0.978
    19   1 H    0.998 --     1 C    0.979
    20   1 H    0.997 --     1 C    0.977
    21   1 H    0.998 --     3 C    0.962
    22   1 H    0.996 --     3 C    0.958
    23   1 H    0.993 --     4 C    0.967
    24   1 H    0.982 --     4 C    0.943
    25   1 H    0.989 --     6 C    0.962
    26   1 H    0.988 --     6 C    0.961
    27   1 H    0.996 --     7 C    0.959
    28   1 H    0.998 --     7 C    0.959
    29   1 H    0.998 --     9 C    0.977
    30   1 H    0.998 --     9 C    0.979
    31   1 H    0.993 --     9 C    0.977
    32   1 H    0.987 --    10 C    0.960
    33   1 H    0.986 --    10 C    0.951
    34   1 H    0.997 --    11 C    0.965
    35   1 H    0.997 --    11 C    0.957
    36   1 H    0.998 --    13 C    0.977
    37   1 H    0.999 --    13 C    0.978
    38   1 H    0.994 --    13 C    0.977
    39   1 H    0.984 --    14 C    0.948
    40   1 H    0.993 --    14 C    0.967
    41   1 H    0.996 --    15 C    0.958
    42   1 H    0.994 --    15 C    0.951
    43   1 H    0.998 --    17 C    0.977
    44   1 H    0.998 --    17 C    0.978
    45   1 H    0.995 --    17 C    0.978
 ---------------------------------------------------------------------------

molecular dipole:
                 x           y           z       tot (Debye)
 q only:        1.716      -0.768       4.328
   full:        1.777      -0.508       4.475      12.305

           -------------------------------------------------
          | TOTAL ENERGY              -58.732245120997 Eh   |
          | GRADIENT NORM               0.000628929834 Eh/α |
          | HOMO-LUMO GAP               7.632812573232 eV   |
           -------------------------------------------------

 * finished run on 2024/12/20 at 07:16:17.177
