   * xtb version 6.7.1 (edcfbbe) compiled by 'conda@3ef47c1a292c' on 2024-11-25

   ID    Z sym.   atoms
    1    8 O      1
    2    6 C      2, 3
    3    7 N      4
    4    1 H      5-12

          program call               : xtb C1244.xyz --opt --namespace C1244 --charge +1
          :  Hamiltonian                  GFN2-xTB          :
 * total energy  :   -14.8987431 Eh     change       -0.1843503E-10 Eh
 * total energy  :   -14.9002511 Eh     change       -0.1507983E-02 Eh
 * total energy  :   -14.9006324 Eh     change       -0.3813505E-03 Eh
 * total energy  :   -14.9007199 Eh     change       -0.8751837E-04 Eh
 * total energy  :   -14.9007487 Eh     change       -0.2879249E-04 Eh
 * total energy  :   -14.9007601 Eh     change       -0.1139355E-04 Eh
 * total energy  :   -14.9007684 Eh     change       -0.8247513E-05 Eh
 * total energy  :   -14.9007702 Eh     change       -0.1830629E-05 Eh
   *** GEOMETRY OPTIMIZATION CONVERGED AFTER 8 ITERATIONS ***

 final structure:
================
12
 xtb: 6.7.1 (edcfbbe)
O            1.50679512216226        0.12288278634282       -0.16342895524917
C            0.68129274353162        0.60768890776701       -1.20577602012694
C            1.02135125060021        2.09620223589467       -1.32588543440958
N            2.50541297648297        2.18888280815761       -1.25354620340797
H            1.20792663815793       -0.74251716961976        0.13236319323220
H            0.90086736860990        0.08045648111398       -2.14344916180680
H           -0.38031588700296        0.48835458103377       -0.97725124389956
H            0.63803133418146        2.52703244581537       -2.24897858381662
H            0.60533368838695        2.63254713737820       -0.47201975144777
H            2.94620018812079        1.92012101270571       -2.14084076317996
H            2.83885976470877        3.11608848139827       -0.97363657905368
H            2.74829481206009        1.47265029201233       -0.53347049683412

          :  Hamiltonian                  GFN2-xTB          :
         :: total energy             -14.900770213225 Eh    ::
         :: gradient norm              0.000263015884 Eh/a0 ::
         :: HOMO-LUMO gap              8.967265557090 eV    ::
         :: SCC energy               -15.059667583154 Eh    ::
         :: -> dispersion             -0.004028864737 Eh    ::
         :: repulsion energy           0.158897369929 Eh    ::

    * Orbital Energies and Occupations

         #    Occupation            Energy/Eh            Energy/eV
      -------------------------------------------------------------
         1        2.0000           -0.8960410             -24.3825
         2        2.0000           -0.8696315             -23.6639
         3        2.0000           -0.8429739             -22.9385
         4        2.0000           -0.8062022             -21.9379
         5        2.0000           -0.7968155             -21.6825
         6        2.0000           -0.7862671             -21.3954
         7        2.0000           -0.7489536             -20.3801
         8        2.0000           -0.7338174             -19.9682
         9        2.0000           -0.7124536             -19.3869
        10        2.0000           -0.6854202             -18.6512
        11        2.0000           -0.6601233             -17.9629
        12        2.0000           -0.6472333             -17.6121
        13        2.0000           -0.5903148             -16.0633 (HOMO)
        14                         -0.2607739              -7.0960 (LUMO)
        15                         -0.1565521              -4.2600
        16                         -0.1296019              -3.5266
        17                         -0.1070326              -2.9125
        18                         -0.0949065              -2.5825
        19                         -0.0601927              -1.6379
        20                         -0.0336265              -0.9150
        21                         -0.0005900              -0.0161
        22                          0.0328623               0.8942
        23                          0.0796414               2.1672
        24                          0.0934835               2.5438
      -------------------------------------------------------------
                  HL-Gap            0.3295409 Eh            8.9673 eV

     #   Z          covCN         q      C6AA      α(0)
     1   8 O        1.656    -0.442    21.690     6.287
     2   6 C        3.677     0.054    19.885     6.389
     3   6 C        3.730    -0.036    21.318     6.591
     4   7 N        3.486    -0.136    23.944     7.268
     5   1 H        0.805     0.327     0.645     1.261
     6   1 H        0.923     0.065     2.140     2.288
     7   1 H        0.924     0.084     1.940     2.178
     8   1 H        0.925     0.112     1.678     2.026
     9   1 H        0.924     0.122     1.601     1.979
    10   1 H        0.859     0.269     0.812     1.411
    11   1 H        0.859     0.269     0.812     1.412
    12   1 H        0.858     0.313     0.677     1.289

Wiberg/Mayer (AO) data.
largest (>0.10) Wiberg bond orders for each atom

     #   Z sym  total        # sym  WBO       # sym  WBO       # sym  WBO
 ---------------------------------------------------------------------------
     1   8 O    1.973 --     2 C    1.001     5 H    0.875
     2   6 C    3.950 --     3 C    1.003     1 O    1.001     6 H    0.966
                             7 H    0.965
     3   6 C    3.908 --     2 C    1.003     8 H    0.969     9 H    0.965
                             4 N    0.949
     4   7 N    3.667 --     3 C    0.949    11 H    0.915    10 H    0.913
                            12 H    0.855
     5   1 H    0.893 --     1 O    0.875
     6   1 H    0.996 --     2 C    0.966
     7   1 H    0.993 --     2 C    0.965
     8   1 H    0.987 --     3 C    0.969
     9   1 H    0.985 --     3 C    0.965
    10   1 H    0.927 --     4 N    0.913
    11   1 H    0.927 --     4 N    0.915
    12   1 H    0.902 --     4 N    0.855
 ---------------------------------------------------------------------------

molecular dipole:
                 x           y           z       tot (Debye)
 q only:        3.734       3.454      -2.395
   full:        3.764       3.342      -2.441      14.220

           -------------------------------------------------
          | TOTAL ENERGY              -14.900770213225 Eh   |
          | GRADIENT NORM               0.000263015884 Eh/α |
          | HOMO-LUMO GAP               8.967265557090 eV   |
           -------------------------------------------------

 * finished run on 2024/12/20 at 07:16:04.298
