   * xtb version 6.7.1 (edcfbbe) compiled by 'conda@3ef47c1a292c' on 2024-11-25

   ID    Z sym.   atoms
    1    6 C      1-8, 10, 11, 13-16, 18, 19, 21-26
    2    7 N      9, 12
    3   17 Cl     17, 20
    4    8 O      27, 28
    5    1 H      29-61

          program call               : xtb C1241.xyz --opt --namespace C1241 --charge +1
          :  Hamiltonian                  GFN2-xTB          :
 * total energy  :   -86.7209416 Eh     change       -0.4163468E-08 Eh
 * total energy  :   -86.7294093 Eh     change       -0.8467654E-02 Eh
 * total energy  :   -86.7314830 Eh     change       -0.2073701E-02 Eh
 * total energy  :   -86.7319698 Eh     change       -0.4868222E-03 Eh
 * total energy  :   -86.7324132 Eh     change       -0.4433813E-03 Eh
 * total energy  :   -86.7326554 Eh     change       -0.2421599E-03 Eh
 * total energy  :   -86.7328977 Eh     change       -0.2423586E-03 Eh
 * total energy  :   -86.7331433 Eh     change       -0.2455551E-03 Eh
 * total energy  :   -86.7333808 Eh     change       -0.2375350E-03 Eh
 * total energy  :   -86.7336390 Eh     change       -0.2582334E-03 Eh
 * total energy  :   -86.7370904 Eh     change       -0.1295533E-04 Eh
 * total energy  :   -86.7371009 Eh     change       -0.1044057E-04 Eh
 * total energy  :   -86.7371115 Eh     change       -0.1067520E-04 Eh
 * total energy  :   -86.7371232 Eh     change       -0.1168812E-04 Eh
 * total energy  :   -86.7371321 Eh     change       -0.8837218E-05 Eh
 * total energy  :   -86.7371383 Eh     change       -0.6194889E-05 Eh
 * total energy  :   -86.7371438 Eh     change       -0.5552353E-05 Eh
 * total energy  :   -86.7371494 Eh     change       -0.5566150E-05 Eh
 * total energy  :   -86.7371540 Eh     change       -0.4662207E-05 Eh
   *** GEOMETRY OPTIMIZATION CONVERGED AFTER 59 ITERATIONS ***

 final structure:
================
61
 xtb: 6.7.1 (edcfbbe)
C            2.04482340790695        0.21996328882310        0.60481425123003
C            1.43282010859471        1.58202827664658        0.90907421703750
C            1.79786991161112        2.65104030882081       -0.12239662588269
C            1.32958081782489        2.36013094483704       -1.55022367731958
C           -0.17638039283528        2.13528733828628       -1.71040635158602
C           -1.04591782563026        3.32053720361415       -1.28439458133817
C           -0.95709505152714        4.52525482250520       -2.22367362894986
C           -1.73211100340215        4.33371167355215       -3.53236848314111
N           -3.16151477412410        4.29135211429933       -3.30659805422279
C           -3.96778837928810        5.33829828314155       -3.08797887245079
C           -3.55763744044141        6.75751849288523       -3.07979876780518
N           -5.21723547620117        4.91742569761760       -2.84691174572825
C           -5.22952918830271        3.54004355059331       -2.90880819881752
C           -3.91375061443193        3.13937218799110       -3.20075979633353
C           -3.58270721516059        1.79652441214434       -3.33029622675082
C           -4.59261752513582        0.86832783053330       -3.15419334534384
Cl          -4.23350706590066       -0.80008786865808       -3.29815877973974
C           -5.91424394008037        1.27150917815103       -2.85443196280798
C           -6.24384673245785        2.60852469784642       -2.72729019210275
Cl          -7.13058924668997        0.08403675814556       -2.64602438282339
C           -6.36605988128764        5.76200651910384       -2.59858272656866
C           -7.02965615136726        6.23709034326776       -3.89827934408154
C           -7.72866350874260        5.11966374913305       -4.67384099029876
C           -9.06733726481057        4.68432553166561       -4.07175756716992
C          -10.19674654973741        5.67854596130923       -4.33573788172066
C          -10.59397030634824        5.73145425875911       -5.79471121877481
O          -10.04029037651249        5.15718893050137       -6.69251187052290
O          -11.65641019617160        6.51620667568520       -5.97386936534417
H            1.63476473548563       -0.20413443380420       -0.30841446379939
H            1.84155840551968       -0.47238187730428        1.41807442088033
H            3.12294247321631        0.30534804808715        0.49155006999539
H            0.34748215145704        1.48731038527626        0.98410019498697
H            1.79445349926901        1.91911164722192        1.88295688398947
H            1.39595630302900        3.61161846366758        0.20841006361043
H            2.88492738457128        2.75250760710731       -0.14533118590333
H            1.64844145810315        3.18742173241604       -2.18900079575438
H            1.84030597829436        1.46743521826313       -1.91316167372481
H           -0.36842399687308        1.88875897303633       -2.75775804535650
H           -0.46910301106825        1.26746743610361       -1.11909939285476
H           -2.08644900242314        2.99417606231981       -1.20648346872675
H           -0.73682417065511        3.63691986427550       -0.28888641197204
H           -1.33628992403514        5.41232753645543       -1.71303993133606
H            0.08617048499504        4.71192828263869       -2.47531867650702
H           -1.50728734509624        5.14599459104321       -4.22726120675907
H           -1.44516027490918        3.39604549824558       -4.00706544462188
H           -4.25193404243825        7.36426897807639       -3.65754043324459
H           -3.55280898498857        7.14305922758041       -2.05885700454404
H           -2.56110270015662        6.88156935474742       -3.49159778239326
H           -2.58265697302657        1.46350337549909       -3.54850586174541
H           -7.25793209223675        2.89197126052306       -2.50444896166485
H           -7.07568812407716        5.18758890047532       -2.00288462290378
H           -6.04062085351410        6.62198820729605       -2.00947431962135
H           -7.74915786712550        7.01254004224788       -3.63672782322480
H           -6.27490831911083        6.69475898428754       -4.53983436646807
H           -7.91587354595493        5.45772265752343       -5.69207939190871
H           -7.06556184254973        4.25553931086185       -4.74433739110553
H           -9.34659216242148        3.72974055454298       -4.51925788974858
H           -8.97883902646141        4.53953397610044       -2.99310594404568
H          -11.08740776181094        5.40340272348978       -3.76824920681631
H           -9.92637144609680        6.69138252276128       -4.03125316322888
H          -11.92008754602247        6.54256372783424       -6.90775060414377

          :  Hamiltonian                  GFN2-xTB          :
         :: total energy             -86.737154050338 Eh    ::
         :: gradient norm              0.000401932177 Eh/a0 ::
         :: HOMO-LUMO gap              2.219328329184 eV    ::
         :: SCC energy               -87.850244330515 Eh    ::
         :: -> dispersion             -0.063509610094 Eh    ::
         :: repulsion energy           1.113090280176 Eh    ::

    * Orbital Energies and Occupations

         #    Occupation            Energy/Eh            Energy/eV
      -------------------------------------------------------------
         1        2.0000           -1.1628788             -31.6435
       ...           ...                  ...                  ...
        66        2.0000           -0.5424286             -14.7602
        67        2.0000           -0.5357399             -14.5782
        68        2.0000           -0.5321217             -14.4798
        69        2.0000           -0.5291092             -14.3978
        70        2.0000           -0.5281698             -14.3722
        71        2.0000           -0.5253972             -14.2968
        72        2.0000           -0.5227665             -14.2252
        73        2.0000           -0.5179614             -14.0944
        74        2.0000           -0.5117569             -13.9256
        75        2.0000           -0.4980925             -13.5538
        76        2.0000           -0.4973677             -13.5341
        77        2.0000           -0.4940924             -13.4449
        78        2.0000           -0.4905185             -13.3477 (HOMO)
        79                         -0.4089597             -11.1284 (LUMO)
        80                         -0.3679881             -10.0135
        81                         -0.3571455              -9.7184
        82                         -0.3094491              -8.4205
        83                         -0.2554432              -6.9510
        84                         -0.2491268              -6.7791
        85                         -0.2413140              -6.5665
        86                         -0.1772772              -4.8240
        87                         -0.1307316              -3.5574
        88                         -0.1015658              -2.7637
        89                         -0.0977550              -2.6601
       ...                                ...                  ...
       155                          0.5742296              15.6256
      -------------------------------------------------------------
                  HL-Gap            0.0815588 Eh            2.2193 eV

     #   Z          covCN         q      C6AA      α(0)
     1   6 C        3.751    -0.105    22.564     6.774
     2   6 C        3.799    -0.054    21.546     6.609
     3   6 C        3.800    -0.061    21.667     6.627
     4   6 C        3.800    -0.061    21.678     6.629
     5   6 C        3.800    -0.061    21.678     6.629
     6   6 C        3.801    -0.066    21.762     6.642
     7   6 C        3.801    -0.071    21.851     6.655
     8   6 C        3.740    -0.021    21.027     6.543
     9   7 N        2.827     0.020    20.892     6.789
    10   6 C        3.083     0.119    25.292     8.244
    11   6 C        3.755    -0.136    23.168     6.863
    12   7 N        2.829     0.018    20.938     6.796
    13   6 C        3.097     0.036    27.069     8.527
    14   6 C        3.101     0.037    27.056     8.524
    15   6 C        2.953    -0.050    29.231     8.868
    16   6 C        2.921     0.094    25.918     8.349
    17  17 Cl       1.005    -0.077   101.564    15.418
    18   6 C        2.921     0.094    25.919     8.349
    19   6 C        2.953    -0.051    29.269     8.874
    20  17 Cl       1.005    -0.077   101.571    15.419
    21   6 C        3.740    -0.023    21.071     6.550
    22   6 C        3.801    -0.070    21.837     6.653
    23   6 C        3.801    -0.073    21.903     6.663
    24   6 C        3.802    -0.061    21.666     6.627
    25   6 C        3.803    -0.096    22.325     6.727
    26   6 C        2.688     0.362    20.861     7.475
    27   8 O        0.856    -0.408    21.834     6.265
    28   8 O        1.660    -0.372    20.312     6.084
    29   1 H        0.925     0.033     2.540     2.492
    30   1 H        0.925     0.038     2.480     2.463
    31   1 H        0.925     0.040     2.455     2.450
    32   1 H        0.924     0.027     2.630     2.536
    33   1 H        0.924     0.034     2.528     2.486
    34   1 H        0.924     0.026     2.649     2.545
    35   1 H        0.924     0.040     2.451     2.448
    36   1 H        0.924     0.027     2.631     2.537
    37   1 H        0.924     0.045     2.380     2.412
    38   1 H        0.924     0.021     2.714     2.576
    39   1 H        0.925     0.047     2.354     2.399
    40   1 H        0.924     0.024     2.679     2.560
    41   1 H        0.925     0.059     2.216     2.328
    42   1 H        0.924     0.044     2.396     2.420
    43   1 H        0.925     0.073     2.049     2.238
    44   1 H        0.924     0.073     2.051     2.239
    45   1 H        0.925     0.089     1.890     2.150
    46   1 H        0.925     0.099     1.792     2.093
    47   1 H        0.924     0.101     1.774     2.083
    48   1 H        0.925     0.095     1.828     2.114
    49   1 H        0.926     0.100     1.782     2.087
    50   1 H        0.926     0.101     1.777     2.085
    51   1 H        0.925     0.087     1.906     2.159
    52   1 H        0.924     0.076     2.019     2.222
    53   1 H        0.925     0.068     2.105     2.269
    54   1 H        0.924     0.046     2.371     2.408
    55   1 H        0.925     0.077     2.015     2.220
    56   1 H        0.924     0.037     2.487     2.466
    57   1 H        0.924     0.061     2.183     2.311
    58   1 H        0.924     0.034     2.530     2.487
    59   1 H        0.924     0.080     1.981     2.201
    60   1 H        0.924     0.072     2.069     2.249
    61   1 H        0.804     0.338     0.617     1.233

Wiberg/Mayer (AO) data.
largest (>0.10) Wiberg bond orders for each atom

     #   Z sym  total        # sym  WBO       # sym  WBO       # sym  WBO
 ---------------------------------------------------------------------------
     1   6 C    3.996 --     2 C    1.020    31 H    0.987    30 H    0.987
                            29 H    0.986
     2   6 C    3.998 --     1 C    1.020     3 C    1.008    33 H    0.978
                            32 H    0.976
     3   6 C    3.997 --     2 C    1.008     4 C    1.008    35 H    0.976
                            34 H    0.975
     4   6 C    3.996 --     3 C    1.008     5 C    1.007    37 H    0.974
                            36 H    0.974
     5   6 C    3.996 --     4 C    1.007     6 C    1.007    39 H    0.973
                            38 H    0.972
     6   6 C    3.993 --     5 C    1.007     7 C    1.007    40 H    0.975
                            41 H    0.969
     7   6 C    3.985 --     6 C    1.007     8 C    0.986    42 H    0.975
                            43 H    0.964
     8   6 C    3.939 --     7 C    0.986     9 N    0.967    44 H    0.960
                            45 H    0.960
     9   7 N    3.665 --    10 C    1.328    14 C    1.132     8 C    0.967
    10   6 C    3.943 --     9 N    1.328    12 N    1.323    11 C    1.047
    11   6 C    3.976 --    10 C    1.047    48 H    0.967    46 H    0.955
                            47 H    0.942
    12   7 N    3.663 --    10 C    1.323    13 C    1.134    21 C    0.968
    13   6 C    3.960 --    19 C    1.336    14 C    1.267    12 N    1.134
    14   6 C    3.960 --    15 C    1.336    13 C    1.267     9 N    1.132
    15   6 C    3.978 --    16 C    1.445    14 C    1.336    49 H    0.952
                            19 C    0.103
    16   6 C    3.936 --    15 C    1.445    18 C    1.283    17 Cl   1.043
    17  17 Cl   1.208 --    16 C    1.043
    18   6 C    3.936 --    19 C    1.444    16 C    1.283    20 Cl   1.042
    19   6 C    3.978 --    18 C    1.444    13 C    1.336    50 H    0.953
                            15 C    0.103
    20  17 Cl   1.208 --    18 C    1.042
    21   6 C    3.940 --    22 C    0.986    12 N    0.968    52 H    0.964
                            51 H    0.960
    22   6 C    3.986 --    23 C    1.008    21 C    0.986    54 H    0.973
                            53 H    0.965
    23   6 C    3.990 --    24 C    1.008    22 C    1.008    56 H    0.973
                            55 H    0.968
    24   6 C    3.995 --    25 C    1.010    23 C    1.008    57 H    0.974
                            58 H    0.972
    25   6 C    3.994 --    24 C    1.010    26 C    0.973    59 H    0.954
                            60 H    0.949
    26   6 C    3.914 --    27 O    1.763    28 O    1.146    25 C    0.973
    27   8 O    2.043 --    26 C    1.763    28 O    0.175
    28   8 O    2.209 --    26 C    1.146    61 H    0.860    27 O    0.175
    29   1 H    0.999 --     1 C    0.986
    30   1 H    0.999 --     1 C    0.987
    31   1 H    0.998 --     1 C    0.987
    32   1 H    0.999 --     2 C    0.976
    33   1 H    0.999 --     2 C    0.978
    34   1 H    0.999 --     3 C    0.975
    35   1 H    0.998 --     3 C    0.976
    36   1 H    0.999 --     4 C    0.974
    37   1 H    0.998 --     4 C    0.974
    38   1 H    1.000 --     5 C    0.972
    39   1 H    0.998 --     5 C    0.973
    40   1 H    0.999 --     6 C    0.975
    41   1 H    0.996 --     6 C    0.969
    42   1 H    0.998 --     7 C    0.975
    43   1 H    0.994 --     7 C    0.964
    44   1 H    0.994 --     8 C    0.960
    45   1 H    0.992 --     8 C    0.960
    46   1 H    0.988 --    11 C    0.955
    47   1 H    0.985 --    11 C    0.942
    48   1 H    0.990 --    11 C    0.967
    49   1 H    0.989 --    15 C    0.952
    50   1 H    0.989 --    19 C    0.953
    51   1 H    0.992 --    21 C    0.960
    52   1 H    0.993 --    21 C    0.964
    53   1 H    0.994 --    22 C    0.965
    54   1 H    0.998 --    22 C    0.973
    55   1 H    0.994 --    23 C    0.968
    56   1 H    0.999 --    23 C    0.973
    57   1 H    0.996 --    24 C    0.974
    58   1 H    0.999 --    24 C    0.972
    59   1 H    0.994 --    25 C    0.954
    60   1 H    0.995 --    25 C    0.949
    61   1 H    0.886 --    28 O    0.860
 ---------------------------------------------------------------------------

molecular dipole:
                 x           y           z       tot (Debye)
 q only:       -7.873       9.902      -5.247
   full:       -8.208       9.413      -5.325      34.510

           -------------------------------------------------
          | TOTAL ENERGY              -86.737154050338 Eh   |
          | GRADIENT NORM               0.000401932177 Eh/α |
          | HOMO-LUMO GAP               2.219328329184 eV   |
           -------------------------------------------------

 * finished run on 2024/12/20 at 07:15:59.473
