   * xtb version 6.7.1 (edcfbbe) compiled by 'conda@3ef47c1a292c' on 2024-11-25

   ID    Z sym.   atoms
    1    6 C      1-3, 5-14
    2    7 N      4
    3    1 H      15-34

          program call               : xtb C1245.xyz --opt --namespace C1245 --charge +1
          :  Hamiltonian                  GFN2-xTB          :
 * total energy  :   -40.5202678 Eh     change       -0.3651337E-09 Eh
 * total energy  :   -40.5271936 Eh     change       -0.6925889E-02 Eh
 * total energy  :   -40.5287421 Eh     change       -0.1548491E-02 Eh
 * total energy  :   -40.5289431 Eh     change       -0.2009408E-03 Eh
 * total energy  :   -40.5291105 Eh     change       -0.1673999E-03 Eh
 * total energy  :   -40.5291900 Eh     change       -0.7952524E-04 Eh
 * total energy  :   -40.5293138 Eh     change       -0.1237484E-03 Eh
 * total energy  :   -40.5293777 Eh     change       -0.6397074E-04 Eh
 * total energy  :   -40.5294137 Eh     change       -0.3597480E-04 Eh
 * total energy  :   -40.5294480 Eh     change       -0.3425763E-04 Eh
 * total energy  :   -40.5295271 Eh     change       -0.1080582E-04 Eh
 * total energy  :   -40.5295427 Eh     change       -0.1561505E-04 Eh
 * total energy  :   -40.5295647 Eh     change       -0.2206035E-04 Eh
 * total energy  :   -40.5295878 Eh     change       -0.2303597E-04 Eh
 * total energy  :   -40.5296084 Eh     change       -0.2066465E-04 Eh
 * total energy  :   -40.5296235 Eh     change       -0.1502234E-04 Eh
 * total energy  :   -40.5296342 Eh     change       -0.1078231E-04 Eh
 * total energy  :   -40.5296432 Eh     change       -0.8915039E-05 Eh
 * total energy  :   -40.5296466 Eh     change       -0.3479461E-05 Eh
   *** GEOMETRY OPTIMIZATION CONVERGED AFTER 22 ITERATIONS ***

 final structure:
================
34
 xtb: 6.7.1 (edcfbbe)
C            1.90395247498021        0.17442255988456       -0.66008512472375
C            0.80634060166423        1.07255045833716       -1.13693592128385
C            0.22698291710456        0.78508594777046       -2.30000853622927
N           -0.85897476396408        1.48125968188512       -3.00641642149713
C           -2.15377663855121        1.21691023100286       -2.28301826223375
C           -3.36927253993279        1.78104235750421       -2.96911226863767
C           -3.78664493087806        3.08373446421787       -2.71445380044852
C           -4.91067490053183        3.59359895548554       -3.34048278235395
C           -5.63327915857290        2.80638065966761       -4.22136799598364
C           -5.23603662054784        1.50236697735405       -4.46589894221520
C           -4.11109828822167        0.99172882692545       -3.84295035878131
C           -0.94112435954113        0.92949093380956       -4.37316456829335
C           -0.59003886431780        2.92680928764310       -3.12445193536231
C            0.53166111948919        2.21752541398586       -0.21406512008575
H            2.17559865768974       -0.57640893640150       -1.39550120208934
H            1.59287954007795       -0.33104771194263        0.25292344549897
H            2.78434245499723        0.76659588568021       -0.41857374906182
H            0.55442020853152       -0.09442842489552       -2.83120951219466
H           -2.24630623276951        0.13228537059340       -2.19071192065871
H           -2.06359705451807        1.63714790890341       -1.28095335255213
H           -3.24690934848195        3.69967126948178       -2.00971618884888
H           -5.22632145843217        4.60378490547162       -3.13231923718329
H           -6.51112153860366        3.20353309197167       -4.70560747302986
H           -5.80487896535387        0.87857746919481       -5.13719259560336
H           -3.82103057172478       -0.03291293787222       -4.02497672467017
H           -1.74253974542047        1.41989601107070       -4.92290420494573
H            0.00087329677512        1.09418324788219       -4.89364572065147
H           -1.14484906817167       -0.13916723782498       -4.33733479663951
H           -0.61400826069436        3.40723249636033       -2.15209436067085
H            0.39530827764752        3.07399418332908       -3.56359006701162
H           -1.34000722408760        3.38936095206923       -3.76385499531740
H           -0.50615266422656        2.53738813880137       -0.19954325904874
H            0.80602513676850        1.93691100300345        0.79985736140710
H            1.15608851181920        3.06811655965251       -0.48859940859869

          :  Hamiltonian                  GFN2-xTB          :
         :: total energy             -40.529646635730 Eh    ::
         :: gradient norm              0.000223290997 Eh/a0 ::
         :: HOMO-LUMO gap              4.398285995314 eV    ::
         :: SCC energy               -41.219164153515 Eh    ::
         :: -> dispersion             -0.029855041049 Eh    ::
         :: repulsion energy           0.689517517784 Eh    ::

    * Orbital Energies and Occupations

         #    Occupation            Energy/Eh            Energy/eV
      -------------------------------------------------------------
         1        2.0000           -0.8501527             -23.1338
       ...           ...                  ...                  ...
        26        2.0000           -0.6055290             -16.4773
        27        2.0000           -0.6020489             -16.3826
        28        2.0000           -0.5990886             -16.3020
        29        2.0000           -0.5982216             -16.2784
        30        2.0000           -0.5964871             -16.2312
        31        2.0000           -0.5957664             -16.2116
        32        2.0000           -0.5889276             -16.0255
        33        2.0000           -0.5799196             -15.7804
        34        2.0000           -0.5499621             -14.9652
        35        2.0000           -0.5431063             -14.7787
        36        2.0000           -0.5406392             -14.7115
        37        2.0000           -0.5261165             -14.3164
        38        2.0000           -0.5259258             -14.3112 (HOMO)
        39                         -0.3642918              -9.9129 (LUMO)
        40                         -0.3515509              -9.5662
        41                         -0.3441800              -9.3656
        42                         -0.2310296              -6.2866
        43                         -0.1975046              -5.3744
        44                         -0.1403598              -3.8194
        45                         -0.1339931              -3.6461
        46                         -0.1174445              -3.1958
        47                         -0.0638537              -1.7375
        48                         -0.0353301              -0.9614
        49                         -0.0288193              -0.7842
       ...                                ...                  ...
        76                          0.5413689              14.7314
      -------------------------------------------------------------
                  HL-Gap            0.1616340 Eh            4.3983 eV

     #   Z          covCN         q      C6AA      α(0)
     1   6 C        3.768    -0.129    23.012     6.837
     2   6 C        2.936     0.039    27.129     8.542
     3   6 C        2.870    -0.057    29.418     8.891
     4   7 N        3.622     0.134    18.956     6.466
     5   6 C        3.764    -0.035    21.247     6.570
     6   6 C        2.967    -0.008    28.205     8.711
     7   6 C        2.923    -0.039    28.962     8.825
     8   6 C        2.919    -0.023    28.572     8.765
     9   6 C        2.920    -0.018    28.470     8.750
    10   6 C        2.918    -0.022    28.559     8.764
    11   6 C        2.923    -0.038    28.945     8.823
    12   6 C        3.732    -0.087    22.263     6.735
    13   6 C        3.718    -0.089    22.328     6.750
    14   6 C        3.757    -0.124    22.940     6.829
    15   1 H        0.925     0.062     2.174     2.306
    16   1 H        0.925     0.083     1.947     2.182
    17   1 H        0.925     0.084     1.935     2.175
    18   1 H        0.926     0.074     2.042     2.235
    19   1 H        0.924     0.081     1.971     2.196
    20   1 H        0.924     0.080     1.975     2.198
    21   1 H        0.926     0.038     2.473     2.459
    22   1 H        0.926     0.057     2.230     2.335
    23   1 H        0.926     0.061     2.186     2.312
    24   1 H        0.926     0.058     2.219     2.330
    25   1 H        0.926     0.041     2.432     2.439
    26   1 H        0.925     0.096     1.826     2.113
    27   1 H        0.925     0.094     1.838     2.120
    28   1 H        0.925     0.094     1.844     2.124
    29   1 H        0.925     0.099     1.798     2.097
    30   1 H        0.925     0.091     1.865     2.136
    31   1 H        0.925     0.095     1.835     2.118
    32   1 H        0.925     0.050     2.321     2.382
    33   1 H        0.925     0.081     1.967     2.193
    34   1 H        0.924     0.077     2.010     2.217

Wiberg/Mayer (AO) data.
largest (>0.10) Wiberg bond orders for each atom

     #   Z sym  total        # sym  WBO       # sym  WBO       # sym  WBO
 ---------------------------------------------------------------------------
     1   6 C    3.987 --     2 C    1.031    15 H    0.981    17 H    0.961
                            16 H    0.957
     2   6 C    3.980 --     3 C    1.848    14 C    1.034     1 C    1.031
     3   6 C    3.899 --     2 C    1.848    18 H    0.955     4 N    0.927
     4   7 N    3.811 --    12 C    0.962    13 C    0.957     3 C    0.927
                             5 C    0.904
     5   6 C    3.933 --     6 C    1.005    19 H    0.967    20 H    0.961
                             4 N    0.904
     6   6 C    3.979 --     7 C    1.408    11 C    1.407     5 C    1.005
                             9 C    0.109
     7   6 C    3.991 --     8 C    1.445     6 C    1.408    21 H    0.968
                            10 C    0.109
     8   6 C    3.990 --     7 C    1.445     9 C    1.438    22 H    0.969
                            11 C    0.109
     9   6 C    3.988 --     8 C    1.438    10 C    1.437    23 H    0.969
                             6 C    0.109
    10   6 C    3.990 --    11 C    1.445     9 C    1.437    24 H    0.969
                             7 C    0.109
    11   6 C    3.990 --    10 C    1.445     6 C    1.407    25 H    0.968
                             8 C    0.109
    12   6 C    3.932 --    27 H    0.976    28 H    0.975    26 H    0.971
                             4 N    0.962
    13   6 C    3.932 --    30 H    0.977    31 H    0.973    29 H    0.969
                             4 N    0.957
    14   6 C    3.990 --     2 C    1.034    33 H    0.973    32 H    0.968
                            34 H    0.954
    15   1 H    0.996 --     1 C    0.981
    16   1 H    0.993 --     1 C    0.957
    17   1 H    0.992 --     1 C    0.961
    18   1 H    0.994 --     3 C    0.955
    19   1 H    0.993 --     5 C    0.967
    20   1 H    0.993 --     5 C    0.961
    21   1 H    0.999 --     7 C    0.968
    22   1 H    0.996 --     8 C    0.969
    23   1 H    0.996 --     9 C    0.969
    24   1 H    0.996 --    10 C    0.969
    25   1 H    0.998 --    11 C    0.968
    26   1 H    0.990 --    12 C    0.971
    27   1 H    0.991 --    12 C    0.976
    28   1 H    0.991 --    12 C    0.975
    29   1 H    0.990 --    13 C    0.969
    30   1 H    0.991 --    13 C    0.977
    31   1 H    0.991 --    13 C    0.973
    32   1 H    0.997 --    14 C    0.968
    33   1 H    0.993 --    14 C    0.973
    34   1 H    0.994 --    14 C    0.954
 ---------------------------------------------------------------------------

molecular dipole:
                 x           y           z       tot (Debye)
 q only:       -1.803       3.110      -5.197
   full:       -1.802       3.089      -5.167      15.973

           -------------------------------------------------
          | TOTAL ENERGY              -40.529646635730 Eh   |
          | GRADIENT NORM               0.000223290997 Eh/α |
          | HOMO-LUMO GAP               4.398285995314 eV   |
           -------------------------------------------------

 * finished run on 2024/12/20 at 07:16:05.280
