   * xtb version 6.7.1 (edcfbbe) compiled by 'conda@3ef47c1a292c' on 2024-11-25

   ID    Z sym.   atoms
    1    6 C      1, 2, 5, 7, 8, 10-15
    2    7 N      3, 4, 6, 9
    3    1 H      16-32

          program call               : xtb C1240.xyz --opt --namespace C1240 --charge +1
          :  Hamiltonian                  GFN2-xTB          :
 * total energy  :   -43.5553577 Eh     change       -0.5672618E-09 Eh
 * total energy  :   -43.5613259 Eh     change       -0.5968252E-02 Eh
 * total energy  :   -43.5625263 Eh     change       -0.1200425E-02 Eh
 * total energy  :   -43.5626762 Eh     change       -0.1498543E-03 Eh
 * total energy  :   -43.5628218 Eh     change       -0.1456173E-03 Eh
 * total energy  :   -43.5628890 Eh     change       -0.6717319E-04 Eh
 * total energy  :   -43.5629674 Eh     change       -0.7839982E-04 Eh
 * total energy  :   -43.5630861 Eh     change       -0.1187400E-03 Eh
 * total energy  :   -43.5632260 Eh     change       -0.1399039E-03 Eh
 * total energy  :   -43.5633439 Eh     change       -0.1179122E-03 Eh
 * total energy  :   -43.5644785 Eh     change       -0.9286474E-05 Eh
 * total energy  :   -43.5644844 Eh     change       -0.5921743E-05 Eh
 * total energy  :   -43.5644896 Eh     change       -0.5136670E-05 Eh
 * total energy  :   -43.5644955 Eh     change       -0.5900294E-05 Eh
 * total energy  :   -43.5645135 Eh     change       -0.1806728E-04 Eh
 * total energy  :   -43.5645277 Eh     change       -0.1420081E-04 Eh
 * total energy  :   -43.5645365 Eh     change       -0.8807450E-05 Eh
 * total energy  :   -43.5645527 Eh     change       -0.1618636E-04 Eh
 * total energy  :   -43.5645574 Eh     change       -0.4704442E-05 Eh
   *** GEOMETRY OPTIMIZATION CONVERGED AFTER 50 ITERATIONS ***

 final structure:
================
32
 xtb: 6.7.1 (edcfbbe)
C            0.71696784572515       -0.11448936843826        0.17235854353962
C            0.43375733585566       -1.12462700365080       -0.87469706777518
N            0.61369910443733       -2.41285779408380       -0.67553165136292
N            0.25528051037999       -3.02983961630422       -1.82040500966652
C            0.38741954841119       -4.44204502178812       -1.90212682874170
N            1.80010605989150       -4.80340145930409       -2.02546563057383
C            2.71344217875673       -4.44082146780748       -1.07294829623397
C            3.92818612103654       -4.86547126245205       -1.50039396388442
N            3.74191427173130       -5.48304993052491       -2.70483325927292
C            4.77083582786946       -6.08829794594951       -3.50733903120482
C            2.44076376381329       -5.43415909173604       -3.01772638375450
C            1.87452312325724       -6.00913802281435       -4.25389879960859
C           -0.14243189589029       -2.13173057429994       -2.77196268824501
C           -0.58744495800344       -2.53730734500809       -4.12842786342933
C           -0.04457635153798       -0.89669337754135       -2.18616006405476
H            1.03164073202816       -0.60662105490764        1.08820282638678
H           -0.17477366342606        0.47737599993401        0.37119152243031
H            1.50201058456858        0.56325561969167       -0.16089229316374
H            0.01619419190237       -4.88858220140800       -0.97109412758673
H           -0.17278588588908       -4.82977360386093       -2.75392048930004
H            2.40996390959249       -3.88625245297514       -0.20619060118747
H            4.89128110531977       -4.77716601598387       -1.04211220877435
H            4.80877215999360       -5.62544162953663       -4.49383490923507
H            5.73212990701967       -5.95417215712664       -3.01798158194453
H            4.58294743761034       -7.15560593921295       -3.62952678979150
H            2.29946239238715       -5.51736885901154       -5.13001272534450
H            2.12035695188812       -7.06901935709031       -4.32387079678520
H            0.79499535817187       -5.90676777492551       -4.29097123274376
H            0.22123573925574       -3.01158075941597       -4.68669943386376
H           -1.42963040785138       -3.22770973279475       -4.07546016155585
H           -0.90697893352622       -1.65574389620937       -4.67604573430223
H           -0.28553406478239        0.04896309653717       -2.62441326896479

          :  Hamiltonian                  GFN2-xTB          :
         :: total energy             -43.564557417532 Eh    ::
         :: gradient norm              0.000993939723 Eh/a0 ::
         :: HOMO-LUMO gap              2.683853342799 eV    ::
         :: SCC energy               -44.217642866460 Eh    ::
         :: -> dispersion             -0.027830433081 Eh    ::
         :: repulsion energy           0.653085448928 Eh    ::

    * Orbital Energies and Occupations

         #    Occupation            Energy/Eh            Energy/eV
      -------------------------------------------------------------
         1        2.0000           -0.8892441             -24.1976
       ...           ...                  ...                  ...
        28        2.0000           -0.6310735             -17.1724
        29        2.0000           -0.6051183             -16.4661
        30        2.0000           -0.5994719             -16.3125
        31        2.0000           -0.5943532             -16.1732
        32        2.0000           -0.5853940             -15.9294
        33        2.0000           -0.5712737             -15.5451
        34        2.0000           -0.5693761             -15.4935
        35        2.0000           -0.5683991             -15.4669
        36        2.0000           -0.5531487             -15.0519
        37        2.0000           -0.5434594             -14.7883
        38        2.0000           -0.4988904             -13.5755
        39        2.0000           -0.4978515             -13.5472
        40        2.0000           -0.4964889             -13.5102 (HOMO)
        41                         -0.3978591             -10.8263 (LUMO)
        42                         -0.3602235              -9.8022
        43                         -0.3227075              -8.7813
        44                         -0.2569144              -6.9910
        45                         -0.1890939              -5.1455
        46                         -0.1309733              -3.5640
        47                         -0.1172010              -3.1892
        48                         -0.0722200              -1.9652
        49                         -0.0664282              -1.8076
        50                         -0.0329870              -0.8976
        51                         -0.0274688              -0.7475
       ...                                ...                  ...
        77                          0.5572908              15.1647
      -------------------------------------------------------------
                  HL-Gap            0.0986298 Eh            2.6839 eV

     #   Z          covCN         q      C6AA      α(0)
     1   6 C        3.756    -0.118    22.818     6.811
     2   6 C        3.123     0.087    25.902     8.335
     3   7 N        1.998    -0.264    27.666     7.801
     4   7 N        3.031     0.039    20.565     6.735
     5   6 C        3.682     0.038    20.139     6.426
     6   7 N        2.875     0.025    20.801     6.774
     7   6 C        3.046    -0.006    28.117     8.697
     8   6 C        3.045    -0.009    28.205     8.710
     9   7 N        2.873     0.049    20.378     6.705
    10   6 C        3.692    -0.081    22.247     6.749
    11   6 C        3.090     0.105    25.573     8.289
    12   6 C        3.754    -0.136    23.164     6.863
    13   6 C        3.033     0.032    27.263     8.564
    14   6 C        3.753    -0.118    22.814     6.811
    15   6 C        3.027    -0.086    30.116     9.002
    16   1 H        0.925     0.064     2.158     2.297
    17   1 H        0.925     0.066     2.132     2.283
    18   1 H        0.925     0.061     2.189     2.314
    19   1 H        0.924     0.110     1.700     2.039
    20   1 H        0.924     0.091     1.865     2.135
    21   1 H        0.926     0.132     1.518     1.927
    22   1 H        0.927     0.106     1.735     2.060
    23   1 H        0.924     0.097     1.811     2.105
    24   1 H        0.925     0.105     1.742     2.064
    25   1 H        0.924     0.097     1.808     2.103
    26   1 H        0.924     0.102     1.770     2.080
    27   1 H        0.924     0.103     1.760     2.075
    28   1 H        0.925     0.090     1.877     2.143
    29   1 H        0.924     0.044     2.398     2.422
    30   1 H        0.924     0.054     2.266     2.354
    31   1 H        0.925     0.074     2.037     2.232
    32   1 H        0.927     0.048     2.351     2.398

Wiberg/Mayer (AO) data.
largest (>0.10) Wiberg bond orders for each atom

     #   Z sym  total        # sym  WBO       # sym  WBO       # sym  WBO
 ---------------------------------------------------------------------------
     1   6 C    3.993 --     2 C    1.036    16 H    0.982    17 H    0.966
                            18 H    0.966
     2   6 C    3.977 --     3 N    1.517    15 C    1.294     1 C    1.036
     3   7 N    2.945 --     2 C    1.517     4 N    1.136    13 C    0.151
     4   7 N    3.595 --    13 C    1.192     3 N    1.136     5 C    1.022
     5   6 C    3.947 --     4 N    1.022    20 H    0.955    19 H    0.948
                             6 N    0.946
     6   7 N    3.681 --    11 C    1.322     7 C    1.203     5 C    0.946
     7   6 C    3.942 --     8 C    1.617     6 N    1.203    21 H    0.950
     8   6 C    3.947 --     7 C    1.617     9 N    1.204    22 H    0.961
     9   7 N    3.696 --    11 C    1.327     8 C    1.204    10 C    0.992
    10   6 C    3.937 --     9 N    0.992    24 H    0.975    23 H    0.964
                            25 H    0.963
    11   6 C    3.952 --     9 N    1.327     6 N    1.322    12 C    1.048
    12   6 C    3.978 --    11 C    1.048    28 H    0.970    27 H    0.950
                            26 H    0.949
    13   6 C    3.956 --    15 C    1.534     4 N    1.192    14 C    1.032
                             3 N    0.151
    14   6 C    3.993 --    13 C    1.032    31 H    0.979    29 H    0.970
                            30 H    0.968
    15   6 C    3.977 --    13 C    1.534     2 C    1.294    32 H    0.972
    16   1 H    0.996 --     1 C    0.982
    17   1 H    0.995 --     1 C    0.966
    18   1 H    0.996 --     1 C    0.966
    19   1 H    0.987 --     5 C    0.948
    20   1 H    0.991 --     5 C    0.955
    21   1 H    0.983 --     7 C    0.950
    22   1 H    0.988 --     8 C    0.961
    23   1 H    0.990 --    10 C    0.964
    24   1 H    0.989 --    10 C    0.975
    25   1 H    0.990 --    10 C    0.963
    26   1 H    0.989 --    12 C    0.949
    27   1 H    0.989 --    12 C    0.950
    28   1 H    0.991 --    12 C    0.970
    29   1 H    0.998 --    14 C    0.970
    30   1 H    0.997 --    14 C    0.968
    31   1 H    0.994 --    14 C    0.979
    32   1 H    0.997 --    15 C    0.972
 ---------------------------------------------------------------------------

molecular dipole:
                 x           y           z       tot (Debye)
 q only:        4.783      -9.622      -5.415
   full:        4.642      -9.532      -5.761      30.670

           -------------------------------------------------
          | TOTAL ENERGY              -43.564557417532 Eh   |
          | GRADIENT NORM               0.000993939723 Eh/α |
          | HOMO-LUMO GAP               2.683853342799 eV   |
           -------------------------------------------------

 * finished run on 2024/12/20 at 07:15:55.036
