   * xtb version 6.7.1 (edcfbbe) compiled by 'conda@3ef47c1a292c' on 2024-11-25

   ID    Z sym.   atoms
    1    6 C      1-4, 8-13
    2    7 N      5-7
    3    1 H      14-31

          program call               : xtb C1243.xyz --opt --namespace C1243 --charge +1
          :  Hamiltonian                  GFN2-xTB          :
 * total energy  :   -38.9836789 Eh     change       -0.3194600E-10 Eh
 * total energy  :   -38.9928219 Eh     change       -0.9143013E-02 Eh
 * total energy  :   -38.9940575 Eh     change       -0.1235544E-02 Eh
 * total energy  :   -38.9942485 Eh     change       -0.1910148E-03 Eh
 * total energy  :   -38.9943899 Eh     change       -0.1414282E-03 Eh
 * total energy  :   -38.9944204 Eh     change       -0.3050608E-04 Eh
 * total energy  :   -38.9944516 Eh     change       -0.3118576E-04 Eh
 * total energy  :   -38.9944871 Eh     change       -0.3550278E-04 Eh
 * total energy  :   -38.9945135 Eh     change       -0.2638209E-04 Eh
 * total energy  :   -38.9945654 Eh     change       -0.5188989E-04 Eh
 * total energy  :   -38.9947813 Eh     change       -0.5486600E-04 Eh
 * total energy  :   -38.9948066 Eh     change       -0.2529327E-04 Eh
 * total energy  :   -38.9948344 Eh     change       -0.2778514E-04 Eh
 * total energy  :   -38.9948586 Eh     change       -0.2420738E-04 Eh
 * total energy  :   -38.9948782 Eh     change       -0.1955692E-04 Eh
 * total energy  :   -38.9948889 Eh     change       -0.1068372E-04 Eh
 * total energy  :   -38.9949014 Eh     change       -0.1250651E-04 Eh
 * total energy  :   -38.9949156 Eh     change       -0.1427397E-04 Eh
 * total energy  :   -38.9949195 Eh     change       -0.3907668E-05 Eh
   *** GEOMETRY OPTIMIZATION CONVERGED AFTER 22 ITERATIONS ***

 final structure:
================
31
 xtb: 6.7.1 (edcfbbe)
C            0.85988812807481        0.40584095152408        0.20368712269821
C            0.52125246735605       -1.04892534618361        0.50778702150760
C            1.05610494497537       -1.52669052083505        1.85917161321147
C            0.52920949082727       -0.71568196192864        3.04907187287177
N           -0.90969579575179       -0.69103987935914        3.06528156744868
N           -1.55711253958685        0.40092785720020        2.80218189836651
N           -2.82421998867828        0.10634410249710        2.84048474621923
C           -3.85069607218518        1.09209489412852        2.61599845733677
C           -5.15709458062896        0.38763559279594        2.26525239081653
C           -5.44651046929564       -0.70452068502943        3.29279949941425
C           -4.37824266116839       -1.79760626497937        3.21085934608629
C           -3.02543653178882       -1.19795506122626        3.13160016977300
C           -1.75460380290570       -1.71873169474662        3.27665682204527
H            0.33834587323697        1.08901513779181        0.87014595991948
H            0.56900657121561        0.64624746051983       -0.81499338183885
H            1.92956119700502        0.57357377808606        0.29651982218030
H           -0.56198342624850       -1.19260837148085        0.45976253847513
H            0.96018517572466       -1.68332833169332       -0.26296541511399
H            0.80525038007219       -2.58042567989739        1.99462479358688
H            2.14266485955695       -1.44080975175765        1.86752425626821
H            0.88557729256455       -1.15243225081544        3.98489290234302
H            0.86093890506686        0.32090707951846        2.98403300569857
H           -3.51370492734709        1.76192658413966        1.82230615068708
H           -3.96580504766749        1.68295029253623        3.53083981974502
H           -5.08846594969560       -0.05098323543807        1.26815957005977
H           -5.96035051450086        1.12216742519252        2.25374976731691
H           -5.46026100337493       -0.27176420518197        4.29446670671323
H           -6.42517891132307       -1.14346847418266        3.10807868872846
H           -4.43489540558333       -2.46865830997097        4.06931105594135
H           -4.53744029649755       -2.40876424832145        2.31699567690621
H           -1.42847736144977       -2.71039688290115        3.51047555458946

          :  Hamiltonian                  GFN2-xTB          :
         :: total energy             -38.994919549043 Eh    ::
         :: gradient norm              0.000327071043 Eh/a0 ::
         :: HOMO-LUMO gap              3.201346393997 eV    ::
         :: SCC energy               -39.541777063806 Eh    ::
         :: -> dispersion             -0.024700954841 Eh    ::
         :: repulsion energy           0.546857514763 Eh    ::

    * Orbital Energies and Occupations

         #    Occupation            Energy/Eh            Energy/eV
      -------------------------------------------------------------
         1        2.0000           -0.9174381             -24.9648
       ...           ...                  ...                  ...
        24        2.0000           -0.6302648             -17.1504
        25        2.0000           -0.6140190             -16.7083
        26        2.0000           -0.6103059             -16.6073
        27        2.0000           -0.6084116             -16.5557
        28        2.0000           -0.5989495             -16.2982
        29        2.0000           -0.5914619             -16.0945
        30        2.0000           -0.5874523             -15.9854
        31        2.0000           -0.5861797             -15.9508
        32        2.0000           -0.5840808             -15.8936
        33        2.0000           -0.5747695             -15.6403
        34        2.0000           -0.5611060             -15.2685
        35        2.0000           -0.5524423             -15.0327
        36        2.0000           -0.5460008             -14.8574 (HOMO)
        37                         -0.4283534             -11.6561 (LUMO)
        38                         -0.3740549             -10.1786
        39                         -0.1861175              -5.0645
        40                         -0.1454155              -3.9570
        41                         -0.0891973              -2.4272
        42                         -0.0717496              -1.9524
        43                         -0.0562412              -1.5304
        44                         -0.0507281              -1.3804
        45                         -0.0389416              -1.0597
        46                         -0.0332210              -0.9040
        47                         -0.0208865              -0.5684
       ...                                ...                  ...
        70                          0.4480526              12.1921
      -------------------------------------------------------------
                  HL-Gap            0.1176473 Eh            3.2013 eV

     #   Z          covCN         q      C6AA      α(0)
     1   6 C        3.751    -0.117    22.797     6.809
     2   6 C        3.800    -0.058    21.618     6.620
     3   6 C        3.802    -0.070    21.846     6.654
     4   6 C        3.744    -0.034    21.256     6.577
     5   7 N        3.034     0.159    18.563     6.399
     6   7 N        2.147    -0.122    24.187     7.297
     7   7 N        3.053     0.140    18.864     6.451
     8   6 C        3.746    -0.029    21.154     6.561
     9   6 C        3.807    -0.074    21.902     6.662
    10   6 C        3.808    -0.070    21.838     6.652
    11   6 C        3.806    -0.072    21.866     6.657
    12   6 C        3.054     0.051    26.803     8.491
    13   6 C        3.024    -0.025    28.606     8.773
    14   1 H        0.925     0.039     2.468     2.456
    15   1 H        0.925     0.054     2.275     2.359
    16   1 H        0.925     0.052     2.295     2.369
    17   1 H        0.924     0.022     2.701     2.570
    18   1 H        0.924     0.059     2.214     2.327
    19   1 H        0.924     0.054     2.275     2.359
    20   1 H        0.925     0.078     1.995     2.209
    21   1 H        0.924     0.090     1.879     2.143
    22   1 H        0.924     0.108     1.710     2.045
    23   1 H        0.924     0.101     1.773     2.082
    24   1 H        0.924     0.098     1.806     2.102
    25   1 H        0.924     0.067     2.120     2.277
    26   1 H        0.925     0.082     1.963     2.191
    27   1 H        0.924     0.062     2.181     2.309
    28   1 H        0.925     0.076     2.022     2.223
    29   1 H        0.924     0.087     1.906     2.159
    30   1 H        0.924     0.090     1.876     2.142
    31   1 H        0.927     0.103     1.760     2.075

Wiberg/Mayer (AO) data.
largest (>0.10) Wiberg bond orders for each atom

     #   Z sym  total        # sym  WBO       # sym  WBO       # sym  WBO
 ---------------------------------------------------------------------------
     1   6 C    3.993 --     2 C    1.020    16 H    0.986    14 H    0.985
                            15 H    0.985
     2   6 C    3.994 --     1 C    1.020     3 C    1.007    17 H    0.978
                            18 H    0.974
     3   6 C    3.982 --     2 C    1.007     4 C    0.978    19 H    0.975
                            20 H    0.966
     4   6 C    3.929 --     3 C    0.978     5 N    0.967    22 H    0.961
                            21 H    0.955
     5   7 N    3.758 --     6 N    1.329    13 C    1.296     4 C    0.967
     6   7 N    2.994 --     5 N    1.329     7 N    1.303    13 C    0.132
                            12 C    0.105
     7   7 N    3.741 --     6 N    1.303    12 C    1.272     8 C    0.968
     8   6 C    3.937 --     9 C    1.002     7 N    0.968    23 H    0.957
                            24 H    0.946
     9   6 C    3.985 --    10 C    1.009     8 C    1.002    25 H    0.973
                            26 H    0.969
    10   6 C    3.990 --     9 C    1.009    11 C    1.002    27 H    0.975
                            28 H    0.972
    11   6 C    3.985 --    12 C    1.030    10 C    1.002    29 H    0.954
                            30 H    0.940
    12   6 C    3.959 --    13 C    1.459     7 N    1.272    11 C    1.030
                             6 N    0.105
    13   6 C    3.956 --    12 C    1.459     5 N    1.296    31 H    0.962
                             6 N    0.132
    14   1 H    0.999 --     1 C    0.985
    15   1 H    0.997 --     1 C    0.985
    16   1 H    0.997 --     1 C    0.986
    17   1 H    1.000 --     2 C    0.978
    18   1 H    0.997 --     2 C    0.974
    19   1 H    0.997 --     3 C    0.975
    20   1 H    0.993 --     3 C    0.966
    21   1 H    0.991 --     4 C    0.955
    22   1 H    0.988 --     4 C    0.961
    23   1 H    0.989 --     8 C    0.957
    24   1 H    0.990 --     8 C    0.946
    25   1 H    0.996 --     9 C    0.973
    26   1 H    0.993 --     9 C    0.969
    27   1 H    0.996 --    10 C    0.975
    28   1 H    0.994 --    10 C    0.972
    29   1 H    0.992 --    11 C    0.954
    30   1 H    0.992 --    11 C    0.940
    31   1 H    0.989 --    13 C    0.962
 ---------------------------------------------------------------------------

molecular dipole:
                 x           y           z       tot (Debye)
 q only:       -4.274      -1.173       5.268
   full:       -4.287      -1.459       5.429      17.970

           -------------------------------------------------
          | TOTAL ENERGY              -38.994919549043 Eh   |
          | GRADIENT NORM               0.000327071043 Eh/α |
          | HOMO-LUMO GAP               3.201346393997 eV   |
           -------------------------------------------------

 * finished run on 2024/12/20 at 07:16:04.215
