   * xtb version 6.7.1 (edcfbbe) compiled by 'conda@3ef47c1a292c' on 2024-11-25

   ID    Z sym.   atoms
    1    8 O      1
    2    6 C      2-4, 6-15
    3    7 N      5
    4    1 H      16-37

          program call               : xtb C1246.xyz --opt --namespace C1246 --charge +1
          :  Hamiltonian                  GFN2-xTB          :
 * total energy  :   -45.6192480 Eh     change       -0.1053465E-08 Eh
 * total energy  :   -45.6272336 Eh     change       -0.7985566E-02 Eh
 * total energy  :   -45.6294682 Eh     change       -0.2234656E-02 Eh
 * total energy  :   -45.6298783 Eh     change       -0.4100249E-03 Eh
 * total energy  :   -45.6302800 Eh     change       -0.4017112E-03 Eh
 * total energy  :   -45.6304945 Eh     change       -0.2145597E-03 Eh
 * total energy  :   -45.6307558 Eh     change       -0.2612973E-03 Eh
 * total energy  :   -45.6310244 Eh     change       -0.2685486E-03 Eh
 * total energy  :   -45.6312900 Eh     change       -0.2655928E-03 Eh
 * total energy  :   -45.6316208 Eh     change       -0.3308745E-03 Eh
 * total energy  :   -45.6359481 Eh     change       -0.1089235E-03 Eh
 * total energy  :   -45.6360362 Eh     change       -0.8813273E-04 Eh
 * total energy  :   -45.6360825 Eh     change       -0.4622751E-04 Eh
 * total energy  :   -45.6361203 Eh     change       -0.3788291E-04 Eh
 * total energy  :   -45.6361400 Eh     change       -0.1968410E-04 Eh
 * total energy  :   -45.6361740 Eh     change       -0.3396322E-04 Eh
 * total energy  :   -45.6361935 Eh     change       -0.1947179E-04 Eh
 * total energy  :   -45.6362046 Eh     change       -0.1113702E-04 Eh
 * total energy  :   -45.6362089 Eh     change       -0.4289970E-05 Eh
   *** GEOMETRY OPTIMIZATION CONVERGED AFTER 42 ITERATIONS ***

 final structure:
================
37
 xtb: 6.7.1 (edcfbbe)
O            0.63014924749103       -1.00868279060964       -0.22495940701460
C            0.06069229410014       -0.17364214079455       -1.21609583011325
C            1.14428512053757        0.75468647649976       -1.80701516641730
C            2.57644220045958        0.24861071359667       -1.62698753387789
N            3.09785762925165       -0.76238893439345       -2.59670234852190
C            3.56581372202994       -0.14144345722339       -3.88557934026038
C            2.53457013573196        0.60371681621709       -4.69605060286672
C            1.72271485328168       -0.13373037830486       -5.55897375717005
C            0.76257114187647        0.47582937400818       -6.34238177170425
C            0.61681099439600        1.85147379245255       -6.28907337067626
C            1.45202336762275        2.59545549803818       -5.47850543484486
C            2.42431773569407        1.99980211525396       -4.67902668958390
C            3.29974467407472        2.89839878075224       -3.85577871345831
C            4.27602863696657       -1.39515175629437       -1.96780246766035
C            2.09884538634512       -1.81105377398789       -2.85096803304392
H           -0.06370516863507       -1.32769536698437        0.35979229998552
H           -0.39599461421386       -0.79262636080795       -2.00100786536589
H           -0.73125709869821        0.44927525050204       -0.78960523628696
H            0.90966947235116        0.96969878068829       -2.84695745481338
H            1.10488732786497        1.69838988199272       -1.26152518329542
H            3.26301761007585        1.09446224983738       -1.65455976247082
H            2.61859156922491       -0.20223591836036       -0.63295397459259
H            3.95557345973109       -0.95968189276105       -4.49681788050099
H            4.39598238798738        0.52034251993263       -3.63647882935112
H            1.86099616328375       -1.20218849468173       -5.64036248830948
H            0.14553177084835       -0.11682717545368       -6.99851669409208
H           -0.12615226528656        2.34428034327848       -6.89552701275585
H            1.35894412936253        3.67058291837271       -5.46834434480745
H            3.31210251511135        3.89197891454264       -4.29524955886069
H            2.91505047623680        3.00030708158674       -2.84133111004974
H            4.32871421062100        2.54896128011184       -3.80679972421893
H            3.97248984052866       -1.93705241942679       -1.07395229878612
H            4.74241670579588       -2.09648763042050       -2.65766062249523
H            5.00972144341080       -0.64109745438474       -1.68829837258191
H            1.71944011184230       -2.18140386371611       -1.90024607477117
H            1.27567425007417       -1.40766973209458       -3.43394040684926
H            2.55407856261527       -2.63266324696612       -3.40112693752712

          :  Hamiltonian                  GFN2-xTB          :
         :: total energy             -45.636208887312 Eh    ::
         :: gradient norm              0.000836824068 Eh/a0 ::
         :: HOMO-LUMO gap              4.418598875019 eV    ::
         :: SCC energy               -46.314582467641 Eh    ::
         :: -> dispersion             -0.034406592013 Eh    ::
         :: repulsion energy           0.678373580328 Eh    ::

    * Orbital Energies and Occupations

         #    Occupation            Energy/Eh            Energy/eV
      -------------------------------------------------------------
         1        2.0000           -0.8493189             -23.1111
       ...           ...                  ...                  ...
        30        2.0000           -0.6040793             -16.4378
        31        2.0000           -0.5998560             -16.3229
        32        2.0000           -0.5962292             -16.2242
        33        2.0000           -0.5938997             -16.1608
        34        2.0000           -0.5902535             -16.0616
        35        2.0000           -0.5846042             -15.9079
        36        2.0000           -0.5800825             -15.7848
        37        2.0000           -0.5740288             -15.6201
        38        2.0000           -0.5401375             -14.6979
        39        2.0000           -0.5395006             -14.6806
        40        2.0000           -0.5375244             -14.6268
        41        2.0000           -0.5224728             -14.2172
        42        2.0000           -0.5139426             -13.9851 (HOMO)
        43                         -0.3515621              -9.5665 (LUMO)
        44                         -0.3399388              -9.2502
        45                         -0.2310204              -6.2864
        46                         -0.2011371              -5.4732
        47                         -0.1452130              -3.9514
        48                         -0.1409343              -3.8350
        49                         -0.1300551              -3.5390
        50                         -0.0991935              -2.6992
        51                         -0.0689441              -1.8761
        52                         -0.0422170              -1.1488
        53                         -0.0278569              -0.7580
       ...                                ...                  ...
        82                          0.5356049              14.5746
      -------------------------------------------------------------
                  HL-Gap            0.1623805 Eh            4.4186 eV

     #   Z          covCN         q      C6AA      α(0)
     1   8 O        1.655    -0.448    21.808     6.304
     2   6 C        3.671     0.071    19.617     6.349
     3   6 C        3.798    -0.076    21.964     6.673
     4   6 C        3.761    -0.039    21.321     6.582
     5   7 N        3.620     0.132    18.994     6.473
     6   6 C        3.764    -0.041    21.342     6.585
     7   6 C        2.968    -0.014    28.369     8.737
     8   6 C        2.925    -0.044    29.098     8.846
     9   6 C        2.918    -0.029    28.736     8.791
    10   6 C        2.918    -0.022    28.557     8.763
    11   6 C        2.928    -0.035    28.873     8.812
    12   6 C        2.965     0.014    27.699     8.633
    13   6 C        3.758    -0.120    22.849     6.815
    14   6 C        3.736    -0.095    22.410     6.756
    15   6 C        3.718    -0.097    22.487     6.774
    16   1 H        0.805     0.305     0.706     1.319
    17   1 H        0.923     0.033     2.549     2.497
    18   1 H        0.924     0.046     2.376     2.410
    19   1 H        0.925     0.064     2.147     2.291
    20   1 H        0.924     0.076     2.023     2.224
    21   1 H        0.925     0.082     1.961     2.190
    22   1 H        0.924     0.114     1.665     2.018
    23   1 H        0.924     0.081     1.972     2.196
    24   1 H        0.924     0.081     1.965     2.192
    25   1 H        0.926     0.039     2.464     2.455
    26   1 H        0.926     0.054     2.267     2.355
    27   1 H        0.926     0.059     2.214     2.327
    28   1 H        0.926     0.056     2.247     2.344
    29   1 H        0.925     0.067     2.116     2.275
    30   1 H        0.925     0.052     2.298     2.371
    31   1 H        0.925     0.045     2.383     2.414
    32   1 H        0.925     0.101     1.772     2.082
    33   1 H        0.925     0.095     1.834     2.118
    34   1 H        0.925     0.093     1.854     2.129
    35   1 H        0.925     0.115     1.656     2.013
    36   1 H        0.925     0.102     1.767     2.079
    37   1 H        0.925     0.087     1.909     2.161

Wiberg/Mayer (AO) data.
largest (>0.10) Wiberg bond orders for each atom

     #   Z sym  total        # sym  WBO       # sym  WBO       # sym  WBO
 ---------------------------------------------------------------------------
     1   8 O    1.957 --     2 C    0.998    16 H    0.892
     2   6 C    3.956 --     1 O    0.998     3 C    0.995    18 H    0.975
                            17 H    0.969
     3   6 C    3.989 --     4 C    1.012     2 C    0.995    20 H    0.969
                            19 H    0.967
     4   6 C    3.930 --     3 C    1.012    21 H    0.965    22 H    0.955
                             5 N    0.927
     5   7 N    3.809 --    14 C    0.961    15 C    0.960     4 C    0.927
                             6 C    0.913
     6   6 C    3.930 --     7 C    1.006    23 H    0.964    24 H    0.959
                             5 N    0.913
     7   6 C    3.976 --     8 C    1.400    12 C    1.382     6 C    1.006
                            10 C    0.106
     8   6 C    3.991 --     9 C    1.452     7 C    1.400    25 H    0.966
                            11 C    0.108
     9   6 C    3.991 --     8 C    1.452    10 C    1.426    26 H    0.969
                            12 C    0.105
    10   6 C    3.989 --    11 C    1.452     9 C    1.426    27 H    0.969
                             7 C    0.106
    11   6 C    3.990 --    10 C    1.452    12 C    1.406    28 H    0.966
                             8 C    0.108
    12   6 C    3.988 --    11 C    1.406     7 C    1.382    13 C    1.028
                             9 C    0.105
    13   6 C    3.993 --    12 C    1.028    29 H    0.978    31 H    0.971
                            30 H    0.963
    14   6 C    3.931 --    34 H    0.976    33 H    0.975    32 H    0.973
                             5 N    0.961
    15   6 C    3.924 --    37 H    0.976    36 H    0.967    35 H    0.966
                             5 N    0.960
    16   1 H    0.907 --     1 O    0.892
    17   1 H    0.999 --     2 C    0.969
    18   1 H    0.998 --     2 C    0.975
    19   1 H    0.996 --     3 C    0.967
    20   1 H    0.994 --     3 C    0.969
    21   1 H    0.993 --     4 C    0.965
    22   1 H    0.987 --     4 C    0.955
    23   1 H    0.993 --     6 C    0.964
    24   1 H    0.993 --     6 C    0.959
    25   1 H    0.998 --     8 C    0.966
    26   1 H    0.996 --     9 C    0.969
    27   1 H    0.996 --    10 C    0.969
    28   1 H    0.997 --    11 C    0.966
    29   1 H    0.995 --    13 C    0.978
    30   1 H    0.997 --    13 C    0.963
    31   1 H    0.998 --    13 C    0.971
    32   1 H    0.989 --    14 C    0.973
    33   1 H    0.991 --    14 C    0.975
    34   1 H    0.991 --    14 C    0.976
    35   1 H    0.987 --    15 C    0.966
    36   1 H    0.990 --    15 C    0.967
    37   1 H    0.992 --    15 C    0.976
 ---------------------------------------------------------------------------

molecular dipole:
                 x           y           z       tot (Debye)
 q only:        4.768      -0.614      -5.119
   full:        4.652      -0.641      -5.075      17.574

           -------------------------------------------------
          | TOTAL ENERGY              -45.636208887312 Eh   |
          | GRADIENT NORM               0.000836824068 Eh/α |
          | HOMO-LUMO GAP               4.418598875019 eV   |
           -------------------------------------------------

 * finished run on 2024/12/20 at 07:16:06.809
