   * xtb version 6.7.1 (edcfbbe) compiled by 'conda@3ef47c1a292c' on 2024-11-25

   ID    Z sym.   atoms
    1    6 C      1-7, 9-25
    2    7 N      8
    3    1 H      26-77

          program call               : xtb C1242.xyz --opt --namespace C1242 --charge +1
          :  Hamiltonian                  GFN2-xTB          :
 * total energy  :   -80.4792204 Eh     change       -0.2356444E-09 Eh
 * total energy  :   -80.4834147 Eh     change       -0.4194295E-02 Eh
 * total energy  :   -80.4842510 Eh     change       -0.8363640E-03 Eh
 * total energy  :   -80.4844018 Eh     change       -0.1507398E-03 Eh
 * total energy  :   -80.4845365 Eh     change       -0.1347200E-03 Eh
 * total energy  :   -80.4846198 Eh     change       -0.8328779E-04 Eh
 * total energy  :   -80.4847031 Eh     change       -0.8331663E-04 Eh
 * total energy  :   -80.4847645 Eh     change       -0.6143736E-04 Eh
 * total energy  :   -80.4848242 Eh     change       -0.5968352E-04 Eh
 * total energy  :   -80.4848643 Eh     change       -0.4010302E-04 Eh
 * total energy  :   -80.4858354 Eh     change       -0.1292887E-04 Eh
 * total energy  :   -80.4858485 Eh     change       -0.1313088E-04 Eh
 * total energy  :   -80.4858637 Eh     change       -0.1524933E-04 Eh
 * total energy  :   -80.4858804 Eh     change       -0.1670503E-04 Eh
 * total energy  :   -80.4858969 Eh     change       -0.1646598E-04 Eh
 * total energy  :   -80.4859112 Eh     change       -0.1425487E-04 Eh
 * total energy  :   -80.4859222 Eh     change       -0.1108578E-04 Eh
 * total energy  :   -80.4859291 Eh     change       -0.6886769E-05 Eh
 * total energy  :   -80.4859328 Eh     change       -0.3644530E-05 Eh
   *** GEOMETRY OPTIMIZATION CONVERGED AFTER 39 ITERATIONS ***

 final structure:
================
77
 xtb: 6.7.1 (edcfbbe)
C            0.61991114803858       -0.26254071632193        0.53972839371802
C            0.65928854555247        1.17747114566667        0.03503015767201
C            1.00373354873215        1.26932683741509       -1.46373890119158
C            0.31888967537103        0.28762253835246       -2.42118892859176
C           -1.18862086042625        0.45949033499531       -2.62931627898476
C           -1.62963410233023        1.85075746973753       -3.09305156538527
C           -0.97909827131924        2.31838809858281       -4.39158237244094
N           -1.19902657998054        1.38802581638047       -5.52947467586306
C           -2.63319444153015        1.21231823969221       -5.91302074999473
C           -3.41120680531901        2.47322067392327       -6.28346585793161
C           -3.10730436619987        3.09922644172141       -7.64736849469966
C           -3.33026933912079        2.17757567529168       -8.84942837219288
C           -4.73461997317417        1.57735759532819       -8.95416856359845
C           -5.88345301690132        2.59190624068344       -9.00971666268822
C           -5.77373799123942        3.50610595880897      -10.22688985869621
C           -7.21461651008613        1.84254220500665       -9.04118336914317
C           -0.29111344124312        1.69732502079815       -6.66743047911457
C            1.07034089770946        1.02605774108352       -6.50539422156166
C            1.01437146799610       -0.50410678024645       -6.44881626891057
C            0.35534854246073       -1.17515955476758       -7.65723763713918
C            0.96767532141309       -0.80918464390520       -9.01145886542792
C            2.46690753304991       -1.09998009268799       -9.15539649071192
C            2.78055292180745       -2.58104695260258       -8.96030266068029
C            2.93350716178325       -0.64817959949107      -10.53831362173660
C           -0.62177817327944        1.91731045414317        0.41866787660528
H           -0.24645462759757       -0.79496115815214        0.15409928334069
H            0.55881625648293       -0.27089595782617        1.62469626252675
H            1.52057784999467       -0.79808262513541        0.24880563296549
H            1.47973186773426        1.68628080878810        0.55410185730253
H            0.83531712476994        2.29679325708195       -1.79459865726062
H            2.07611872832501        1.08018274927545       -1.55788906777412
H            0.83465839530968        0.36238685514055       -3.38393805271612
H            0.49002665266199       -0.72657800149346       -2.06011610769554
H           -1.53067101894078       -0.30476269606456       -3.33760632246921
H           -1.70018857854771        0.24807174206517       -1.69177567188156
H           -2.71691062708455        1.87101401243866       -3.18266687460061
H           -1.36565898134026        2.57640914413431       -2.32427831913302
H           -1.35636573521406        3.30254930626008       -4.67152455900496
H            0.09824361132118        2.39995948207441       -4.24205998117115
H           -0.89781671078724        0.46419987286918       -5.19035980628038
H           -2.66218615300074        0.50948831309218       -6.74732996166664
H           -3.13113467462162        0.73887394785239       -5.06466563755640
H           -4.46356771457847        2.18575998754153       -6.27502159212298
H           -3.29437307216874        3.23190468549552       -5.50919328174997
H           -3.76293316847367        3.96385368075294       -7.75300764979742
H           -2.08534512367023        3.48015102224787       -7.67845485070578
H           -3.12312028868753        2.75467021791238       -9.75077360611381
H           -2.61027790863630        1.35365320190028       -8.83894318293953
H           -4.77005121498428        0.97349297568833       -9.86352408190068
H           -4.90794449387939        0.89844768071264       -8.11502377413570
H           -5.86573267475054        3.20961317134080       -8.10501499428958
H           -5.73737088895447        2.91710810134162      -11.14042975583137
H           -6.63911243379724        4.16166318789289      -10.27986780669069
H           -4.88458857795428        4.13002038781605      -10.18094647354675
H           -7.31974566197766        1.19638465819266       -8.17192098172445
H           -8.04493478228387        2.54360448817558       -9.04621477679591
H           -7.28254874372065        1.22739279061752       -9.93531262925352
H           -0.75470612491669        1.34560583722081       -7.58814410579640
H           -0.16917876417668        2.77894782539329       -6.73611958774132
H            1.68243559270613        1.32641764897470       -7.35524444985303
H            1.57273167824226        1.39651584738617       -5.60892323755765
H            2.03902590646023       -0.86537888674018       -6.36364559820697
H            0.50001470028774       -0.84153371816046       -5.54075468471500
H            0.42715580442292       -2.25398833653663       -7.51748014546809
H           -0.71253965501661       -0.93761425650410       -7.68620097208357
H            0.43574172446710       -1.37501946041837       -9.77942756863652
H            0.79696112352143        0.25016083227363       -9.22069122902936
H            3.02125138214094       -0.52287128503401       -8.40696171462760
H            2.19244271822866       -3.18657325764444       -9.64595426365231
H            3.83241189701219       -2.76747062896735       -9.16024972849795
H            2.57221973625044       -2.90627164181031       -7.94400454514664
H            2.72880918431249        0.40918457227177      -10.69353942751831
H            4.00268064217772       -0.80726951887957      -10.64887754077489
H            2.42296680154338       -1.21360292066125      -11.31423597771872
H           -0.71032130969434        1.94942409174057        1.50168131579084
H           -0.59998308432106        2.94362221182209        0.05729303135844
H           -1.51046947641799        1.42661560653995        0.03204431919040

          :  Hamiltonian                  GFN2-xTB          :
         :: total energy             -80.485932777041 Eh    ::
         :: gradient norm              0.000278056913 Eh/a0 ::
         :: HOMO-LUMO gap              7.577719777348 eV    ::
         :: SCC energy               -81.666998950596 Eh    ::
         :: -> dispersion             -0.067131450910 Eh    ::
         :: repulsion energy           1.181066173555 Eh    ::

    * Orbital Energies and Occupations

         #    Occupation            Energy/Eh            Energy/eV
      -------------------------------------------------------------
         1        2.0000           -0.8475643             -23.0634
       ...           ...                  ...                  ...
        64        2.0000           -0.5323790             -14.4868
        65        2.0000           -0.5314089             -14.4604
        66        2.0000           -0.5307054             -14.4412
        67        2.0000           -0.5265892             -14.3292
        68        2.0000           -0.5154012             -14.0248
        69        2.0000           -0.5132565             -13.9664
        70        2.0000           -0.5128077             -13.9542
        71        2.0000           -0.5124599             -13.9447
        72        2.0000           -0.5091039             -13.8534
        73        2.0000           -0.5083742             -13.8336
        74        2.0000           -0.5053927             -13.7524
        75        2.0000           -0.5021594             -13.6645
        76        2.0000           -0.5012465             -13.6396 (HOMO)
        77                         -0.2227704              -6.0619 (LUMO)
        78                         -0.1412467              -3.8435
        79                         -0.1303469              -3.5469
        80                         -0.1253560              -3.4111
        81                         -0.0692743              -1.8850
        82                         -0.0628613              -1.7105
        83                         -0.0554512              -1.5089
        84                         -0.0433440              -1.1795
        85                         -0.0398191              -1.0835
        86                         -0.0364700              -0.9924
        87                         -0.0333139              -0.9065
       ...                                ...                  ...
       152                          0.2332164               6.3461
      -------------------------------------------------------------
                  HL-Gap            0.2784761 Eh            7.5777 eV

     #   Z          covCN         q      C6AA      α(0)
     1   6 C        3.754    -0.110    22.657     6.787
     2   6 C        3.847    -0.012    20.765     6.482
     3   6 C        3.800    -0.066    21.772     6.643
     4   6 C        3.799    -0.063    21.705     6.633
     5   6 C        3.799    -0.065    21.748     6.640
     6   6 C        3.800    -0.078    21.999     6.678
     7   6 C        3.741    -0.031    21.210     6.571
     8   7 N        3.575     0.030    20.711     6.759
     9   6 C        3.736    -0.030    21.194     6.570
    10   6 C        3.800    -0.073    21.890     6.662
    11   6 C        3.800    -0.069    21.824     6.651
    12   6 C        3.799    -0.062    21.689     6.631
    13   6 C        3.805    -0.067    21.786     6.645
    14   6 C        3.849    -0.010    20.730     6.476
    15   6 C        3.756    -0.111    22.675     6.790
    16   6 C        3.757    -0.111    22.676     6.789
    17   6 C        3.741    -0.034    21.260     6.578
    18   6 C        3.800    -0.078    21.985     6.676
    19   6 C        3.799    -0.067    21.777     6.644
    20   6 C        3.799    -0.063    21.705     6.633
    21   6 C        3.805    -0.067    21.786     6.645
    22   6 C        3.849    -0.011    20.731     6.476
    23   6 C        3.756    -0.111    22.678     6.790
    24   6 C        3.758    -0.112    22.688     6.791
    25   6 C        3.754    -0.109    22.648     6.786
    26   1 H        0.925     0.035     2.518     2.482
    27   1 H        0.925     0.045     2.379     2.412
    28   1 H        0.925     0.038     2.474     2.460
    29   1 H        0.924     0.037     2.483     2.464
    30   1 H        0.924     0.028     2.618     2.530
    31   1 H        0.924     0.038     2.473     2.459
    32   1 H        0.924     0.014     2.825     2.628
    33   1 H        0.925     0.053     2.282     2.363
    34   1 H        0.924     0.015     2.810     2.621
    35   1 H        0.925     0.064     2.158     2.297
    36   1 H        0.924     0.052     2.297     2.370
    37   1 H        0.925     0.082     1.955     2.186
    38   1 H        0.924     0.082     1.957     2.188
    39   1 H        0.924     0.088     1.901     2.156
    40   1 H        0.859     0.236     0.941     1.520
    41   1 H        0.924     0.084     1.937     2.177
    42   1 H        0.924     0.078     1.996     2.210
    43   1 H        0.924     0.077     2.012     2.218
    44   1 H        0.924     0.052     2.298     2.371
    45   1 H        0.924     0.059     2.205     2.322
    46   1 H        0.924     0.030     2.588     2.516
    47   1 H        0.925     0.051     2.312     2.378
    48   1 H        0.924     0.016     2.792     2.613
    49   1 H        0.924     0.044     2.397     2.421
    50   1 H        0.924     0.024     2.671     2.556
    51   1 H        0.924     0.024     2.667     2.554
    52   1 H        0.925     0.042     2.429     2.437
    53   1 H        0.925     0.044     2.403     2.424
    54   1 H        0.925     0.033     2.548     2.496
    55   1 H        0.925     0.030     2.582     2.513
    56   1 H        0.925     0.044     2.396     2.421
    57   1 H        0.925     0.042     2.421     2.433
    58   1 H        0.925     0.097     1.813     2.106
    59   1 H        0.924     0.081     1.967     2.193
    60   1 H        0.925     0.081     1.971     2.195
    61   1 H        0.924     0.047     2.356     2.401
    62   1 H        0.925     0.065     2.147     2.291
    63   1 H        0.924     0.020     2.727     2.582
    64   1 H        0.924     0.052     2.296     2.369
    65   1 H        0.924     0.015     2.806     2.619
    66   1 H        0.924     0.045     2.384     2.415
    67   1 H        0.924     0.026     2.651     2.546
    68   1 H        0.924     0.025     2.664     2.553
    69   1 H        0.925     0.042     2.424     2.435
    70   1 H        0.925     0.045     2.387     2.416
    71   1 H        0.925     0.032     2.563     2.504
    72   1 H        0.925     0.032     2.563     2.503
    73   1 H        0.925     0.045     2.385     2.415
    74   1 H        0.925     0.043     2.414     2.430
    75   1 H        0.925     0.046     2.373     2.409
    76   1 H        0.925     0.029     2.604     2.524
    77   1 H        0.925     0.033     2.538     2.492

Wiberg/Mayer (AO) data.
largest (>0.10) Wiberg bond orders for each atom

     #   Z sym  total        # sym  WBO       # sym  WBO       # sym  WBO
 ---------------------------------------------------------------------------
     1   6 C    3.996 --     2 C    1.010    28 H    0.986    27 H    0.985
                            26 H    0.985
     2   6 C    3.994 --     1 C    1.010    25 C    1.010     3 C    0.993
                            29 H    0.968
     3   6 C    3.995 --     4 C    1.007     2 C    0.993    31 H    0.977
                            30 H    0.974
     4   6 C    3.995 --     3 C    1.007     5 C    1.006    32 H    0.972
                            33 H    0.972
     5   6 C    3.993 --     4 C    1.006     6 C    1.006    34 H    0.970
                            35 H    0.966
     6   6 C    3.985 --     7 C    1.007     5 C    1.006    36 H    0.972
                            37 H    0.960
     7   6 C    3.930 --     6 C    1.007    38 H    0.965    39 H    0.961
                             8 N    0.936
     8   7 N    3.762 --     7 C    0.936    17 C    0.934     9 C    0.930
                            40 H    0.884
     9   6 C    3.929 --    10 C    1.009    42 H    0.967    41 H    0.962
                             8 N    0.930
    10   6 C    3.984 --     9 C    1.009    11 C    1.006    44 H    0.968
                            43 H    0.961
    11   6 C    3.993 --    12 C    1.007    10 C    1.006    46 H    0.974
                            45 H    0.970
    12   6 C    3.995 --    11 C    1.007    13 C    1.007    47 H    0.973
                            48 H    0.971
    13   6 C    3.995 --    12 C    1.007    14 C    0.996    50 H    0.975
                            49 H    0.974
    14   6 C    3.996 --    15 C    1.010    16 C    1.008    13 C    0.996
                            51 H    0.966
    15   6 C    3.995 --    14 C    1.010    52 H    0.986    53 H    0.985
                            54 H    0.984
    16   6 C    3.995 --    14 C    1.008    55 H    0.987    57 H    0.986
                            56 H    0.986
    17   6 C    3.928 --    18 C    1.007    59 H    0.967    58 H    0.957
                             8 N    0.934
    18   6 C    3.986 --    17 C    1.007    19 C    1.006    61 H    0.970
                            60 H    0.963
    19   6 C    3.993 --    20 C    1.006    18 C    1.006    62 H    0.969
                            63 H    0.962
    20   6 C    3.995 --    21 C    1.007    19 C    1.006    65 H    0.975
                            64 H    0.973
    21   6 C    3.995 --    20 C    1.007    22 C    0.996    67 H    0.974
                            66 H    0.974
    22   6 C    3.996 --    23 C    1.010    24 C    1.008    21 C    0.996
                            68 H    0.967
    23   6 C    3.995 --    22 C    1.010    69 H    0.986    70 H    0.985
                            71 H    0.984
    24   6 C    3.995 --    22 C    1.008    72 H    0.986    74 H    0.986
                            73 H    0.986
    25   6 C    3.996 --     2 C    1.010    76 H    0.985    75 H    0.985
                            77 H    0.981
    26   1 H    0.999 --     1 C    0.985
    27   1 H    0.998 --     1 C    0.985
    28   1 H    0.999 --     1 C    0.986
    29   1 H    0.998 --     2 C    0.968
    30   1 H    0.999 --     3 C    0.974
    31   1 H    0.999 --     3 C    0.977
    32   1 H    1.000 --     4 C    0.972
    33   1 H    0.997 --     4 C    0.972
    34   1 H    1.000 --     5 C    0.970
    35   1 H    0.996 --     5 C    0.966
    36   1 H    0.997 --     6 C    0.972
    37   1 H    0.993 --     6 C    0.960
    38   1 H    0.993 --     7 C    0.965
    39   1 H    0.992 --     7 C    0.961
    40   1 H    0.944 --     8 N    0.884
    41   1 H    0.993 --     9 C    0.962
    42   1 H    0.994 --     9 C    0.967
    43   1 H    0.994 --    10 C    0.961
    44   1 H    0.997 --    10 C    0.968
    45   1 H    0.996 --    11 C    0.970
    46   1 H    0.999 --    11 C    0.974
    47   1 H    0.997 --    12 C    0.973
    48   1 H    0.999 --    12 C    0.971
    49   1 H    0.998 --    13 C    0.974
    50   1 H    0.999 --    13 C    0.975
    51   1 H    0.999 --    14 C    0.966
    52   1 H    0.998 --    15 C    0.986
    53   1 H    0.998 --    15 C    0.985
    54   1 H    0.999 --    15 C    0.984
    55   1 H    0.999 --    16 C    0.987
    56   1 H    0.998 --    16 C    0.986
    57   1 H    0.998 --    16 C    0.986
    58   1 H    0.990 --    17 C    0.957
    59   1 H    0.993 --    17 C    0.967
    60   1 H    0.993 --    18 C    0.963
    61   1 H    0.998 --    18 C    0.970
    62   1 H    0.996 --    19 C    0.969
    63   1 H    0.999 --    19 C    0.962
    64   1 H    0.997 --    20 C    0.973
    65   1 H    1.000 --    20 C    0.975
    66   1 H    0.998 --    21 C    0.974
    67   1 H    0.999 --    21 C    0.974
    68   1 H    0.999 --    22 C    0.967
    69   1 H    0.998 --    23 C    0.986
    70   1 H    0.998 --    23 C    0.985
    71   1 H    0.999 --    23 C    0.984
    72   1 H    0.999 --    24 C    0.986
    73   1 H    0.998 --    24 C    0.986
    74   1 H    0.998 --    24 C    0.986
    75   1 H    0.998 --    25 C    0.985
    76   1 H    0.999 --    25 C    0.985
    77   1 H    0.999 --    25 C    0.981
 ---------------------------------------------------------------------------

molecular dipole:
                 x           y           z       tot (Debye)
 q only:       -2.177       2.545     -10.588
   full:       -2.147       2.444     -10.527      28.005

           -------------------------------------------------
          | TOTAL ENERGY              -80.485932777041 Eh   |
          | GRADIENT NORM               0.000278056913 Eh/α |
          | HOMO-LUMO GAP               7.577719777348 eV   |
           -------------------------------------------------

 * finished run on 2024/12/20 at 07:16:03.375
