   * xtb version 6.7.1 (edcfbbe) compiled by 'conda@3ef47c1a292c' on 2024-11-25

   ID    Z sym.   atoms
    1    8 O      1, 29, 30
    2    6 C      2-9, 11, 12, 14-19, 21-27
    3    7 N      10, 13, 20, 28
    4    1 H      31-49

          program call               : xtb C1255.xyz --opt --namespace C1255 --charge +1
          :  Hamiltonian                  GFN2-xTB          :
 * total energy  :   -82.2980520 Eh     change       -0.1417106E-08 Eh
 * total energy  :   -82.3125373 Eh     change       -0.1448536E-01 Eh
 * total energy  :   -82.3160988 Eh     change       -0.3561460E-02 Eh
 * total energy  :   -82.3169051 Eh     change       -0.8063575E-03 Eh
 * total energy  :   -82.3178259 Eh     change       -0.9207181E-03 Eh
 * total energy  :   -82.3183477 Eh     change       -0.5218232E-03 Eh
 * total energy  :   -82.3189941 Eh     change       -0.6464377E-03 Eh
 * total energy  :   -82.3194957 Eh     change       -0.5015780E-03 Eh
 * total energy  :   -82.3200596 Eh     change       -0.5639401E-03 Eh
 * total energy  :   -82.3206399 Eh     change       -0.5802866E-03 Eh
 * total energy  :   -82.3290528 Eh     change       -0.6272919E-05 Eh
 * total energy  :   -82.3290591 Eh     change       -0.6386644E-05 Eh
 * total energy  :   -82.3290658 Eh     change       -0.6627907E-05 Eh
 * total energy  :   -82.3290727 Eh     change       -0.6917197E-05 Eh
 * total energy  :   -82.3290799 Eh     change       -0.7201946E-05 Eh
 * total energy  :   -82.3290873 Eh     change       -0.7361371E-05 Eh
 * total energy  :   -82.3290946 Eh     change       -0.7328018E-05 Eh
 * total energy  :   -82.3291017 Eh     change       -0.7105852E-05 Eh
 * total energy  :   -82.3291060 Eh     change       -0.4333701E-05 Eh
   *** GEOMETRY OPTIMIZATION CONVERGED AFTER 94 ITERATIONS ***

 final structure:
================
49
 xtb: 6.7.1 (edcfbbe)
O            2.39199702161693        2.76238254902513        0.02495936481721
C            2.75843776995477        1.61993784017076       -0.14071704205805
C            2.43245101738516        0.80209518008101       -1.30552894249048
C            2.93243940641456       -0.48976638283718       -1.50472351644673
C            2.58643453761134       -1.19542679839435       -2.63982928227648
C            1.74176919347711       -0.63282933058301       -3.58686066619531
C            1.23996898328113        0.64632614470791       -3.39940657791665
C            1.58247633249769        1.35993994700983       -2.26928019066315
C            3.65529941437844        0.97373853890958        0.94764631367078
N            3.77278446274475        1.88868288325716        2.04726820875349
C            4.39975854483577        3.06942689633415        1.98608971223305
C            5.28394364444144        3.54940547187226        0.91166636089412
N            4.11244870338605        3.79575230664356        3.07856017100899
C            3.27668051060631        3.05026082255531        3.90076204166049
C            3.04430053256098        1.84099767123309        3.22231167671014
C            2.22986763469863        0.85863988974075        3.76746640638004
C            1.67603660500019        1.11449667067293        5.00609159225356
C            1.94001010351650        2.29845630986513        5.69537497558572
C            2.74626004538083        3.28410881966982        5.16187129985751
N            4.73410081649476        4.98490983298058        3.30889191990090
C            4.15466763272261        6.00685709443250        3.79068018146825
C            2.75454933081228        6.24374558323993        4.12604185022863
C            1.70666218960672        5.66764472470194        3.39929613968193
C            0.39764745828773        5.91318016684505        3.76117501208358
C            0.13557336143906        6.72520377852569        4.85628394810257
C            1.16023689571034        7.33098451413471        5.57193467796140
C            2.46716591630899        7.10042996414282        5.19497680701016
N           -1.24495234956015        6.95070491411629        5.25871168977090
O           -2.09701488544364        6.34583103853918        4.65231547500258
O           -1.43306605326567        7.71522660296874        6.17315135741703
H            3.59416635368302       -0.94799179422180       -0.78637882670787
H            2.97638315226431       -2.19022636873313       -2.79034575491456
H            1.47707049293037       -1.19326081951223       -4.47007996255679
H            0.58387190004663        1.08428378937813       -4.13518245500173
H            1.20251203974930        2.35691088705129       -2.10534722625500
H            3.21004583875245        0.04490600299176        1.30280357090254
H            4.63984477147824        0.76347956737499        0.52226701432460
H            4.69527173393310        3.93189894374650        0.07637704781924
H            5.90236397593539        4.35779127541827        1.29683828470093
H            5.91679921351524        2.74704644955303        0.53814467394509
H            2.03430459352437       -0.06989848162638        3.25657000848067
H            1.03375145682701        0.37645307537259        5.45884097635861
H            1.50500368783003        2.44596463641796        6.67060821256407
H            2.96137932893309        4.18537508605050        5.71110139439263
H            4.83853701910472        6.82873719077281        3.97496029127971
H            1.90768408983034        5.06330535175895        2.52776693131070
H           -0.42665225825497        5.48496533069754        3.21177048579013
H            0.91692590924858        7.97474576350097        6.40361025338898
H            3.27554192365635        7.56273046945376        5.74077411564994

          :  Hamiltonian                  GFN2-xTB          :
         :: total energy             -82.329106019502 Eh    ::
         :: gradient norm              0.000184358805 Eh/a0 ::
         :: HOMO-LUMO gap              2.336279549842 eV    ::
         :: SCC energy               -83.587253960583 Eh    ::
         :: -> dispersion             -0.058731033904 Eh    ::
         :: repulsion energy           1.258147941081 Eh    ::

    * Orbital Energies and Occupations

         #    Occupation            Energy/Eh            Energy/eV
      -------------------------------------------------------------
         1        2.0000           -0.8704233             -23.6854
       ...           ...                  ...                  ...
        62        2.0000           -0.5562312             -15.1358
        63        2.0000           -0.5517020             -15.0126
        64        2.0000           -0.5504471             -14.9784
        65        2.0000           -0.5466761             -14.8758
        66        2.0000           -0.5455529             -14.8453
        67        2.0000           -0.5434025             -14.7867
        68        2.0000           -0.5366306             -14.6025
        69        2.0000           -0.5340560             -14.5324
        70        2.0000           -0.5298860             -14.4189
        71        2.0000           -0.5253842             -14.2964
        72        2.0000           -0.5248895             -14.2830
        73        2.0000           -0.5212392             -14.1836
        74        2.0000           -0.5176996             -14.0873 (HOMO)
        75                         -0.4318429             -11.7510 (LUMO)
        76                         -0.4058018             -11.0424
        77                         -0.4029317             -10.9643
        78                         -0.3861862             -10.5087
        79                         -0.3643617              -9.9148
        80                         -0.3564112              -9.6984
        81                         -0.3463673              -9.4251
        82                         -0.3377162              -9.1897
        83                         -0.3200510              -8.7090
        84                         -0.3094979              -8.4219
        85                         -0.2330463              -6.3415
       ...                                ...                  ...
       139                          0.5552438              15.1090
      -------------------------------------------------------------
                  HL-Gap            0.0858567 Eh            2.3363 eV

     #   Z          covCN         q      C6AA      α(0)
     1   8 O        0.857    -0.370    21.087     6.157
     2   6 C        2.823     0.227    23.236     7.898
     3   6 C        2.970    -0.019    28.481     8.754
     4   6 C        2.919    -0.027    28.687     8.783
     5   6 C        2.917    -0.019    28.492     8.753
     6   6 C        2.920    -0.007    28.199     8.708
     7   6 C        2.916    -0.018    28.460     8.748
     8   6 C        2.927    -0.010    28.257     8.717
     9   6 C        3.742    -0.040    21.362     6.594
    10   7 N        2.827     0.019    20.924     6.794
    11   6 C        3.071     0.126    25.161     8.225
    12   6 C        3.755    -0.134    23.139     6.859
    13   7 N        2.919     0.097    19.559     6.569
    14   6 C        3.077     0.030    27.256     8.559
    15   6 C        3.097     0.041    26.966     8.510
    16   6 C        2.910    -0.032    28.804     8.800
    17   6 C        2.925    -0.019    28.477     8.751
    18   6 C        2.926    -0.021    28.530     8.759
    19   6 C        2.909    -0.032    28.797     8.799
    20   7 N        1.905    -0.152    25.067     7.423
    21   6 C        2.844     0.073    26.368     8.416
    22   6 C        2.970     0.011    27.761     8.642
    23   6 C        2.922    -0.021    28.527     8.759
    24   6 C        2.916    -0.019    28.478     8.751
    25   6 C        2.917     0.014    27.697     8.630
    26   6 C        2.915    -0.015    28.397     8.738
    27   6 C        2.927    -0.021    28.543     8.761
    28   7 N        2.758     0.553    13.451     5.447
    29   8 O        0.930    -0.365    20.963     6.140
    30   8 O        0.930    -0.358    20.822     6.120
    31   1 H        0.926     0.041     2.435     2.440
    32   1 H        0.926     0.061     2.192     2.315
    33   1 H        0.926     0.067     2.123     2.278
    34   1 H        0.926     0.065     2.142     2.289
    35   1 H        0.926     0.072     2.066     2.248
    36   1 H        0.925     0.097     1.814     2.106
    37   1 H        0.924     0.092     1.859     2.132
    38   1 H        0.924     0.114     1.661     2.015
    39   1 H        0.925     0.107     1.719     2.050
    40   1 H        0.925     0.091     1.869     2.138
    41   1 H        0.926     0.066     2.133     2.284
    42   1 H        0.926     0.079     1.989     2.205
    43   1 H        0.926     0.076     2.018     2.221
    44   1 H        0.926     0.059     2.210     2.325
    45   1 H        0.925     0.099     1.794     2.094
    46   1 H        0.926     0.058     2.226     2.333
    47   1 H        0.926     0.095     1.832     2.116
    48   1 H        0.926     0.101     1.779     2.086
    49   1 H        0.926     0.070     2.085     2.258

Wiberg/Mayer (AO) data.
largest (>0.10) Wiberg bond orders for each atom

     #   Z sym  total        # sym  WBO       # sym  WBO       # sym  WBO
 ---------------------------------------------------------------------------
     1   8 O    2.077 --     2 C    1.801
     2   6 C    3.929 --     1 O    1.801     3 C    1.079     9 C    0.929
     3   6 C    3.983 --     4 C    1.353     8 C    1.351     2 C    1.079
     4   6 C    3.991 --     5 C    1.473     3 C    1.353    31 H    0.967
                             7 C    0.102
     5   6 C    3.990 --     4 C    1.473     6 C    1.417    32 H    0.968
     6   6 C    3.986 --     7 C    1.428     5 C    1.417    33 H    0.968
     7   6 C    3.989 --     8 C    1.463     6 C    1.428    34 H    0.967
                             4 C    0.102
     8   6 C    3.984 --     7 C    1.463     3 C    1.351    35 H    0.965
     9   6 C    3.950 --    10 N    0.992    36 H    0.951    37 H    0.944
                             2 C    0.929
    10   7 N    3.651 --    11 C    1.315    15 C    1.110     9 C    0.992
    11   6 C    3.946 --    10 N    1.315    13 N    1.290    12 C    1.054
    12   6 C    3.974 --    11 C    1.054    39 H    0.963    40 H    0.959
                            38 H    0.935
    13   7 N    3.688 --    11 C    1.290    14 C    1.085    20 N    1.055
    14   6 C    3.951 --    19 C    1.352    15 C    1.276    13 N    1.085
    15   6 C    3.953 --    16 C    1.351    14 C    1.276    10 N    1.110
    16   6 C    3.983 --    17 C    1.481    15 C    1.351    41 H    0.962
                            19 C    0.116
    17   6 C    3.982 --    16 C    1.481    18 C    1.390    42 H    0.966
    18   6 C    3.985 --    19 C    1.480    17 C    1.390    43 H    0.966
    19   6 C    3.986 --    18 C    1.480    14 C    1.352    44 H    0.963
                            16 C    0.116
    20   7 N    3.086 --    21 C    1.776    13 N    1.055
    21   6 C    3.949 --    20 N    1.776    22 C    1.078    45 H    0.940
    22   6 C    3.990 --    23 C    1.365    27 C    1.361    21 C    1.078
    23   6 C    3.990 --    24 C    1.459    22 C    1.365    46 H    0.967
                            26 C    0.103
    24   6 C    3.983 --    23 C    1.459    25 C    1.389    47 H    0.957
                            27 C    0.104
    25   6 C    3.968 --    24 C    1.389    26 C    1.386    28 N    0.941
    26   6 C    3.981 --    27 C    1.463    25 C    1.386    48 H    0.956
                            23 C    0.103
    27   6 C    3.983 --    26 C    1.463    22 C    1.361    49 H    0.965
                            24 C    0.104
    28   7 N    3.915 --    30 O    1.471    29 O    1.464    25 C    0.941
    29   8 O    1.954 --    28 N    1.464    30 O    0.381
    30   8 O    1.962 --    28 N    1.471    29 O    0.381
    31   1 H    0.998 --     4 C    0.967
    32   1 H    0.996 --     5 C    0.968
    33   1 H    0.995 --     6 C    0.968
    34   1 H    0.995 --     7 C    0.967
    35   1 H    0.995 --     8 C    0.965
    36   1 H    0.990 --     9 C    0.951
    37   1 H    0.990 --     9 C    0.944
    38   1 H    0.982 --    12 C    0.935
    39   1 H    0.988 --    12 C    0.963
    40   1 H    0.990 --    12 C    0.959
    41   1 H    0.995 --    16 C    0.962
    42   1 H    0.993 --    17 C    0.966
    43   1 H    0.994 --    18 C    0.966
    44   1 H    0.996 --    19 C    0.963
    45   1 H    0.988 --    21 C    0.940
    46   1 H    0.996 --    23 C    0.967
    47   1 H    0.991 --    24 C    0.957
    48   1 H    0.989 --    26 C    0.956
    49   1 H    0.995 --    27 C    0.965
 ---------------------------------------------------------------------------

molecular dipole:
                 x           y           z       tot (Debye)
 q only:        7.828       4.185       3.298
   full:        7.769       4.102       3.349      23.897

           -------------------------------------------------
          | TOTAL ENERGY              -82.329106019502 Eh   |
          | GRADIENT NORM               0.000184358805 Eh/α |
          | HOMO-LUMO GAP               2.336279549842 eV   |
           -------------------------------------------------

 * finished run on 2024/12/20 at 07:16:38.006
