   * xtb version 6.7.1 (edcfbbe) compiled by 'conda@3ef47c1a292c' on 2024-11-25

   ID    Z sym.   atoms
    1    6 C      1, 2, 4-9
    2    7 N      3, 11
    3    8 O      10
    4    1 H      12-22

          program call               : xtb C1251.xyz --opt --namespace C1251 --charge +1
          :  Hamiltonian                  GFN2-xTB          :
 * total energy  :   -32.2407966 Eh     change       -0.1110863E-09 Eh
 * total energy  :   -32.2454264 Eh     change       -0.4629729E-02 Eh
 * total energy  :   -32.2470704 Eh     change       -0.1644012E-02 Eh
 * total energy  :   -32.2474783 Eh     change       -0.4079756E-03 Eh
 * total energy  :   -32.2477647 Eh     change       -0.2863078E-03 Eh
 * total energy  :   -32.2479428 Eh     change       -0.1781038E-03 Eh
 * total energy  :   -32.2481300 Eh     change       -0.1872936E-03 Eh
 * total energy  :   -32.2483233 Eh     change       -0.1932382E-03 Eh
 * total energy  :   -32.2484889 Eh     change       -0.1655985E-03 Eh
 * total energy  :   -32.2485919 Eh     change       -0.1029888E-03 Eh
 * total energy  :   -32.2486797 Eh     change       -0.8785839E-04 Eh
 * total energy  :   -32.2487474 Eh     change       -0.6764236E-04 Eh
 * total energy  :   -32.2487801 Eh     change       -0.3270644E-04 Eh
 * total energy  :   -32.2487967 Eh     change       -0.1659357E-04 Eh
 * total energy  :   -32.2488060 Eh     change       -0.9362643E-05 Eh
 * total energy  :   -32.2488118 Eh     change       -0.5808815E-05 Eh
 * total energy  :   -32.2488173 Eh     change       -0.5469883E-05 Eh
 * total energy  :   -32.2488199 Eh     change       -0.2614729E-05 Eh
   *** GEOMETRY OPTIMIZATION CONVERGED AFTER 18 ITERATIONS ***

 final structure:
================
22
 xtb: 6.7.1 (edcfbbe)
C            0.79026525057453        0.46571625054673       -0.11069024864909
C            0.33117934337840       -0.00137369551999        1.27105860492064
N            0.93933017126912        0.76219179309528        2.34452405264570
C            0.69855036047784        2.07836580467779        2.41290510084679
C            1.12653214238705        2.82246006142074        3.49660554658867
C            1.81900662047045        2.19938186717432        4.52244916317783
C            2.07133642511883        0.83423870127342        4.42347239012885
C            1.60645869704452        0.14224102617506        3.32893130250563
C           -1.21725796283693        0.17781158667977        1.41473884448205
O           -1.66639747014641        1.08718829012511        2.06722115859570
N           -1.93376455618393       -0.73605135799799        0.76002881395938
H            0.45000887724381        1.47312810342194       -0.33312304476136
H            0.39133346594071       -0.19639543787692       -0.87377120218015
H            1.87590166326449        0.43980283320495       -0.17511904542539
H            0.58982465862615       -1.05532083000360        1.40886495312251
H            0.16817681596173        2.54156920075429        1.59757150694846
H            0.91048546376537        3.87809021369446        3.52981883887414
H            2.15857579619226        2.75856345844016        5.37979540124881
H            2.61366514138513        0.31071309271514        5.19437626966242
H            1.76670089385483       -0.92118489807339        3.22809642841255
H           -1.52637354529742       -1.48335401406759        0.22462685371232
H           -2.94006825249098       -0.66723204986050        0.79190831118410

          :  Hamiltonian                  GFN2-xTB          :
         :: total energy             -32.248819931281 Eh    ::
         :: gradient norm              0.000930872784 Eh/a0 ::
         :: HOMO-LUMO gap              2.847177921464 eV    ::
         :: SCC energy               -32.737720669102 Eh    ::
         :: -> dispersion             -0.017616654557 Eh    ::
         :: repulsion energy           0.488900737821 Eh    ::

    * Orbital Energies and Occupations

         #    Occupation            Energy/Eh            Energy/eV
      -------------------------------------------------------------
         1        2.0000           -0.8738924             -23.7798
       ...           ...                  ...                  ...
        17        2.0000           -0.6824205             -18.5696
        18        2.0000           -0.6741275             -18.3439
        19        2.0000           -0.6683838             -18.1876
        20        2.0000           -0.6533611             -17.7789
        21        2.0000           -0.6453606             -17.5612
        22        2.0000           -0.6283812             -17.0991
        23        2.0000           -0.6219593             -16.9244
        24        2.0000           -0.6202183             -16.8770
        25        2.0000           -0.6138741             -16.7044
        26        2.0000           -0.6121824             -16.6583
        27        2.0000           -0.6050167             -16.4633
        28        2.0000           -0.5751841             -15.6516
        29        2.0000           -0.5559861             -15.1292 (HOMO)
        30                         -0.4513543             -12.2820 (LUMO)
        31                         -0.4188998             -11.3988
        32                         -0.3636135              -9.8944
        33                         -0.2995810              -8.1520
        34                         -0.1787615              -4.8643
        35                         -0.1337666              -3.6400
        36                         -0.0963548              -2.6219
        37                         -0.0751340              -2.0445
        38                         -0.0515057              -1.4015
        39                         -0.0342651              -0.9324
        40                         -0.0229769              -0.6252
       ...                                ...                  ...
        55                          0.5046723              13.7328
      -------------------------------------------------------------
                  HL-Gap            0.1046319 Eh            2.8472 eV

     #   Z          covCN         q      C6AA      α(0)
     1   6 C        3.753    -0.126    22.972     6.835
     2   6 C        3.809    -0.012    20.785     6.490
     3   7 N        2.753     0.108    19.382     6.539
     4   6 C        2.892     0.048    26.929     8.508
     5   6 C        2.916    -0.008    28.215     8.710
     6   6 C        2.924     0.014    27.691     8.630
     7   6 C        2.916    -0.011    28.289     8.722
     8   6 C        2.888     0.030    27.323     8.570
     9   6 C        2.743     0.284    22.181     7.711
    10   8 O        0.858    -0.393    21.534     6.222
    11   7 N        2.637    -0.241    26.297     7.616
    12   1 H        0.925     0.074     2.038     2.233
    13   1 H        0.925     0.083     1.951     2.184
    14   1 H        0.925     0.077     2.012     2.218
    15   1 H        0.924     0.083     1.950     2.184
    16   1 H        0.926     0.124     1.581     1.966
    17   1 H        0.926     0.110     1.696     2.037
    18   1 H        0.926     0.107     1.723     2.053
    19   1 H        0.926     0.107     1.726     2.055
    20   1 H        0.926     0.100     1.781     2.087
    21   1 H        0.860     0.208     1.064     1.616
    22   1 H        0.860     0.232     0.956     1.532

Wiberg/Mayer (AO) data.
largest (>0.10) Wiberg bond orders for each atom

     #   Z sym  total        # sym  WBO       # sym  WBO       # sym  WBO
 ---------------------------------------------------------------------------
     1   6 C    3.977 --     2 C    0.986    12 H    0.979    14 H    0.978
                            13 H    0.976
     2   6 C    3.948 --     1 C    0.986     3 N    0.972    15 H    0.955
                             9 C    0.887
     3   7 N    3.759 --     4 C    1.315     8 C    1.307     2 C    0.972
     4   6 C    3.951 --     5 C    1.440     3 N    1.315    16 H    0.949
     5   6 C    3.980 --     6 C    1.441     4 C    1.440    17 H    0.959
                             8 C    0.101
     6   6 C    3.969 --     5 C    1.441     7 C    1.401    18 H    0.961
     7   6 C    3.981 --     8 C    1.482     6 C    1.401    19 H    0.959
     8   6 C    3.960 --     7 C    1.482     3 N    1.307    20 H    0.955
                             5 C    0.101
     9   6 C    3.959 --    10 O    1.709    11 N    1.315     2 C    0.887
    10   8 O    2.084 --     9 C    1.709    11 N    0.212
    11   7 N    3.422 --     9 C    1.315    21 H    0.938    22 H    0.924
                            10 O    0.212
    12   1 H    0.994 --     1 C    0.979
    13   1 H    0.992 --     1 C    0.976
    14   1 H    0.994 --     1 C    0.978
    15   1 H    0.993 --     2 C    0.955
    16   1 H    0.985 --     4 C    0.949
    17   1 H    0.987 --     5 C    0.959
    18   1 H    0.988 --     6 C    0.961
    19   1 H    0.988 --     7 C    0.959
    20   1 H    0.990 --     8 C    0.955
    21   1 H    0.956 --    11 N    0.938
    22   1 H    0.945 --    11 N    0.924
 ---------------------------------------------------------------------------

molecular dipole:
                 x           y           z       tot (Debye)
 q only:        1.730       0.910       4.047
   full:        1.738       0.628       3.921      11.017

           -------------------------------------------------
          | TOTAL ENERGY              -32.248819931281 Eh   |
          | GRADIENT NORM               0.000930872784 Eh/α |
          | HOMO-LUMO GAP               2.847177921464 eV   |
           -------------------------------------------------

 * finished run on 2024/12/20 at 07:16:22.814
