   * xtb version 6.7.1 (edcfbbe) compiled by 'conda@3ef47c1a292c' on 2024-11-25

   ID    Z sym.   atoms
    1    6 C      1-3, 5, 7-13
    2    7 N      4, 6
    3    1 H      14-26

          program call               : xtb C1258.xyz --opt --namespace C1258 --charge +1
          :  Hamiltonian                  GFN2-xTB          :
 * total energy  :   -35.6307269 Eh     change       -0.1550923E-08 Eh
 * total energy  :   -35.6346676 Eh     change       -0.3940714E-02 Eh
 * total energy  :   -35.6351581 Eh     change       -0.4905079E-03 Eh
 * total energy  :   -35.6352552 Eh     change       -0.9714975E-04 Eh
 * total energy  :   -35.6353323 Eh     change       -0.7708720E-04 Eh
 * total energy  :   -35.6353990 Eh     change       -0.6671770E-04 Eh
 * total energy  :   -35.6354548 Eh     change       -0.5576574E-04 Eh
 * total energy  :   -35.6355589 Eh     change       -0.1040521E-03 Eh
 * total energy  :   -35.6356838 Eh     change       -0.1249482E-03 Eh
 * total energy  :   -35.6358760 Eh     change       -0.1921477E-03 Eh
 * total energy  :   -35.6382754 Eh     change       -0.8271743E-05 Eh
 * total energy  :   -35.6382905 Eh     change       -0.1514607E-04 Eh
 * total energy  :   -35.6382995 Eh     change       -0.9006759E-05 Eh
 * total energy  :   -35.6383068 Eh     change       -0.7243276E-05 Eh
 * total energy  :   -35.6383134 Eh     change       -0.6616058E-05 Eh
 * total energy  :   -35.6383211 Eh     change       -0.7738731E-05 Eh
 * total energy  :   -35.6383303 Eh     change       -0.9185316E-05 Eh
 * total energy  :   -35.6383394 Eh     change       -0.9118081E-05 Eh
 * total energy  :   -35.6383435 Eh     change       -0.4001714E-05 Eh
   *** GEOMETRY OPTIMIZATION CONVERGED AFTER 50 ITERATIONS ***

 final structure:
================
26
 xtb: 6.7.1 (edcfbbe)
C            0.11678367578260       -0.54804158659406        0.41400125388291
C            0.15808913353447        0.68363107793647       -0.05458619048368
C           -0.82554976856894        1.23123133581643       -1.05490283806941
N           -1.38976875001552        2.48107167528734       -0.59166548258720
C           -1.12323477201569        3.69637694299930       -1.05670362568919
N           -1.77700850425890        4.63125037232038       -0.37536993137099
C           -2.51515130869970        3.99742290237579        0.60322443023974
C           -2.26271879092762        2.61865700946707        0.46802580452574
C           -2.85551219597484        1.68932583816237        1.31456082048556
C           -3.70019519032784        2.18412698924188        2.28641066973400
C           -3.95233603028767        3.55360186714788        2.41920236047985
C           -3.36880560540733        4.48502112772218        1.58570216666822
C           -1.73505384215662        6.05090543258090       -0.59693718311535
H           -0.63969108857273       -1.25261571145709        0.11023558279157
H            0.85460996664735       -0.90929456236540        1.10775003918142
H            0.93255188019652        1.37298961225400        0.25171956355012
H           -0.32373115252657        1.41847015337955       -2.00846501671057
H           -1.63685523668675        0.51712993367400       -1.21776484762839
H           -0.46759094986538        3.89785701015262       -1.88380753231566
H           -2.65923967284805        0.63455677236633        1.22144899531442
H           -4.18048896338875        1.49757652462779        2.96506349199543
H           -4.62099169063376        3.88809403996599        3.19612103666901
H           -3.56634459570846        5.53873409223065        1.69263302359546
H           -1.39320092636105        6.55791942066409        0.30601899651187
H           -1.05436386424265        6.27865555026851       -1.41401072417434
H           -2.73056175668725        6.41970617977222       -0.84767486347986

          :  Hamiltonian                  GFN2-xTB          :
         :: total energy             -35.638343450483 Eh    ::
         :: gradient norm              0.000621486727 Eh/a0 ::
         :: HOMO-LUMO gap              3.413421071731 eV    ::
         :: SCC energy               -36.257268123508 Eh    ::
         :: -> dispersion             -0.022970492197 Eh    ::
         :: repulsion energy           0.618924673025 Eh    ::

    * Orbital Energies and Occupations

         #    Occupation            Energy/Eh            Energy/eV
      -------------------------------------------------------------
         1        2.0000           -0.8853788             -24.0924
       ...           ...                  ...                  ...
        21        2.0000           -0.6430939             -17.4995
        22        2.0000           -0.6362811             -17.3141
        23        2.0000           -0.6327193             -17.2172
        24        2.0000           -0.6295289             -17.1304
        25        2.0000           -0.6205531             -16.8861
        26        2.0000           -0.6042422             -16.4423
        27        2.0000           -0.5961798             -16.2229
        28        2.0000           -0.5834079             -15.8753
        29        2.0000           -0.5764922             -15.6872
        30        2.0000           -0.5659252             -15.3996
        31        2.0000           -0.5578222             -15.1791
        32        2.0000           -0.5474355             -14.8965
        33        2.0000           -0.5437628             -14.7965 (HOMO)
        34                         -0.4183219             -11.3831 (LUMO)
        35                         -0.3675665             -10.0020
        36                         -0.3593298              -9.7779
        37                         -0.3418763              -9.3029
        38                         -0.2413991              -6.5688
        39                         -0.1770095              -4.8167
        40                         -0.1281831              -3.4880
        41                         -0.0743900              -2.0243
        42                         -0.0388726              -1.0578
        43                         -0.0320585              -0.8724
        44                         -0.0158296              -0.4307
       ...                                ...                  ...
        65                          0.5362507              14.5921
      -------------------------------------------------------------
                  HL-Gap            0.1254409 Eh            3.4134 eV

     #   Z          covCN         q      C6AA      α(0)
     1   6 C        2.837    -0.079    29.955     8.969
     2   6 C        2.886    -0.038    28.954     8.822
     3   6 C        3.745    -0.019    20.989     6.535
     4   7 N        2.829     0.036    20.618     6.744
     5   6 C        3.072     0.063    26.513     8.443
     6   7 N        2.825     0.043    20.485     6.722
     7   6 C        3.122     0.038    26.982     8.507
     8   6 C        3.121     0.041    26.917     8.497
     9   6 C        2.908    -0.031    28.779     8.796
    10   6 C        2.926    -0.017    28.428     8.744
    11   6 C        2.926    -0.017    28.423     8.743
    12   6 C        2.908    -0.032    28.808     8.801
    13   6 C        3.691    -0.077    22.168     6.738
    14   1 H        0.926     0.066     2.135     2.285
    15   1 H        0.926     0.078     1.995     2.209
    16   1 H        0.926     0.055     2.259     2.351
    17   1 H        0.924     0.084     1.938     2.177
    18   1 H        0.924     0.092     1.861     2.133
    19   1 H        0.926     0.105     1.736     2.060
    20   1 H        0.926     0.075     2.033     2.230
    21   1 H        0.926     0.082     1.957     2.188
    22   1 H        0.926     0.082     1.954     2.186
    23   1 H        0.926     0.074     2.037     2.232
    24   1 H        0.924     0.101     1.774     2.083
    25   1 H        0.925     0.094     1.842     2.122
    26   1 H        0.924     0.101     1.775     2.084

Wiberg/Mayer (AO) data.
largest (>0.10) Wiberg bond orders for each atom

     #   Z sym  total        # sym  WBO       # sym  WBO       # sym  WBO
 ---------------------------------------------------------------------------
     1   6 C    3.983 --     2 C    1.988    14 H    0.972    15 H    0.971
     2   6 C    3.981 --     1 C    1.988     3 C    0.996    16 H    0.964
     3   6 C    3.940 --     2 C    0.996     4 N    0.963    18 H    0.956
                            17 H    0.956
     4   7 N    3.686 --     5 C    1.371     8 C    1.128     3 C    0.963
                             6 N    0.106
     5   6 C    3.953 --     4 N    1.371     6 N    1.368    19 H    0.953
     6   7 N    3.687 --     5 C    1.368     7 C    1.126    13 C    0.991
                             4 N    0.106
     7   6 C    3.952 --    12 C    1.338     8 C    1.274     6 N    1.126
     8   6 C    3.953 --     9 C    1.337     7 C    1.274     4 N    1.128
     9   6 C    3.986 --    10 C    1.497     8 C    1.337    20 H    0.963
                            12 C    0.119
    10   6 C    3.986 --     9 C    1.497    11 C    1.376    21 H    0.966
    11   6 C    3.986 --    12 C    1.497    10 C    1.376    22 H    0.966
    12   6 C    3.986 --    11 C    1.497     7 C    1.338    23 H    0.964
                             9 C    0.119
    13   6 C    3.938 --     6 N    0.991    25 H    0.976    24 H    0.964
                            26 H    0.963
    14   1 H    0.996 --     1 C    0.972
    15   1 H    0.992 --     1 C    0.971
    16   1 H    0.997 --     2 C    0.964
    17   1 H    0.992 --     3 C    0.956
    18   1 H    0.991 --     3 C    0.956
    19   1 H    0.988 --     5 C    0.953
    20   1 H    0.994 --     9 C    0.963
    21   1 H    0.993 --    10 C    0.966
    22   1 H    0.993 --    11 C    0.966
    23   1 H    0.994 --    12 C    0.964
    24   1 H    0.989 --    13 C    0.964
    25   1 H    0.991 --    13 C    0.976
    26   1 H    0.989 --    13 C    0.963
 ---------------------------------------------------------------------------

molecular dipole:
                 x           y           z       tot (Debye)
 q only:       -3.361       6.268      -0.060
   full:       -3.246       6.361      -0.291      18.167

           -------------------------------------------------
          | TOTAL ENERGY              -35.638343450483 Eh   |
          | GRADIENT NORM               0.000621486727 Eh/α |
          | HOMO-LUMO GAP               3.413421071731 eV   |
           -------------------------------------------------

 * finished run on 2024/12/20 at 07:16:42.972
