   * xtb version 6.7.1 (edcfbbe) compiled by 'conda@3ef47c1a292c' on 2024-11-25

   ID    Z sym.   atoms
    1    6 C      1, 3, 4, 6-10
    2    7 N      2, 5
    3   16 S      11
    4    9 F      12-20
    5    1 H      21-30

          program call               : xtb C1256.xyz --opt --namespace C1256 --charge +1
          :  Hamiltonian                  GFN2-xTB          :
 * total energy  :   -59.6232045 Eh     change       -0.2698442E-08 Eh
 * total energy  :   -72.5664544 Eh     change       -0.1294325E+02 Eh
 * total energy  :   -72.9174544 Eh     change       -0.3509999E+00 Eh
 * total energy  :   -73.1238754 Eh     change       -0.2064210E+00 Eh
 * total energy  :   -73.2943324 Eh     change       -0.1704570E+00 Eh
 * total energy  :   -73.4033971 Eh     change       -0.1090647E+00 Eh
 * total energy  :   -73.4703153 Eh     change       -0.6691817E-01 Eh
 * total energy  :   -73.5159261 Eh     change       -0.4561084E-01 Eh
 * total energy  :   -73.5487625 Eh     change       -0.3283638E-01 Eh
 * total energy  :   -73.5693177 Eh     change       -0.2055517E-01 Eh
 * total energy  :   -73.6453640 Eh     change       -0.3108057E-04 Eh
 * total energy  :   -73.6453813 Eh     change       -0.1738579E-04 Eh
 * total energy  :   -73.6453961 Eh     change       -0.1474113E-04 Eh
 * total energy  :   -73.6454058 Eh     change       -0.9737414E-05 Eh
 * total energy  :   -73.6454129 Eh     change       -0.7039122E-05 Eh
 * total energy  :   -73.6454173 Eh     change       -0.4400246E-05 Eh
 * total energy  :   -73.6454229 Eh     change       -0.5679495E-05 Eh
 * total energy  :   -73.6454234 Eh     change       -0.4401436E-06 Eh
 * total energy  :   -73.6454273 Eh     change       -0.3888331E-05 Eh
   *** GEOMETRY OPTIMIZATION CONVERGED AFTER 89 ITERATIONS ***

 final structure:
================
30
 xtb: 6.7.1 (edcfbbe)
C            2.09623337782173       -0.27193843288013       -0.80403841931329
N            1.01421905121502       -0.16749844069875       -1.74445753539264
C            0.05271151831381       -1.11103060445810       -1.94806602361591
C           -0.78361112045387       -0.63653926412400       -2.91107255852441
N           -0.31809153582182        0.59033586162821       -3.27894544097708
C            0.77219147357255        0.85091400016595       -2.55959309809712
C           -0.91317238896081        1.47901093986962       -4.25024922048606
C           -2.29709602831435        1.98576252763317       -3.83055815007162
C           -2.35841956036972        2.69209093791935       -2.47859208929919
C           -1.48652443143166        3.97426425697202       -2.31836066585654
S           -0.06918899624736        5.27042196614021       -5.65235019690727
F           -1.14696655649667        4.05507448928830       -5.89501889642291
F            0.76004870832931        4.13564152198399       -4.63264332855796
F            0.95885599485746        4.85804188085297       -6.81871410670713
F           -0.92771641838055        6.21252729722163       -6.71001401510675
F           -1.51425868032794        4.74848034119929       -3.42199857388221
F           -1.87574839922942        4.71469927970730       -1.30144307683625
F           -0.21060050032406        3.63473634740629       -2.11840442758895
F           -3.63172164837254        3.02516536143124       -2.20372980892007
F           -1.96069551969270        1.84892995701063       -1.48140746826920
H            1.70236474492874       -0.42921333857927        0.20068954988694
H            2.68594487597606        0.64172576045779       -0.81646251793934
H            2.73786170672814       -1.11567144088660       -1.06060723886627
H            0.02677607153236       -2.03501744224761       -1.40701248809167
H           -1.65109673223391       -1.08564419867726       -3.34940357512446
H            1.35652920527726        1.74880207048143       -2.63523259323994
H           -0.22520638385721        2.30705875123340       -4.41259339574106
H           -1.03258116599301        0.94751890602507       -5.19805960157428
H           -2.65829579575237        2.67681083372863       -4.59413782747300
H           -3.00813486634097        1.15816987420509       -3.76071321100148

          :  Hamiltonian                  GFN2-xTB          :
         :: total energy             -73.645427264316 Eh    ::
         :: gradient norm              0.000693819142 Eh/a0 ::
         :: HOMO-LUMO gap              4.537300483616 eV    ::
         :: SCC energy               -74.085252897593 Eh    ::
         :: -> dispersion             -0.027834538113 Eh    ::
         :: repulsion energy           0.439825633278 Eh    ::

    * Orbital Energies and Occupations

         #    Occupation            Energy/Eh            Energy/eV
      -------------------------------------------------------------
         1        2.0000           -1.0376205             -28.2351
       ...           ...                  ...                  ...
        48        2.0000           -0.6414427             -17.4545
        49        2.0000           -0.6378107             -17.3557
        50        2.0000           -0.6367667             -17.3273
        51        2.0000           -0.6345696             -17.2675
        52        2.0000           -0.6287556             -17.1093
        53        2.0000           -0.6167838             -16.7835
        54        2.0000           -0.6123993             -16.6642
        55        2.0000           -0.6117774             -16.6473
        56        2.0000           -0.6108614             -16.6224
        57        2.0000           -0.6100744             -16.6010
        58        2.0000           -0.6035528             -16.4235
        59        2.0000           -0.5902503             -16.0615
        60        2.0000           -0.5755140             -15.6605 (HOMO)
        61                         -0.4087713             -11.1232 (LUMO)
        62                         -0.3739785             -10.1765
        63                         -0.3350319              -9.1167
        64                         -0.1919227              -5.2225
        65                         -0.1853109              -5.0426
        66                         -0.1819345              -4.9507
        67                         -0.1661952              -4.5224
        68                         -0.1431194              -3.8945
        69                         -0.1344691              -3.6591
        70                         -0.1307939              -3.5591
        71                         -0.1118245              -3.0429
       ...                                ...                  ...
        95                          0.6461986              17.5840
      -------------------------------------------------------------
                  HL-Gap            0.1667427 Eh            4.5373 eV

     #   Z          covCN         q      C6AA      α(0)
     1   6 C        3.693    -0.093    22.461     6.781
     2   7 N        2.869     0.091    19.673     6.588
     3   6 C        3.075    -0.008    28.140     8.698
     4   6 C        3.067    -0.006    28.098     8.692
     5   7 N        2.872     0.070    20.022     6.646
     6   6 C        3.095     0.041    26.964     8.510
     7   6 C        3.742    -0.046    21.477     6.612
     8   6 C        3.803    -0.099    22.392     6.737
     9   6 C        3.517     0.314    16.993     6.084
    10   6 C        3.328     0.486    17.388     6.621
    11  16 S        3.147     1.898    84.431    15.465
    12   9 F        0.787    -0.440    14.042     4.426
    13   9 F        0.780    -0.566    15.801     4.695
    14   9 F        0.788    -0.400    13.517     4.343
    15   9 F        0.786    -0.492    14.742     4.535
    16   9 F        0.797    -0.212    11.360     3.982
    17   9 F        0.791    -0.147    10.698     3.864
    18   9 F        0.791    -0.182    11.046     3.926
    19   9 F        0.789    -0.180    11.030     3.923
    20   9 F        0.789    -0.212    11.359     3.981
    21   1 H        0.924     0.112     1.678     2.026
    22   1 H        0.925     0.105     1.743     2.064
    23   1 H        0.924     0.111     1.692     2.034
    24   1 H        0.926     0.116     1.650     2.008
    25   1 H        0.926     0.112     1.680     2.027
    26   1 H        0.926     0.134     1.502     1.916
    27   1 H        0.925     0.134     1.503     1.917
    28   1 H        0.924     0.118     1.628     1.995
    29   1 H        0.924     0.130     1.539     1.940
    30   1 H        0.924     0.111     1.689     2.033

Wiberg/Mayer (AO) data.
largest (>0.10) Wiberg bond orders for each atom

     #   Z sym  total        # sym  WBO       # sym  WBO       # sym  WBO
 ---------------------------------------------------------------------------
     1   6 C    3.930 --     2 N    0.990    22 H    0.975    21 H    0.961
                            23 H    0.961
     2   7 N    3.730 --     6 C    1.377     3 C    1.224     1 C    0.990
     3   6 C    3.948 --     4 C    1.598     2 N    1.224    24 H    0.960
     4   6 C    3.949 --     3 C    1.598     5 N    1.223    25 H    0.960
     5   7 N    3.714 --     6 C    1.354     4 C    1.223     7 C    0.978
     6   6 C    3.944 --     2 N    1.377     5 N    1.354    26 H    0.948
     7   6 C    3.935 --     8 C    0.997     5 N    0.978    28 H    0.952
                            27 H    0.949
     8   6 C    3.967 --     7 C    0.997     9 C    0.968    30 H    0.959
                            29 H    0.953
     9   6 C    3.866 --    19 F    0.973     8 C    0.968    20 F    0.939
                            10 C    0.894
    10   6 C    3.850 --    17 F    1.000    18 F    0.963    16 F    0.932
                             9 C    0.894
    11  16 S    3.382 --    14 F    0.951    12 F    0.885    15 F    0.826
                            13 F    0.701
    12   9 F    0.931 --    11 S    0.885
    13   9 F    0.750 --    11 S    0.701
    14   9 F    0.994 --    11 S    0.951
    15   9 F    0.865 --    11 S    0.826
    16   9 F    1.075 --    10 C    0.932
    17   9 F    1.135 --    10 C    1.000
    18   9 F    1.092 --    10 C    0.963
    19   9 F    1.087 --     9 C    0.973
    20   9 F    1.051 --     9 C    0.939
    21   1 H    0.987 --     1 C    0.961
    22   1 H    0.989 --     1 C    0.975
    23   1 H    0.987 --     1 C    0.961
    24   1 H    0.987 --     3 C    0.960
    25   1 H    0.987 --     4 C    0.960
    26   1 H    0.982 --     6 C    0.948
    27   1 H    0.982 --     7 C    0.949
    28   1 H    0.985 --     7 C    0.952
    29   1 H    0.983 --     8 C    0.953
    30   1 H    0.988 --     8 C    0.959
 ---------------------------------------------------------------------------

molecular dipole:
                 x           y           z       tot (Debye)
 q only:        0.723       1.636      -4.678
   full:        0.704       1.711      -4.892      13.295

           -------------------------------------------------
          | TOTAL ENERGY              -73.645427264316 Eh   |
          | GRADIENT NORM               0.000693819142 Eh/α |
          | HOMO-LUMO GAP               4.537300483616 eV   |
           -------------------------------------------------

 * finished run on 2024/12/20 at 07:16:39.523
