   * xtb version 6.7.1 (edcfbbe) compiled by 'conda@3ef47c1a292c' on 2024-11-25

   ID    Z sym.   atoms
    1    6 C      1, 2, 5, 6, 8, 10-22
    2    8 O      3
    3    7 N      4, 7, 9
    4    1 H      23-40

          program call               : xtb C1254.xyz --opt --namespace C1254 --charge +1
          :  Hamiltonian                  GFN2-xTB          :
 * total energy  :   -60.1903316 Eh     change       -0.1276355E-08 Eh
 * total energy  :   -60.1985865 Eh     change       -0.8254896E-02 Eh
 * total energy  :   -60.2010738 Eh     change       -0.2487300E-02 Eh
 * total energy  :   -60.2014957 Eh     change       -0.4219012E-03 Eh
 * total energy  :   -60.2018829 Eh     change       -0.3871922E-03 Eh
 * total energy  :   -60.2020696 Eh     change       -0.1867370E-03 Eh
 * total energy  :   -60.2023034 Eh     change       -0.2337322E-03 Eh
 * total energy  :   -60.2025017 Eh     change       -0.1982937E-03 Eh
 * total energy  :   -60.2026466 Eh     change       -0.1449421E-03 Eh
 * total energy  :   -60.2027371 Eh     change       -0.9046233E-04 Eh
 * total energy  :   -60.2027521 Eh     change       -0.1498078E-04 Eh
 * total energy  :   -60.2027979 Eh     change       -0.4586658E-04 Eh
 * total energy  :   -60.2028088 Eh     change       -0.1086696E-04 Eh
 * total energy  :   -60.2028181 Eh     change       -0.9268804E-05 Eh
 * total energy  :   -60.2028228 Eh     change       -0.4754065E-05 Eh
   *** GEOMETRY OPTIMIZATION CONVERGED AFTER 15 ITERATIONS ***

 final structure:
================
40
 xtb: 6.7.1 (edcfbbe)
C            1.48058102078310       -0.85616889249620       -0.21225167390293
C            0.42945112178051       -0.58633425576001       -1.24047858267251
O           -0.53355818871111       -1.26913384185070       -1.45030567072346
N            0.57633332794495        0.56531168208630       -2.02419677949597
C            1.51781806327238        1.55004792057797       -2.05658580684054
C            2.70849646889161        1.74186533150923       -1.40441071623160
N            3.22570897696812        2.93629573210503       -1.83627899101652
C            2.39490271131699        3.47901398936836       -2.73005372600172
N            1.34671012880464        2.64233925577272       -2.88521408821616
C            0.27033926325482        2.79499531977484       -3.83214629269504
C            2.60589839416794        4.73832806238815       -3.43309520940558
C            1.59789815320859        5.70344091777134       -3.47856357126567
C            1.81713372275591        6.89866453378795       -4.13835980783207
C            3.03266310752467        7.13966122323525       -4.75818819884628
C            4.03721745154750        6.18522382976572       -4.71256205389161
C            3.83216362032482        4.98954188637573       -4.05133205874656
C            4.44292477456614        3.49203393813710       -1.35725627121037
C            4.48409979102574        4.81045705773059       -0.92290305337262
C            5.67786248425416        5.33027980514423       -0.45547806079099
C            6.81684335949717        4.54170244322367       -0.41896853905943
C            6.76589325849355        3.22537995684065       -0.84747790173808
C            5.57801413037185        2.69293944174520       -1.31706488323380
H            1.19666423828416       -1.74794350047922        0.34004806595627
H            1.56226533308099       -0.01926761227823        0.47715578099671
H            2.44047339020650       -1.03025587441431       -0.69255772975378
H           -0.20017696708657        0.67026096350583       -2.66868934241541
H            3.21617225164948        1.15869688194296       -0.66821965594954
H           -0.67723305869465        2.97020296352723       -3.31915116280003
H            0.48430202421520        3.64190052132467       -4.48090368249815
H            0.18728064344543        1.89995855328080       -4.45140066105451
H            0.66146597995941        5.53287146842247       -2.96871959491071
H            1.03714404597325        7.64323858764204       -4.16497220681677
H            3.19823280661971        8.07224583191080       -5.27393268806639
H            4.98379222031988        6.37182055620739       -5.19444168357025
H            4.61079258224396        4.24259356613231       -4.02595318101215
H            3.59121100742453        5.41589169619592       -0.94130767940004
H            5.71488033847169        6.35252079600524       -0.11427780250130
H            7.74440254282998        4.95258064154918       -0.05320483956181
H            7.65097390434911        2.60997070344108       -0.81951476307841
H            5.53453157466575        1.67236791885001       -1.66611523637525

          :  Hamiltonian                  GFN2-xTB          :
         :: total energy             -60.202822809896 Eh    ::
         :: gradient norm              0.000603089270 Eh/a0 ::
         :: HOMO-LUMO gap              3.129417457234 eV    ::
         :: SCC energy               -61.206697989931 Eh    ::
         :: -> dispersion             -0.044073689112 Eh    ::
         :: repulsion energy           1.003875180035 Eh    ::

    * Orbital Energies and Occupations

         #    Occupation            Energy/Eh            Energy/eV
      -------------------------------------------------------------
         1        2.0000           -0.8769350             -23.8626
       ...           ...                  ...                  ...
        43        2.0000           -0.5925106             -16.1230
        44        2.0000           -0.5877755             -15.9942
        45        2.0000           -0.5857565             -15.9392
        46        2.0000           -0.5590834             -15.2134
        47        2.0000           -0.5572385             -15.1632
        48        2.0000           -0.5529275             -15.0459
        49        2.0000           -0.5515448             -15.0083
        50        2.0000           -0.5445282             -14.8174
        51        2.0000           -0.5400889             -14.6966
        52        2.0000           -0.5370900             -14.6150
        53        2.0000           -0.5355764             -14.5738
        54        2.0000           -0.5282834             -14.3753
        55        2.0000           -0.5195430             -14.1375 (HOMO)
        56                         -0.4045390             -11.0081 (LUMO)
        57                         -0.3693122             -10.0495
        58                         -0.3573610              -9.7243
        59                         -0.3569930              -9.7143
        60                         -0.3531391              -9.6094
        61                         -0.3358781              -9.1397
        62                         -0.3077478              -8.3742
        63                         -0.2285027              -6.2179
        64                         -0.2236923              -6.0870
        65                         -0.1761372              -4.7929
        66                         -0.1490178              -4.0550
       ...                                ...                  ...
       106                          0.5569493              15.1554
      -------------------------------------------------------------
                  HL-Gap            0.1150040 Eh            3.1294 eV

     #   Z          covCN         q      C6AA      α(0)
     1   6 C        3.754    -0.153    23.514     6.915
     2   6 C        2.744     0.287    22.130     7.703
     3   8 O        0.861    -0.354    20.774     6.111
     4   7 N        2.690    -0.168    24.632     7.371
     5   6 C        2.990     0.110    25.561     8.293
     6   6 C        3.031    -0.047    29.145     8.855
     7   7 N        2.864     0.031    20.698     6.757
     8   6 C        3.071     0.098    25.753     8.321
     9   7 N        2.863    -0.000    21.262     6.848
    10   6 C        3.690    -0.073    22.087     6.726
    11   6 C        2.973    -0.005    28.132     8.700
    12   6 C        2.922    -0.032    28.801     8.801
    13   6 C        2.918    -0.019    28.492     8.753
    14   6 C        2.920    -0.013    28.348     8.731
    15   6 C        2.918    -0.018    28.456     8.748
    16   6 C        2.923    -0.026    28.661     8.779
    17   6 C        2.919     0.049    26.890     8.504
    18   6 C        2.920    -0.035    28.862     8.810
    19   6 C        2.921    -0.018    28.458     8.748
    20   6 C        2.919    -0.017    28.435     8.744
    21   6 C        2.921    -0.018    28.462     8.749
    22   6 C        2.921    -0.036    28.896     8.815
    23   1 H        0.925     0.102     1.768     2.079
    24   1 H        0.925     0.077     2.013     2.219
    25   1 H        0.925     0.079     1.991     2.207
    26   1 H        0.860     0.218     1.020     1.582
    27   1 H        0.927     0.096     1.818     2.109
    28   1 H        0.924     0.090     1.874     2.141
    29   1 H        0.925     0.099     1.796     2.096
    30   1 H        0.924     0.090     1.881     2.145
    31   1 H        0.926     0.049     2.336     2.390
    32   1 H        0.926     0.066     2.133     2.284
    33   1 H        0.926     0.069     2.101     2.266
    34   1 H        0.926     0.065     2.140     2.287
    35   1 H        0.926     0.046     2.376     2.410
    36   1 H        0.926     0.050     2.322     2.383
    37   1 H        0.926     0.067     2.118     2.276
    38   1 H        0.926     0.070     2.082     2.256
    39   1 H        0.926     0.069     2.098     2.265
    40   1 H        0.926     0.055     2.259     2.350

Wiberg/Mayer (AO) data.
largest (>0.10) Wiberg bond orders for each atom

     #   Z sym  total        # sym  WBO       # sym  WBO       # sym  WBO
 ---------------------------------------------------------------------------
     1   6 C    3.987 --     2 C    1.006    23 H    0.975    24 H    0.960
                            25 H    0.957
     2   6 C    3.934 --     3 O    1.792     4 N    1.081     1 C    1.006
     3   8 O    2.083 --     2 C    1.792     4 N    0.142
     4   7 N    3.472 --     5 C    1.162     2 C    1.081    26 H    0.911
                             3 O    0.142
     5   6 C    3.949 --     6 C    1.479     4 N    1.162     9 N    1.150
     6   6 C    3.922 --     5 C    1.479     7 N    1.176    27 H    0.960
     7   7 N    3.689 --     8 C    1.318     6 C    1.176    17 C    0.981
     8   6 C    3.935 --     7 N    1.318     9 N    1.268    11 C    1.050
     9   7 N    3.642 --     8 C    1.268     5 C    1.150    10 C    0.991
    10   6 C    3.942 --     9 N    0.991    29 H    0.968    28 H    0.966
                            30 H    0.966
    11   6 C    3.975 --    12 C    1.374    16 C    1.372     8 C    1.050
                            14 C    0.103
    12   6 C    3.986 --    13 C    1.450    11 C    1.374    31 H    0.968
                            15 C    0.105
    13   6 C    3.988 --    12 C    1.450    14 C    1.434    32 H    0.967
                            16 C    0.107
    14   6 C    3.979 --    13 C    1.434    15 C    1.430    33 H    0.968
                            11 C    0.103
    15   6 C    3.988 --    16 C    1.455    14 C    1.430    34 H    0.967
                            12 C    0.105
    16   6 C    3.989 --    15 C    1.455    11 C    1.372    35 H    0.969
                            13 C    0.107
    17   6 C    3.937 --    22 C    1.393    18 C    1.391     7 N    0.981
                            20 C    0.104
    18   6 C    3.989 --    19 C    1.445    17 C    1.391    36 H    0.967
                            21 C    0.109
    19   6 C    3.988 --    18 C    1.445    20 C    1.436    37 H    0.967
                            22 C    0.109
    20   6 C    3.984 --    21 C    1.438    19 C    1.436    38 H    0.967
                            17 C    0.104
    21   6 C    3.988 --    22 C    1.443    20 C    1.438    39 H    0.967
                            18 C    0.109
    22   6 C    3.986 --    21 C    1.443    17 C    1.393    40 H    0.966
                            19 C    0.109
    23   1 H    0.989 --     1 C    0.975
    24   1 H    0.994 --     1 C    0.960
    25   1 H    0.994 --     1 C    0.957
    26   1 H    0.952 --     4 N    0.911
    27   1 H    0.990 --     6 C    0.960
    28   1 H    0.991 --    10 C    0.966
    29   1 H    0.990 --    10 C    0.968
    30   1 H    0.991 --    10 C    0.966
    31   1 H    0.998 --    12 C    0.968
    32   1 H    0.995 --    13 C    0.967
    33   1 H    0.995 --    14 C    0.968
    34   1 H    0.995 --    15 C    0.967
    35   1 H    0.998 --    16 C    0.969
    36   1 H    0.997 --    18 C    0.967
    37   1 H    0.995 --    19 C    0.967
    38   1 H    0.995 --    20 C    0.967
    39   1 H    0.994 --    21 C    0.967
    40   1 H    0.997 --    22 C    0.966
 ---------------------------------------------------------------------------

molecular dipole:
                 x           y           z       tot (Debye)
 q only:        5.766       6.958      -4.635
   full:        5.751       7.016      -4.681      25.949

           -------------------------------------------------
          | TOTAL ENERGY              -60.202822809896 Eh   |
          | GRADIENT NORM               0.000603089270 Eh/α |
          | HOMO-LUMO GAP               3.129417457234 eV   |
           -------------------------------------------------

 * finished run on 2024/12/20 at 07:16:33.803
