   * xtb version 6.7.1 (edcfbbe) compiled by 'conda@3ef47c1a292c' on 2024-11-25

   ID    Z sym.   atoms
    1    6 C      1-8, 10-12, 14-16, 18-24
    2    7 N      9, 17
    3   17 Cl     13, 27
    4    8 O      25, 26
    5    1 H      28-58

          program call               : xtb C1250.xyz --opt --namespace C1250 --charge +1
          :  Hamiltonian                  GFN2-xTB          :
 * total energy  :   -83.5517726 Eh     change       -0.6169941E-08 Eh
 * total energy  :   -83.5608825 Eh     change       -0.9109896E-02 Eh
 * total energy  :   -83.5634000 Eh     change       -0.2517566E-02 Eh
 * total energy  :   -83.5641624 Eh     change       -0.7623783E-03 Eh
 * total energy  :   -83.5648413 Eh     change       -0.6789286E-03 Eh
 * total energy  :   -83.5652124 Eh     change       -0.3710789E-03 Eh
 * total energy  :   -83.5655367 Eh     change       -0.3243228E-03 Eh
 * total energy  :   -83.5658886 Eh     change       -0.3518604E-03 Eh
 * total energy  :   -83.5662559 Eh     change       -0.3672994E-03 Eh
 * total energy  :   -83.5666346 Eh     change       -0.3787220E-03 Eh
 * total energy  :   -83.5726540 Eh     change       -0.1632658E-04 Eh
 * total energy  :   -83.5726569 Eh     change       -0.2914553E-05 Eh
 * total energy  :   -83.5726703 Eh     change       -0.1343210E-04 Eh
 * total energy  :   -83.5726753 Eh     change       -0.4953554E-05 Eh
 * total energy  :   -83.5726828 Eh     change       -0.7545482E-05 Eh
 * total energy  :   -83.5726920 Eh     change       -0.9202498E-05 Eh
 * total energy  :   -83.5726988 Eh     change       -0.6801532E-05 Eh
 * total energy  :   -83.5727047 Eh     change       -0.5888239E-05 Eh
 * total energy  :   -83.5727068 Eh     change       -0.2142480E-05 Eh
   *** GEOMETRY OPTIMIZATION CONVERGED AFTER 94 ITERATIONS ***

 final structure:
================
58
 xtb: 6.7.1 (edcfbbe)
C            2.09428437367566       -0.48454813922394        1.61987444298476
C            1.76099156350071        0.68464786830093        2.53884116141756
C            1.91022727049185        2.04721289795022        1.85995942579299
C            1.00804275439368        2.26534699448699        0.64327105006804
C           -0.49143983074500        2.09904999991790        0.90373800247140
C           -1.06484142219207        3.03023440516248        1.97444899767507
C           -1.05874335402624        4.51075093215941        1.58937965511171
C           -2.10512735003536        4.88233553304588        0.53072920685593
N           -3.45102747072136        4.85607171578619        1.06401805892276
C           -4.31166149119474        3.77974460250772        1.02791692259060
C           -4.19849649599788        2.51427427879747        0.46671268222014
C           -5.27257421769760        1.65408102292422        0.60524899516183
Cl          -5.18029122783964        0.08075318601241       -0.06625459236395
C           -6.44341906467517        2.04953062851945        1.29147378482883
C           -6.55736011315637        3.31181405336888        1.84507451303779
C           -5.48008375122740        4.17689501607239        1.70223019879730
N           -5.27645799378602        5.47588320942311        2.11969443744084
C           -4.05521558021717        5.85629151043931        1.72006010293781
C           -3.45534532809487        7.18957558231302        1.93020522875702
C           -6.25591481901743        6.29341238606050        2.80616574928755
C           -6.99883894380122        7.22046816661054        1.83988841910920
C           -7.97384238374311        6.49541254789577        0.90944792789139
C           -9.25910576454330        6.04177093192487        1.60150003510238
C          -10.13593225388905        7.20345069481745        2.02612485726692
O           -9.77461395485912        8.34251611787982        2.14529693352970
O          -11.37706491331012        6.79686078290809        2.27802605625725
Cl          -7.74826515965946        0.94864242398814        1.43673871934552
H            1.37010616665421       -0.57496066950720        0.81409756052808
H            2.08982481849001       -1.41533917259900        2.18146223878286
H            3.08167845729566       -0.35505017048628        1.18317008388601
H            0.74720377219091        0.56698449895086        2.92722997206022
H            2.43848084840434        0.66175411362313        3.39508618630260
H            1.72786157031694        2.83113760312721        2.59876211962520
H            2.94493391812468        2.15659259362140        1.52821296775074
H            1.20438912641262        3.26405733303099        0.24566576652019
H            1.29069138818551        1.55643472143612       -0.13590674456630
H           -1.01228670844869        2.25008280930111       -0.04560238418190
H           -0.68404496385613        1.07152474489177        1.21329232016513
H           -2.08503437890801        2.71919607215049        2.21380299858067
H           -0.47611347243041        2.91419258451050        2.88391011372756
H           -1.22811882483487        5.11088785588676        2.48574326382344
H           -0.07786750760581        4.77694239264884        1.19747296050411
H           -1.90748401734055        5.88427897868867        0.14478469573969
H           -2.06180852494054        4.18025308503478       -0.30172631922937
H           -3.31489853739567        2.18868209485909       -0.05470110523586
H           -7.46184106717743        3.58951427272875        2.35798230207568
H           -3.44126605304342        7.74742754407046        0.99222443217208
H           -4.02075174346693        7.76708228703583        2.65471482758913
H           -2.42757073671657        7.10270583129088        2.27657005324305
H           -6.95098099160240        5.62120850686585        3.30803478952208
H           -5.74806123418214        6.88255927680350        3.57256268709392
H           -7.55707018288100        7.95601360968168        2.41755368163061
H           -6.26864814040478        7.76156686132938        1.23650330332357
H           -8.24923695660678        7.18600828520811        0.11166183343926
H           -7.48887765695101        5.63197700801359        0.44824855499513
H           -9.84852275748991        5.41193534976820        0.93451939046676
H           -9.05459081341246        5.45708786668873        2.50102290884751
H          -11.94275787398027        7.53524248140640        2.55700356829302

          :  Hamiltonian                  GFN2-xTB          :
         :: total energy             -83.572706834047 Eh    ::
         :: gradient norm              0.000494047756 Eh/a0 ::
         :: HOMO-LUMO gap              2.191215233311 eV    ::
         :: SCC energy               -84.638889634481 Eh    ::
         :: -> dispersion             -0.060862057567 Eh    ::
         :: repulsion energy           1.066182800434 Eh    ::

    * Orbital Energies and Occupations

         #    Occupation            Energy/Eh            Energy/eV
      -------------------------------------------------------------
         1        2.0000           -1.1653993             -31.7121
       ...           ...                  ...                  ...
        63        2.0000           -0.5494362             -14.9509
        64        2.0000           -0.5448638             -14.8265
        65        2.0000           -0.5345768             -14.5466
        66        2.0000           -0.5306024             -14.4384
        67        2.0000           -0.5298620             -14.4183
        68        2.0000           -0.5282057             -14.3732
        69        2.0000           -0.5234531             -14.2439
        70        2.0000           -0.5186859             -14.1142
        71        2.0000           -0.5141334             -13.9903
        72        2.0000           -0.5093653             -13.8605
        73        2.0000           -0.4981077             -13.5542
        74        2.0000           -0.4948041             -13.4643
        75        2.0000           -0.4910806             -13.3630 (HOMO)
        76                         -0.4105549             -11.1718 (LUMO)
        77                         -0.3701290             -10.0717
        78                         -0.3589238              -9.7668
        79                         -0.3216021              -8.7512
        80                         -0.2578826              -7.0173
        81                         -0.2513241              -6.8389
        82                         -0.2436637              -6.6304
        83                         -0.1785826              -4.8595
        84                         -0.1319912              -3.5917
        85                         -0.1037947              -2.8244
        86                         -0.1000361              -2.7221
       ...                                ...                  ...
       149                          0.5628436              15.3158
      -------------------------------------------------------------
                  HL-Gap            0.0805257 Eh            2.1912 eV

     #   Z          covCN         q      C6AA      α(0)
     1   6 C        3.751    -0.105    22.563     6.774
     2   6 C        3.799    -0.054    21.547     6.609
     3   6 C        3.800    -0.061    21.668     6.627
     4   6 C        3.800    -0.061    21.680     6.629
     5   6 C        3.800    -0.061    21.670     6.628
     6   6 C        3.800    -0.066    21.773     6.644
     7   6 C        3.801    -0.069    21.814     6.650
     8   6 C        3.740    -0.023    21.065     6.549
     9   7 N        2.828     0.018    20.926     6.794
    10   6 C        3.097     0.037    27.054     8.524
    11   6 C        2.953    -0.050    29.248     8.870
    12   6 C        2.921     0.093    25.928     8.350
    13  17 Cl       1.004    -0.078   101.584    15.420
    14   6 C        2.921     0.093    25.933     8.351
    15   6 C        2.953    -0.051    29.277     8.875
    16   6 C        3.100     0.035    27.091     8.529
    17   7 N        2.826     0.019    20.916     6.793
    18   6 C        3.084     0.119    25.290     8.244
    19   6 C        3.755    -0.137    23.194     6.867
    20   6 C        3.740    -0.022    21.053     6.547
    21   6 C        3.802    -0.080    22.017     6.681
    22   6 C        3.802    -0.063    21.708     6.633
    23   6 C        3.803    -0.097    22.342     6.729
    24   6 C        2.688     0.362    20.854     7.474
    25   8 O        0.856    -0.406    21.800     6.260
    26   8 O        1.660    -0.367    20.213     6.069
    27  17 Cl       1.004    -0.079   101.616    15.422
    28   1 H        0.925     0.033     2.544     2.494
    29   1 H        0.925     0.038     2.476     2.461
    30   1 H        0.925     0.039     2.456     2.451
    31   1 H        0.924     0.027     2.625     2.534
    32   1 H        0.924     0.034     2.524     2.484
    33   1 H        0.924     0.026     2.647     2.544
    34   1 H        0.924     0.040     2.454     2.450
    35   1 H        0.924     0.026     2.641     2.541
    36   1 H        0.924     0.045     2.377     2.411
    37   1 H        0.924     0.020     2.734     2.586
    38   1 H        0.924     0.048     2.345     2.395
    39   1 H        0.924     0.026     2.639     2.540
    40   1 H        0.925     0.059     2.207     2.323
    41   1 H        0.924     0.041     2.436     2.441
    42   1 H        0.925     0.073     2.050     2.239
    43   1 H        0.924     0.076     2.025     2.225
    44   1 H        0.925     0.089     1.890     2.150
    45   1 H        0.926     0.102     1.763     2.077
    46   1 H        0.926     0.097     1.814     2.106
    47   1 H        0.924     0.103     1.758     2.074
    48   1 H        0.925     0.097     1.815     2.107
    49   1 H        0.925     0.100     1.782     2.088
    50   1 H        0.925     0.086     1.921     2.167
    51   1 H        0.924     0.078     2.002     2.213
    52   1 H        0.925     0.099     1.798     2.097
    53   1 H        0.924     0.053     2.282     2.362
    54   1 H        0.924     0.068     2.109     2.271
    55   1 H        0.924     0.038     2.472     2.459
    56   1 H        0.924     0.082     1.963     2.191
    57   1 H        0.924     0.066     2.129     2.282
    58   1 H        0.804     0.342     0.608     1.225

Wiberg/Mayer (AO) data.
largest (>0.10) Wiberg bond orders for each atom

     #   Z sym  total        # sym  WBO       # sym  WBO       # sym  WBO
 ---------------------------------------------------------------------------
     1   6 C    3.996 --     2 C    1.020    30 H    0.987    29 H    0.987
                            28 H    0.986
     2   6 C    3.998 --     1 C    1.020     3 C    1.008    32 H    0.978
                            31 H    0.976
     3   6 C    3.997 --     2 C    1.008     4 C    1.008    34 H    0.976
                            33 H    0.975
     4   6 C    3.996 --     3 C    1.008     5 C    1.007    35 H    0.974
                            36 H    0.974
     5   6 C    3.996 --     6 C    1.008     4 C    1.007    38 H    0.973
                            37 H    0.971
     6   6 C    3.993 --     5 C    1.008     7 C    1.007    39 H    0.974
                            40 H    0.969
     7   6 C    3.985 --     6 C    1.007     8 C    0.985    41 H    0.974
                            42 H    0.964
     8   6 C    3.938 --     7 C    0.985     9 N    0.967    43 H    0.964
                            44 H    0.960
     9   7 N    3.664 --    18 C    1.325    10 C    1.135     8 C    0.967
    10   6 C    3.961 --    11 C    1.336    16 C    1.266     9 N    1.135
    11   6 C    3.978 --    12 C    1.444    10 C    1.336    45 H    0.951
                            15 C    0.103
    12   6 C    3.936 --    11 C    1.444    14 C    1.284    13 Cl   1.042
    13  17 Cl   1.207 --    12 C    1.042
    14   6 C    3.936 --    15 C    1.444    12 C    1.284    27 Cl   1.041
    15   6 C    3.978 --    14 C    1.444    16 C    1.336    46 H    0.954
                            11 C    0.103
    16   6 C    3.960 --    15 C    1.336    10 C    1.266    17 N    1.133
    17   7 N    3.663 --    18 C    1.325    16 C    1.133    20 C    0.966
    18   6 C    3.943 --    17 N    1.325     9 N    1.325    19 C    1.048
    19   6 C    3.976 --    18 C    1.048    48 H    0.967    49 H    0.955
                            47 H    0.941
    20   6 C    3.940 --    21 C    0.988    17 N    0.966    50 H    0.960
                            51 H    0.960
    21   6 C    3.982 --    22 C    1.009    20 C    0.988    53 H    0.974
                            52 H    0.959
    22   6 C    3.994 --    23 C    1.009    21 C    1.009    55 H    0.975
                            54 H    0.973
    23   6 C    3.994 --    22 C    1.009    24 C    0.969    56 H    0.961
                            57 H    0.947
    24   6 C    3.916 --    25 O    1.762    26 O    1.154    23 C    0.969
    25   8 O    2.046 --    24 C    1.762    26 O    0.178
    26   8 O    2.217 --    24 C    1.154    58 H    0.858    25 O    0.178
    27  17 Cl   1.206 --    14 C    1.041
    28   1 H    0.999 --     1 C    0.986
    29   1 H    0.999 --     1 C    0.987
    30   1 H    0.998 --     1 C    0.987
    31   1 H    0.999 --     2 C    0.976
    32   1 H    0.999 --     2 C    0.978
    33   1 H    0.999 --     3 C    0.975
    34   1 H    0.998 --     3 C    0.976
    35   1 H    0.999 --     4 C    0.974
    36   1 H    0.998 --     4 C    0.974
    37   1 H    1.000 --     5 C    0.971
    38   1 H    0.998 --     5 C    0.973
    39   1 H    0.999 --     6 C    0.974
    40   1 H    0.996 --     6 C    0.969
    41   1 H    0.998 --     7 C    0.974
    42   1 H    0.993 --     7 C    0.964
    43   1 H    0.993 --     8 C    0.964
    44   1 H    0.992 --     8 C    0.960
    45   1 H    0.989 --    11 C    0.951
    46   1 H    0.990 --    15 C    0.954
    47   1 H    0.984 --    19 C    0.941
    48   1 H    0.990 --    19 C    0.967
    49   1 H    0.988 --    19 C    0.955
    50   1 H    0.992 --    20 C    0.960
    51   1 H    0.993 --    20 C    0.960
    52   1 H    0.989 --    21 C    0.959
    53   1 H    0.997 --    21 C    0.974
    54   1 H    0.995 --    22 C    0.973
    55   1 H    0.999 --    22 C    0.975
    56   1 H    0.993 --    23 C    0.961
    57   1 H    0.996 --    23 C    0.947
    58   1 H    0.883 --    26 O    0.858
 ---------------------------------------------------------------------------

molecular dipole:
                 x           y           z       tot (Debye)
 q only:       -7.903      10.002       3.110
   full:       -8.335       9.438       3.034      32.922

           -------------------------------------------------
          | TOTAL ENERGY              -83.572706834047 Eh   |
          | GRADIENT NORM               0.000494047756 Eh/α |
          | HOMO-LUMO GAP               2.191215233311 eV   |
           -------------------------------------------------

 * finished run on 2024/12/20 at 07:16:22.312
