   * xtb version 6.7.1 (edcfbbe) compiled by 'conda@3ef47c1a292c' on 2024-11-25

   ID    Z sym.   atoms
    1    6 C      1-20, 22-40
    2    7 N      21
    3    1 H      41-114

          program call               : xtb C1253.xyz --opt --namespace C1253 --charge +1
          :  Hamiltonian                  GFN2-xTB          :
 * total energy  :  -123.8456781 Eh     change       -0.9656844E-09 Eh
 * total energy  :  -123.8512010 Eh     change       -0.5522838E-02 Eh
 * total energy  :  -123.8521134 Eh     change       -0.9124594E-03 Eh
 * total energy  :  -123.8522481 Eh     change       -0.1347016E-03 Eh
 * total energy  :  -123.8523703 Eh     change       -0.1222075E-03 Eh
 * total energy  :  -123.8524556 Eh     change       -0.8528020E-04 Eh
 * total energy  :  -123.8525549 Eh     change       -0.9926558E-04 Eh
 * total energy  :  -123.8526386 Eh     change       -0.8367589E-04 Eh
 * total energy  :  -123.8527098 Eh     change       -0.7128490E-04 Eh
 * total energy  :  -123.8527466 Eh     change       -0.3673981E-04 Eh
 * total energy  :  -123.8538454 Eh     change       -0.1560024E-04 Eh
 * total energy  :  -123.8538601 Eh     change       -0.1469570E-04 Eh
 * total energy  :  -123.8538772 Eh     change       -0.1711945E-04 Eh
 * total energy  :  -123.8538961 Eh     change       -0.1886484E-04 Eh
 * total energy  :  -123.8539133 Eh     change       -0.1728189E-04 Eh
 * total energy  :  -123.8539257 Eh     change       -0.1233356E-04 Eh
 * total energy  :  -123.8539322 Eh     change       -0.6565846E-05 Eh
 * total energy  :  -123.8539399 Eh     change       -0.7672983E-05 Eh
 * total energy  :  -123.8539441 Eh     change       -0.4165276E-05 Eh
   *** GEOMETRY OPTIMIZATION CONVERGED AFTER 44 ITERATIONS ***

 final structure:
================
114
 xtb: 6.7.1 (edcfbbe)
C            1.16798871113981       -0.49391850028137       -0.65727345853338
C            1.41618030802231       -0.83236614346436        0.80778329404966
C            1.49225400304590        0.40221578511790        1.70696847751615
C            0.20965456093032        1.23410164360067        1.77008574801605
C           -1.02360602380095        0.48314240706720        2.27529956668852
C           -0.88419195389672       -0.12066968713500        3.67412569670149
C           -0.56465076239532        0.88500753533760        4.78186191014476
C           -1.58325676317093        2.01521955409987        4.94005828122765
C           -3.01131848130840        1.55753811356999        5.24142427056196
C           -3.17146376866165        0.75372262024710        6.53336034703238
C           -2.73574734130066        1.48377318264637        7.80578199687997
C           -3.43232316356273        2.82390283027159        8.04963745676448
C           -4.95772959872703        2.74916193792469        8.12930177802018
C           -5.50170645448560        1.88524071763716        9.26888797880304
C           -5.09035252914074        2.33487583586546       10.67420675726508
C           -5.41825549648679        3.78968753011633       11.01087030498073
C           -6.92738370034282        4.11180970337913       10.98084602014043
C           -7.58855492107888        3.42316475647009       12.12133716083605
C           -7.41215973464156        3.84816423129186       13.44561622901058
C           -8.01328656397127        3.17507953133528       14.47797824735314
N           -8.78247589520323        2.09576892056548       14.25840212142385
C           -8.97113926006923        1.65874691850043       13.00588314314254
C           -8.39638918234471        2.29597903337850       11.93276256753848
C           -9.37560320026496        1.40600360358822       15.38178190650273
C           -7.17400646555670        5.63287656428993       11.02726826290541
C           -6.89923806535747        6.33532528870366        9.69504250055837
C           -7.76461481716491        5.88179805052501        8.51749950777242
C           -9.27260280387557        6.03652555360257        8.72018112654083
C           -9.74339947816786        7.47210043959768        8.96366906932953
C           -9.36117522368644        8.46906386830581        7.86713006786580
C           -9.81597404300742        8.08619327851857        6.45766748318424
C          -11.32746966021018        7.92633687893769        6.28756940062433
C          -12.14341356841717        9.19340610397144        6.55057412131865
C          -11.77613493696029       10.39178496580529        5.67250299891505
C          -11.84455502832547       10.13498351714373        4.16577933316551
C          -13.21015850508157        9.67944935954303        3.64871943672460
C          -14.35174140430512       10.67087081836607        3.87969415521668
C          -14.15418531141943       12.04576895437286        3.23769680877657
C          -13.95066332395865       12.02796550442319        1.72190064466947
C          -15.13462077365402       11.44188111308293        0.96211035522294
H            0.18196555664299       -0.05830013615115       -0.79772898635513
H            1.23017263387908       -1.39200719650163       -1.26773200038035
H            1.91193433534053        0.21484221864209       -1.01488563662974
H            0.63317593041948       -1.50391380840935        1.16414777618039
H            2.36454934951062       -1.36936555183366        0.88904779364838
H            1.76609656025436        0.08425916870313        2.71520723362043
H            2.29565789290049        1.04778496154842        1.34243887911716
H            0.39444728347293        2.09727853156253        2.41335229336191
H           -0.01237685205358        1.62267071803829        0.77419818647283
H           -1.87137501971370        1.17200390152377        2.26260082941970
H           -1.26150894321907       -0.32380876136948        1.57939925621195
H           -1.81360996653207       -0.64146070413780        3.91624889113982
H           -0.09371966101501       -0.87365650791436        3.66106814489709
H           -0.48008623009271        0.33983720367136        5.72483107064161
H            0.41128277325116        1.33363783652068        4.58670841150814
H           -1.23896973912732        2.67737327668967        5.73779156525966
H           -1.60388113411704        2.60778373409285        4.02344061386724
H           -3.65277957727719        2.44098341528758        5.28226824570411
H           -3.37156293997482        0.94360244020890        4.41394142461028
H           -4.21945652021069        0.45776995701703        6.62537443991195
H           -2.58980294017698       -0.16649428903858        6.45622079010483
H           -2.90899775401567        0.82186158253958        8.65800207205763
H           -1.66081146398049        1.66672644629299        7.76136009884256
H           -3.03707628054373        3.25412947061187        8.97290908913386
H           -3.17135441414673        3.51094251910781        7.24315416619986
H           -5.34876177350083        3.76485886418221        8.22008586747441
H           -5.34231403218714        2.34748059810201        7.19076823200376
H           -6.59219359225582        1.86162969633884        9.19128443804939
H           -5.15740791670994        0.85925559589667        9.13286717242459
H           -5.56454052164877        1.67186724408149       11.40505903923366
H           -4.01223451156830        2.20666707520268       10.77887030857084
H           -5.02138372257882        4.02336869389137       12.00154382770075
H           -4.91886500135494        4.44096424700194       10.29657436555246
H           -7.34439923991834        3.72460830787631       10.05099523548831
H           -6.80393576817996        4.71032070282860       13.66509064194262
H           -7.89005076538141        3.48597191490564       15.50472021978574
H           -9.59289608948434        0.78571050271618       12.87496055876267
H           -8.57546755934764        1.91528901976302       10.93962931462862
H          -10.16034521129292        0.73342327762248       15.04306629909271
H           -8.61712445093867        0.82166058679369       15.90659893227451
H           -9.80274471348839        2.12337658950128       16.08172473720881
H           -8.21117851952215        5.81492749433601       11.31453855610227
H           -6.53363343337836        6.08423611525091       11.78734508170757
H           -7.05204318286072        7.40366893158099        9.85305614061246
H           -5.85055694782187        6.20258540445595        9.42174534739810
H           -7.46418932918370        6.46320792991578        7.64543217251398
H           -7.55377419564741        4.83629175974349        8.27924917651360
H           -9.77214312171955        5.64709984837547        7.83172153005384
H           -9.59743676764843        5.41748190546167        9.56180989420662
H          -10.82985188118340        7.45699271767779        9.06922420684717
H           -9.33756729703819        7.83386306194547        9.91181272206663
H           -9.78799181284254        9.43851814333778        8.12964718459215
H           -8.27597591285725        8.59430967796451        7.85424751700447
H           -9.45900789051012        8.85287399444048        5.76827149625962
H           -9.33692792635059        7.14943448787075        6.16378887506746
H          -11.51875629551068        7.58560687641982        5.26836804806057
H          -11.68764360302232        7.14140216751706        6.95700547570496
H          -13.19821284242593        8.95254034033364        6.40329894264872
H          -12.02857067830252        9.48813824384365        7.59644895986962
H          -12.44618744570650       11.21538780370552        5.92677321134626
H          -10.76337681211433       10.72082837165951        5.91682865615598
H          -11.55608345676942       11.05385667372087        3.65173789587735
H          -11.10650243542600        9.37616930023544        3.89591735311420
H          -13.11945558194596        9.48208926135235        2.57873463940913
H          -13.47868907186516        8.73321504169632        4.12396971656350
H          -15.27136641861071       10.22689560139922        3.49316886252244
H          -14.49450840016910       10.81310268027926        4.95325657330903
H          -15.03551804021878       12.65213544965100        3.46270491205982
H          -13.29649255086698       12.54002696250200        3.69894348806461
H          -13.79423989320915       13.05739389028158        1.38991678093316
H          -13.04685431999028       11.46825071187943        1.47477394252621
H          -16.05411123804113       11.95467760848100        1.23623874566220
H          -14.98709859399684       11.55407536849447       -0.10970669498612
H          -15.25353149232082       10.38288051127816        1.17700367777832

          :  Hamiltonian                  GFN2-xTB          :
         :: total energy            -123.853944081071 Eh    ::
         :: gradient norm              0.000303447021 Eh/a0 ::
         :: HOMO-LUMO gap              0.261019580259 eV    ::
         :: SCC energy              -125.739784361621 Eh    ::
         :: -> dispersion             -0.104211588241 Eh    ::
         :: repulsion energy           1.885840280550 Eh    ::

    * Orbital Energies and Occupations

         #    Occupation            Energy/Eh            Energy/eV
      -------------------------------------------------------------
         1        2.0000           -0.8644533             -23.5230
       ...           ...                  ...                  ...
       105        2.0000           -0.4747602             -12.9189
       106        2.0000           -0.4659742             -12.6798
       107        2.0000           -0.4657537             -12.6738
       108        2.0000           -0.4649842             -12.6529
       109        2.0000           -0.4647942             -12.6477
       110        2.0000           -0.4629779             -12.5983
       111        2.0000           -0.4627335             -12.5916
       112        2.0000           -0.4548519             -12.3772
       113        2.0000           -0.4547836             -12.3753
       114        1.9976           -0.4488509             -12.2139
       115        1.9975           -0.4488022             -12.2125
       116        1.9935           -0.4478784             -12.1874
       117        1.9917           -0.4476522             -12.1812 (HOMO)
       118        0.0196           -0.4380599             -11.9202 (LUMO)
       119                         -0.4087528             -11.1227
       120                         -0.2909885              -7.9182
       121                         -0.1568735              -4.2687
       122                         -0.0721523              -1.9634
       123                         -0.0564002              -1.5347
       124                         -0.0389563              -1.0601
       125                         -0.0387669              -1.0549
       126                         -0.0215750              -0.5871
       127                         -0.0100772              -0.2742
       128                         -0.0048766              -0.1327
       ...                                ...                  ...
       234                          0.4543182              12.3626
      -------------------------------------------------------------
                  HL-Gap            0.0095923 Eh            0.2610 eV

     #   Z          covCN         q      C6AA      α(0)
     1   6 C        3.751    -0.102    22.501     6.765
     2   6 C        3.799    -0.052    21.507     6.603
     3   6 C        3.801    -0.057    21.598     6.617
     4   6 C        3.800    -0.057    21.593     6.616
     5   6 C        3.800    -0.056    21.582     6.615
     6   6 C        3.800    -0.056    21.586     6.615
     7   6 C        3.800    -0.056    21.588     6.615
     8   6 C        3.800    -0.057    21.593     6.616
     9   6 C        3.800    -0.057    21.597     6.617
    10   6 C        3.800    -0.057    21.596     6.617
    11   6 C        3.800    -0.057    21.606     6.618
    12   6 C        3.800    -0.059    21.631     6.622
    13   6 C        3.800    -0.060    21.650     6.625
    14   6 C        3.800    -0.058    21.614     6.619
    15   6 C        3.800    -0.060    21.654     6.625
    16   6 C        3.807    -0.061    21.669     6.627
    17   6 C        3.857    -0.029    21.060     6.527
    18   6 C        2.978     0.064    26.564     8.454
    19   6 C        2.920    -0.024    28.597     8.769
    20   6 C        2.890     0.024    27.463     8.592
    21   7 N        2.748     0.099    19.529     6.563
    22   6 C        2.887     0.026    27.412     8.584
    23   6 C        2.921    -0.025    28.639     8.776
    24   6 C        3.708    -0.090    22.371     6.760
    25   6 C        3.803    -0.060    21.651     6.624
    26   6 C        3.800    -0.060    21.651     6.625
    27   6 C        3.800    -0.061    21.669     6.628
    28   6 C        3.800    -0.057    21.597     6.617
    29   6 C        3.800    -0.057    21.600     6.617
    30   6 C        3.800    -0.058    21.614     6.619
    31   6 C        3.800    -0.058    21.613     6.619
    32   6 C        3.800    -0.056    21.587     6.615
    33   6 C        3.800    -0.056    21.580     6.614
    34   6 C        3.800    -0.056    21.588     6.615
    35   6 C        3.800    -0.057    21.592     6.616
    36   6 C        3.800    -0.056    21.582     6.614
    37   6 C        3.800    -0.056    21.589     6.616
    38   6 C        3.800    -0.057    21.597     6.617
    39   6 C        3.799    -0.052    21.507     6.603
    40   6 C        3.751    -0.101    22.499     6.764
    41   1 H        0.925     0.034     2.526     2.486
    42   1 H        0.925     0.032     2.561     2.502
    43   1 H        0.925     0.034     2.529     2.487
    44   1 H        0.924     0.031     2.573     2.509
    45   1 H        0.924     0.027     2.623     2.533
    46   1 H        0.924     0.029     2.603     2.523
    47   1 H        0.924     0.029     2.600     2.522
    48   1 H        0.924     0.028     2.612     2.528
    49   1 H        0.924     0.032     2.556     2.500
    50   1 H        0.924     0.027     2.629     2.535
    51   1 H        0.924     0.032     2.564     2.504
    52   1 H        0.924     0.026     2.641     2.542
    53   1 H        0.924     0.032     2.557     2.501
    54   1 H        0.924     0.026     2.642     2.542
    55   1 H        0.924     0.032     2.555     2.500
    56   1 H        0.924     0.026     2.642     2.542
    57   1 H        0.924     0.033     2.548     2.496
    58   1 H        0.924     0.025     2.655     2.548
    59   1 H        0.924     0.034     2.537     2.491
    60   1 H        0.924     0.023     2.683     2.561
    61   1 H        0.924     0.035     2.522     2.483
    62   1 H        0.924     0.023     2.685     2.562
    63   1 H        0.924     0.036     2.500     2.473
    64   1 H        0.924     0.025     2.664     2.553
    65   1 H        0.924     0.039     2.466     2.456
    66   1 H        0.924     0.028     2.620     2.531
    67   1 H        0.924     0.041     2.431     2.438
    68   1 H        0.924     0.016     2.787     2.611
    69   1 H        0.924     0.043     2.403     2.424
    70   1 H        0.924     0.013     2.841     2.636
    71   1 H        0.924     0.052     2.290     2.367
    72   1 H        0.924     0.035     2.520     2.483
    73   1 H        0.925     0.072     2.066     2.248
    74   1 H        0.925     0.075     2.032     2.229
    75   1 H        0.926     0.099     1.798     2.097
    76   1 H        0.926     0.100     1.788     2.091
    77   1 H        0.926     0.099     1.791     2.093
    78   1 H        0.926     0.096     1.819     2.109
    79   1 H        0.925     0.101     1.773     2.082
    80   1 H        0.924     0.106     1.731     2.058
    81   1 H        0.925     0.104     1.750     2.069
    82   1 H        0.924     0.040     2.444     2.445
    83   1 H        0.924     0.039     2.456     2.451
    84   1 H        0.924     0.052     2.294     2.369
    85   1 H        0.924     0.037     2.492     2.469
    86   1 H        0.924     0.048     2.343     2.394
    87   1 H        0.924     0.025     2.652     2.547
    88   1 H        0.924     0.039     2.457     2.451
    89   1 H        0.924     0.014     2.827     2.629
    90   1 H        0.924     0.034     2.534     2.489
    91   1 H        0.924     0.023     2.691     2.565
    92   1 H        0.924     0.036     2.501     2.473
    93   1 H        0.924     0.027     2.634     2.538
    94   1 H        0.924     0.036     2.497     2.471
    95   1 H        0.924     0.026     2.651     2.546
    96   1 H        0.924     0.033     2.540     2.492
    97   1 H        0.924     0.023     2.682     2.561
    98   1 H        0.924     0.031     2.570     2.507
    99   1 H        0.924     0.025     2.660     2.550
   100   1 H        0.924     0.032     2.559     2.502
   101   1 H        0.924     0.027     2.636     2.539
   102   1 H        0.924     0.033     2.549     2.497
   103   1 H        0.924     0.027     2.632     2.537
   104   1 H        0.924     0.032     2.561     2.503
   105   1 H        0.924     0.027     2.635     2.539
   106   1 H        0.924     0.032     2.565     2.504
   107   1 H        0.924     0.028     2.619     2.531
   108   1 H        0.924     0.029     2.603     2.523
   109   1 H        0.924     0.029     2.605     2.524
   110   1 H        0.924     0.028     2.621     2.532
   111   1 H        0.924     0.031     2.576     2.510
   112   1 H        0.925     0.034     2.530     2.488
   113   1 H        0.925     0.032     2.562     2.503
   114   1 H        0.925     0.034     2.531     2.488

Wiberg/Mayer (AO) data.
largest (>0.10) Wiberg bond orders for each atom

     #   Z sym  total        # sym  WBO       # sym  WBO       # sym  WBO
 ---------------------------------------------------------------------------
     1   6 C    3.996 --     2 C    1.020    42 H    0.987    43 H    0.987
                            41 H    0.986
     2   6 C    3.996 --     1 C    1.020     3 C    1.008    45 H    0.978
                            44 H    0.975
     3   6 C    3.995 --     2 C    1.008     4 C    1.007    47 H    0.977
                            46 H    0.975
     4   6 C    3.995 --     5 C    1.008     3 C    1.007    48 H    0.975
                            49 H    0.975
     5   6 C    3.996 --     4 C    1.008     6 C    1.007    50 H    0.974
                            51 H    0.974
     6   6 C    3.996 --     7 C    1.008     5 C    1.007    52 H    0.975
                            53 H    0.974
     7   6 C    3.997 --     6 C    1.008     8 C    1.008    54 H    0.975
                            55 H    0.975
     8   6 C    3.997 --     9 C    1.008     7 C    1.008    56 H    0.975
                            57 H    0.974
     9   6 C    3.997 --     8 C    1.008    10 C    1.008    58 H    0.975
                            59 H    0.974
    10   6 C    3.997 --     9 C    1.008    11 C    1.007    60 H    0.975
                            61 H    0.974
    11   6 C    3.997 --    12 C    1.008    10 C    1.007    62 H    0.976
                            63 H    0.975
    12   6 C    3.997 --    13 C    1.008    11 C    1.008    64 H    0.975
                            65 H    0.974
    13   6 C    3.996 --    12 C    1.008    14 C    1.007    67 H    0.973
                            66 H    0.972
    14   6 C    3.996 --    13 C    1.007    15 C    1.006    68 H    0.974
                            69 H    0.973
    15   6 C    3.995 --    16 C    1.008    14 C    1.006    70 H    0.977
                            71 H    0.970
    16   6 C    3.986 --    15 C    1.008    72 H    0.975    73 H    0.960
                            17 C    0.946
    17   6 C    3.982 --    18 C    1.036    25 C    0.964    74 H    0.950
                            16 C    0.946
    18   6 C    3.950 --    23 C    1.359    19 C    1.345    17 C    1.036
    19   6 C    3.983 --    20 C    1.509    18 C    1.345    75 H    0.957
    20   6 C    3.950 --    19 C    1.509    21 N    1.292    76 H    0.957
    21   7 N    3.738 --    22 C    1.306    20 C    1.292    24 C    0.987
    22   6 C    3.950 --    23 C    1.492    21 N    1.306    77 H    0.956
    23   6 C    3.983 --    22 C    1.492    18 C    1.359    78 H    0.958
    24   6 C    3.935 --    21 N    0.987    79 H    0.974    81 H    0.967
                            80 H    0.958
    25   6 C    3.990 --    26 C    1.004    83 H    0.975    82 H    0.974
                            17 C    0.964
    26   6 C    3.991 --    27 C    1.008    25 C    1.004    85 H    0.972
                            84 H    0.968
    27   6 C    3.995 --    26 C    1.008    28 C    1.008    86 H    0.972
                            87 H    0.970
    28   6 C    3.997 --    27 C    1.008    29 C    1.007    89 H    0.976
                            88 H    0.974
    29   6 C    3.997 --    30 C    1.007    28 C    1.007    91 H    0.976
                            90 H    0.975
    30   6 C    3.997 --    31 C    1.008    29 C    1.007    93 H    0.975
                            92 H    0.974
    31   6 C    3.997 --    30 C    1.008    32 C    1.008    95 H    0.975
                            94 H    0.974
    32   6 C    3.997 --    31 C    1.008    33 C    1.008    97 H    0.975
                            96 H    0.974
    33   6 C    3.997 --    32 C    1.008    34 C    1.007    99 H    0.976
                            98 H    0.975
    34   6 C    3.997 --    35 C    1.008    33 C    1.007   101 H    0.975
                           100 H    0.975
    35   6 C    3.996 --    34 C    1.008    36 C    1.007   103 H    0.975
                           102 H    0.974
    36   6 C    3.996 --    37 C    1.008    35 C    1.007   104 H    0.974
                           105 H    0.974
    37   6 C    3.996 --    36 C    1.008    38 C    1.007   106 H    0.975
                           107 H    0.975
    38   6 C    3.996 --    39 C    1.008    37 C    1.007   108 H    0.977
                           109 H    0.975
    39   6 C    3.997 --    40 C    1.020    38 C    1.008   110 H    0.978
                           111 H    0.976
    40   6 C    3.996 --    39 C    1.020   112 H    0.987   113 H    0.987
                           114 H    0.986
    41   1 H    0.998 --     1 C    0.986
    42   1 H    0.999 --     1 C    0.987
    43   1 H    0.999 --     1 C    0.987
    44   1 H    0.998 --     2 C    0.975
    45   1 H    0.998 --     2 C    0.978
    46   1 H    0.998 --     3 C    0.975
    47   1 H    0.999 --     3 C    0.977
    48   1 H    0.999 --     4 C    0.975
    49   1 H    0.998 --     4 C    0.975
    50   1 H    0.998 --     5 C    0.974
    51   1 H    0.999 --     5 C    0.974
    52   1 H    0.999 --     6 C    0.975
    53   1 H    0.998 --     6 C    0.974
    54   1 H    0.999 --     7 C    0.975
    55   1 H    0.999 --     7 C    0.975
    56   1 H    0.999 --     8 C    0.975
    57   1 H    0.999 --     8 C    0.974
    58   1 H    0.999 --     9 C    0.975
    59   1 H    0.999 --     9 C    0.974
    60   1 H    0.999 --    10 C    0.975
    61   1 H    0.999 --    10 C    0.974
    62   1 H    0.999 --    11 C    0.976
    63   1 H    0.999 --    11 C    0.975
    64   1 H    0.999 --    12 C    0.975
    65   1 H    0.998 --    12 C    0.974
    66   1 H    0.999 --    13 C    0.972
    67   1 H    0.998 --    13 C    0.973
    68   1 H    1.000 --    14 C    0.974
    69   1 H    0.998 --    14 C    0.973
    70   1 H    1.000 --    15 C    0.977
    71   1 H    0.996 --    15 C    0.970
    72   1 H    0.999 --    16 C    0.975
    73   1 H    0.993 --    16 C    0.960
    74   1 H    0.994 --    17 C    0.950
    75   1 H    0.990 --    19 C    0.957
    76   1 H    0.990 --    20 C    0.957
    77   1 H    0.990 --    22 C    0.956
    78   1 H    0.991 --    23 C    0.958
    79   1 H    0.989 --    24 C    0.974
    80   1 H    0.987 --    24 C    0.958
    81   1 H    0.988 --    24 C    0.967
    82   1 H    0.998 --    25 C    0.974
    83   1 H    0.998 --    25 C    0.975
    84   1 H    0.995 --    26 C    0.968
    85   1 H    0.999 --    26 C    0.972
    86   1 H    0.997 --    27 C    0.972
    87   1 H    0.999 --    27 C    0.970
    88   1 H    0.998 --    28 C    0.974
    89   1 H    1.000 --    28 C    0.976
    90   1 H    0.999 --    29 C    0.975
    91   1 H    0.999 --    29 C    0.976
    92   1 H    0.999 --    30 C    0.974
    93   1 H    0.999 --    30 C    0.975
    94   1 H    0.999 --    31 C    0.974
    95   1 H    0.999 --    31 C    0.975
    96   1 H    0.999 --    32 C    0.974
    97   1 H    0.999 --    32 C    0.975
    98   1 H    0.999 --    33 C    0.975
    99   1 H    0.999 --    33 C    0.976
   100   1 H    0.999 --    34 C    0.975
   101   1 H    0.999 --    34 C    0.975
   102   1 H    0.998 --    35 C    0.974
   103   1 H    0.999 --    35 C    0.975
   104   1 H    0.999 --    36 C    0.974
   105   1 H    0.999 --    36 C    0.974
   106   1 H    0.998 --    37 C    0.975
   107   1 H    0.999 --    37 C    0.975
   108   1 H    0.999 --    38 C    0.977
   109   1 H    0.999 --    38 C    0.975
   110   1 H    0.999 --    39 C    0.978
   111   1 H    0.998 --    39 C    0.976
   112   1 H    0.999 --    40 C    0.987
   113   1 H    0.999 --    40 C    0.987
   114   1 H    0.998 --    40 C    0.986
 ---------------------------------------------------------------------------

molecular dipole:
                 x           y           z       tot (Debye)
 q only:      -15.244       5.380      24.090
   full:      -15.331       5.270      24.330      74.311

           -------------------------------------------------
          | TOTAL ENERGY             -123.853944081071 Eh   |
          | GRADIENT NORM               0.000303447021 Eh/α |
          | HOMO-LUMO GAP               0.261019580259 eV   |
           -------------------------------------------------

 * finished run on 2024/12/20 at 07:16:32.546
