   * xtb version 6.7.1 (edcfbbe) compiled by 'conda@3ef47c1a292c' on 2024-11-25

   ID    Z sym.   atoms
    1    6 C      1, 2, 4-8
    2    7 N      3
    3    1 H      9-24

          program call               : xtb C1252.xyz --opt --namespace C1252 --charge +1
          :  Hamiltonian                  GFN2-xTB          :
 * total energy  :   -25.6783146 Eh     change       -0.2475531E-10 Eh
 * total energy  :   -25.6827004 Eh     change       -0.4385737E-02 Eh
 * total energy  :   -25.6836727 Eh     change       -0.9723809E-03 Eh
 * total energy  :   -25.6837047 Eh     change       -0.3193551E-04 Eh
 * total energy  :   -25.6837227 Eh     change       -0.1801081E-04 Eh
 * total energy  :   -25.6837383 Eh     change       -0.1563102E-04 Eh
 * total energy  :   -25.6837858 Eh     change       -0.4751582E-04 Eh
 * total energy  :   -25.6838242 Eh     change       -0.3838469E-04 Eh
 * total energy  :   -25.6838505 Eh     change       -0.2630848E-04 Eh
 * total energy  :   -25.6838729 Eh     change       -0.2232074E-04 Eh
 * total energy  :   -25.6838932 Eh     change       -0.2032855E-04 Eh
 * total energy  :   -25.6839121 Eh     change       -0.1893845E-04 Eh
 * total energy  :   -25.6839233 Eh     change       -0.1116933E-04 Eh
 * total energy  :   -25.6839317 Eh     change       -0.8370970E-05 Eh
 * total energy  :   -25.6839390 Eh     change       -0.7308058E-05 Eh
 * total energy  :   -25.6839423 Eh     change       -0.3341797E-05 Eh
   *** GEOMETRY OPTIMIZATION CONVERGED AFTER 16 ITERATIONS ***

 final structure:
================
24
 xtb: 6.7.1 (edcfbbe)
C            0.64592287671952       -0.04949985028921       -0.03193351545564
C            0.13064491421823       -1.14751529460841       -0.94931942405994
N            1.01973146941320       -2.34039416628858       -1.06121081692190
C            1.31545161534130       -2.88306771602040        0.27703821178421
C            2.29839334044296       -2.02249487967866       -1.78764579867920
C            2.34810193128616       -2.92719088976637       -3.02057808786011
C            1.46236598651262       -4.10358250653443       -2.62479959767262
C            0.34157085133823       -3.39659561785060       -1.87969164978892
H            0.61833899724667       -0.34165244846319        1.01336515949904
H           -0.00255404209993        0.81559716514728       -0.14399233239477
H            1.65543323720329        0.26137496245784       -0.28693053443843
H           -0.84021726811788       -1.49408442662313       -0.58758458791718
H           -0.00262223517060       -0.74913116658983       -1.95763681980942
H            1.94081433433074       -2.19282194090927        0.83819926216026
H            0.38932287790666       -3.04525697291303        0.82649581981264
H            1.83966230235606       -3.83174574370938        0.18109867825322
H            3.14063172254964       -2.22581886112509       -1.12684261290525
H            2.32176784740713       -0.96855894845791       -2.05972150353661
H            1.93115347240543       -2.42061098351707       -3.89120647036568
H            3.36580297186807       -3.22609417405314       -3.25819547109627
H            1.09023220392552       -4.65620332040164       -3.48315190744411
H            1.99789155713682       -4.79906585137153       -1.97872383054875
H           -0.32276765121992       -2.91138253923292       -2.59662323245097
H           -0.24794331299985       -4.05109382920138       -1.24013893816339

          :  Hamiltonian                  GFN2-xTB          :
         :: total energy             -25.683942309844 Eh    ::
         :: gradient norm              0.000735163744 Eh/a0 ::
         :: HOMO-LUMO gap              9.628758605695 eV    ::
         :: SCC energy               -26.045508744804 Eh    ::
         :: -> dispersion             -0.015908748595 Eh    ::
         :: repulsion energy           0.361566434959 Eh    ::

    * Orbital Energies and Occupations

         #    Occupation            Energy/Eh            Energy/eV
      -------------------------------------------------------------
         1        2.0000           -0.8658546             -23.5611
       ...           ...                  ...                  ...
        12        2.0000           -0.6847184             -18.6321
        13        2.0000           -0.6788984             -18.4738
        14        2.0000           -0.6686357             -18.1945
        15        2.0000           -0.6570177             -17.8784
        16        2.0000           -0.6497317             -17.6801
        17        2.0000           -0.6460699             -17.5805
        18        2.0000           -0.6333163             -17.2334
        19        2.0000           -0.6241388             -16.9837
        20        2.0000           -0.6204390             -16.8830
        21        2.0000           -0.6138328             -16.7032
        22        2.0000           -0.6123359             -16.6625
        23        2.0000           -0.6038885             -16.4326
        24        2.0000           -0.5905339             -16.0692 (HOMO)
        25                         -0.2366835              -6.4405 (LUMO)
        26                         -0.1892014              -5.1484
        27                         -0.1657993              -4.5116
        28                         -0.1544857              -4.2038
        29                         -0.0802956              -2.1850
        30                         -0.0535855              -1.4581
        31                         -0.0483806              -1.3165
        32                         -0.0446531              -1.2151
        33                         -0.0335061              -0.9117
        34                         -0.0194898              -0.5303
        35                         -0.0095655              -0.2603
       ...                                ...                  ...
        48                          0.1646414               4.4801
      -------------------------------------------------------------
                  HL-Gap            0.3538504 Eh            9.6288 eV

     #   Z          covCN         q      C6AA      α(0)
     1   6 C        3.751    -0.130    23.066     6.849
     2   6 C        3.753    -0.030    21.175     6.562
     3   7 N        3.628     0.114    19.282     6.522
     4   6 C        3.712    -0.091    22.368     6.758
     5   6 C        3.778    -0.038    21.273     6.571
     6   6 C        3.832    -0.074    21.887     6.656
     7   6 C        3.824    -0.072    21.855     6.652
     8   6 C        3.797    -0.035    21.211     6.558
     9   1 H        0.925     0.070     2.083     2.257
    10   1 H        0.925     0.087     1.905     2.158
    11   1 H        0.925     0.065     2.143     2.289
    12   1 H        0.924     0.084     1.938     2.177
    13   1 H        0.924     0.084     1.938     2.177
    14   1 H        0.925     0.100     1.782     2.088
    15   1 H        0.925     0.095     1.835     2.118
    16   1 H        0.925     0.099     1.790     2.093
    17   1 H        0.925     0.091     1.869     2.138
    18   1 H        0.925     0.092     1.864     2.135
    19   1 H        0.925     0.071     2.072     2.251
    20   1 H        0.925     0.084     1.934     2.175
    21   1 H        0.925     0.087     1.908     2.160
    22   1 H        0.925     0.068     2.108     2.270
    23   1 H        0.924     0.089     1.890     2.150
    24   1 H        0.925     0.089     1.886     2.148

Wiberg/Mayer (AO) data.
largest (>0.10) Wiberg bond orders for each atom

     #   Z sym  total        # sym  WBO       # sym  WBO       # sym  WBO
 ---------------------------------------------------------------------------
     1   6 C    3.981 --     2 C    1.022     9 H    0.982    11 H    0.980
                            10 H    0.973
     2   6 C    3.935 --     1 C    1.022    12 H    0.968    13 H    0.968
                             3 N    0.932
     3   7 N    3.803 --     4 C    0.964     2 C    0.932     8 C    0.928
                             5 C    0.925
     4   6 C    3.930 --    15 H    0.975    16 H    0.974    14 H    0.972
                             3 N    0.964
     5   6 C    3.932 --     6 C    1.006    17 H    0.971    18 H    0.968
                             3 N    0.925
     6   6 C    3.986 --     5 C    1.006     7 C    1.004    19 H    0.976
                            20 H    0.971
     7   6 C    3.986 --     8 C    1.010     6 C    1.004    22 H    0.973
                            21 H    0.968
     8   6 C    3.934 --     7 C    1.010    24 H    0.969    23 H    0.968
                             3 N    0.928
     9   1 H    0.995 --     1 C    0.982
    10   1 H    0.992 --     1 C    0.973
    11   1 H    0.996 --     1 C    0.980
    12   1 H    0.993 --     2 C    0.968
    13   1 H    0.993 --     2 C    0.968
    14   1 H    0.990 --     4 C    0.972
    15   1 H    0.991 --     4 C    0.975
    16   1 H    0.990 --     4 C    0.974
    17   1 H    0.992 --     5 C    0.971
    18   1 H    0.992 --     5 C    0.968
    19   1 H    0.995 --     6 C    0.976
    20   1 H    0.993 --     6 C    0.971
    21   1 H    0.992 --     7 C    0.968
    22   1 H    0.995 --     7 C    0.973
    23   1 H    0.992 --     8 C    0.968
    24   1 H    0.992 --     8 C    0.969
 ---------------------------------------------------------------------------

molecular dipole:
                 x           y           z       tot (Debye)
 q only:        2.128      -4.456      -2.237
   full:        2.049      -4.426      -2.177      13.576

           -------------------------------------------------
          | TOTAL ENERGY              -25.683942309844 Eh   |
          | GRADIENT NORM               0.000735163744 Eh/α |
          | HOMO-LUMO GAP               9.628758605695 eV   |
           -------------------------------------------------

 * finished run on 2024/12/20 at 07:16:23.417
