   * xtb version 6.7.1 (edcfbbe) compiled by 'conda@3ef47c1a292c' on 2024-11-25

   ID    Z sym.   atoms
    1    6 C      1-8, 10-13, 15-25
    2    8 O      9
    3    7 N      14
    4    1 H      26-59

          program call               : xtb C1259.xyz --opt --namespace C1259 --charge +1
          :  Hamiltonian                  GFN2-xTB          :
 * total energy  :   -73.1663185 Eh     change       -0.3514941E-08 Eh
 * total energy  :   -73.1772130 Eh     change       -0.1089443E-01 Eh
 * total energy  :   -73.1811302 Eh     change       -0.3917170E-02 Eh
 * total energy  :   -73.1826217 Eh     change       -0.1491519E-02 Eh
 * total energy  :   -73.1839401 Eh     change       -0.1318387E-02 Eh
 * total energy  :   -73.1849364 Eh     change       -0.9963189E-03 Eh
 * total energy  :   -73.1858215 Eh     change       -0.8851401E-03 Eh
 * total energy  :   -73.1868663 Eh     change       -0.1044755E-02 Eh
 * total energy  :   -73.1875178 Eh     change       -0.6515659E-03 Eh
 * total energy  :   -73.1883470 Eh     change       -0.8291153E-03 Eh
 * total energy  :   -73.1928689 Eh     change       -0.2366022E-04 Eh
 * total energy  :   -73.1928816 Eh     change       -0.1274704E-04 Eh
 * total energy  :   -73.1928921 Eh     change       -0.1043311E-04 Eh
 * total energy  :   -73.1929050 Eh     change       -0.1288874E-04 Eh
 * total energy  :   -73.1929124 Eh     change       -0.7456824E-05 Eh
 * total energy  :   -73.1929192 Eh     change       -0.6733004E-05 Eh
 * total energy  :   -73.1929284 Eh     change       -0.9207756E-05 Eh
 * total energy  :   -73.1929352 Eh     change       -0.6858686E-05 Eh
 * total energy  :   -73.1929392 Eh     change       -0.3963893E-05 Eh
   *** GEOMETRY OPTIMIZATION CONVERGED AFTER 55 ITERATIONS ***

 final structure:
================
59
 xtb: 6.7.1 (edcfbbe)
C            0.93833492313459       -0.10587437389887       -0.48668241169085
C            0.50906486068125       -1.50759686982460       -0.02253268481339
C            1.00756157944547       -1.99797721407433        1.34950874160315
C            0.57192527655201       -3.27630684399041        1.69181119089620
C            0.92487292310407       -3.87624003954488        2.88175602453122
C            1.73269369271580       -3.17959897360817        3.76586904011134
C            2.19628872523086       -1.90533235406443        3.49132568663710
C            1.83002057645014       -1.30827023026981        2.26210528888869
O            2.30035308358081       -0.07902378465181        2.02408150113122
C            3.06673340819794       -1.26435424652428        4.57591579727890
C            2.23256835740551       -1.16394482961689        5.86452256661290
C            4.29503537862615       -2.15976092863453        4.81086177921079
C            3.59033332785170        0.14037656213005        4.27056638974297
N            0.46505517986250       -5.24146709506617        3.25403592859084
C           -0.37065852735242       -5.12125338419525        4.50146093719576
C           -0.92765025429013       -6.42525406891524        5.00712400139601
C           -2.20191658818874       -6.84132507162776        4.63322753661153
C           -2.72147432257060       -8.02990887388302        5.11473181356550
C           -1.97483447051084       -8.81565782985181        5.97678388713528
C           -0.71222862017568       -8.40185544490565        6.36729341677951
C           -0.19258432610409       -7.21176111518324        5.88907285228986
C           -0.34505881811940       -5.87819234056051        2.20201973153993
C            1.64659092476101       -6.09661600769325        3.48158484645535
C           -1.03018746924105       -1.49437930773206        0.00081180502685
C            1.01883954834154       -2.48495532751507       -1.09714278897524
H            0.55091218050652        0.68316702173941        0.15765632962904
H            0.49629348142984        0.06700839909639       -1.46735560194941
H            2.01599332871694       -0.02503984026515       -0.62808202058036
H           -0.05507770752183       -3.78944174859922        0.98791689427185
H            2.01962483666319       -3.62479312084382        4.70276277194590
H            2.00207442386578        0.25430783526650        1.17042470842547
H            1.93160571371832       -2.13667492322470        6.24500662428260
H            2.81593539933101       -0.67238776773026        6.63808817221714
H            1.33675355393985       -0.57332022145460        5.68691662891699
H            4.85566090765066       -2.27905557082779        3.88664325648560
H            4.94671019225411       -1.69575851819480        5.54603219402021
H            4.03047919187343       -3.14657390123707        5.18165807848496
H            4.21813580315213        0.14755468201369        3.38572414027148
H            2.77870664592190        0.84686726502901        4.13227447706567
H            4.19050984127283        0.47781491155319        5.11262403486700
H            0.24868248257421       -4.66689024602007        5.27484445748863
H           -1.18313941550411       -4.42973534655146        4.26596254338525
H           -2.80102534678367       -6.22568894463306        3.97797138699133
H           -3.71291409672775       -8.33763111274026        4.82170974618113
H           -2.38103907924304       -9.74063317134033        6.35397162787756
H           -0.13325897275790       -9.00083681069092        7.05220988496256
H            0.78245101996198       -6.88730585672444        6.22236782704560
H            0.23566772147088       -5.97137115239905        1.28657777015635
H           -0.63989240634795       -6.87300577659727        2.53265665006774
H           -1.24482603048453       -5.29709032104149        2.01207220481736
H            2.25401427158235       -6.11548771100321        2.57806356555826
H            2.25338478403093       -5.70910972726755        4.29499172902582
H            1.33120595348492       -7.10925479755220        3.72701576864472
H           -1.40926669281133       -1.12287562007308       -0.94748493459443
H           -1.45450733763336       -2.48114524688201        0.15865542349843
H           -1.38890692486689       -0.83911285858331        0.79184070638942
H            0.70353658029957       -2.14734844158508       -2.08083111373817
H            2.10597771779677       -2.52626527022515       -1.08296966808163
H            0.63913960981581       -3.49273609674136       -0.95971914179963

          :  Hamiltonian                  GFN2-xTB          :
         :: total energy             -73.192939190453 Eh    ::
         :: gradient norm              0.000580988628 Eh/a0 ::
         :: HOMO-LUMO gap              3.751934524045 eV    ::
         :: SCC energy               -74.355873303091 Eh    ::
         :: -> dispersion             -0.062144716677 Eh    ::
         :: repulsion energy           1.162934112638 Eh    ::

    * Orbital Energies and Occupations

         #    Occupation            Energy/Eh            Energy/eV
      -------------------------------------------------------------
         1        2.0000           -0.8393434             -22.8397
       ...           ...                  ...                  ...
        56        2.0000           -0.5407600             -14.7148
        57        2.0000           -0.5393880             -14.6775
        58        2.0000           -0.5355320             -14.5726
        59        2.0000           -0.5343542             -14.5405
        60        2.0000           -0.5337194             -14.5232
        61        2.0000           -0.5307067             -14.4413
        62        2.0000           -0.5226758             -14.2227
        63        2.0000           -0.5208021             -14.1717
        64        2.0000           -0.5206110             -14.1665
        65        2.0000           -0.5192597             -14.1298
        66        2.0000           -0.5076414             -13.8136
        67        2.0000           -0.5043300             -13.7235
        68        2.0000           -0.4886054             -13.2956 (HOMO)
        69                         -0.3507244              -9.5437 (LUMO)
        70                         -0.3440870              -9.3631
        71                         -0.3390076              -9.2249
        72                         -0.3376955              -9.1892
        73                         -0.2262493              -6.1566
        74                         -0.2182367              -5.9385
        75                         -0.1922922              -5.2325
        76                         -0.1353612              -3.6834
        77                         -0.1188181              -3.2332
        78                         -0.1073476              -2.9211
        79                         -0.0745491              -2.0286
       ...                                ...                  ...
       134                          0.5465653              14.8728
      -------------------------------------------------------------
                  HL-Gap            0.1378811 Eh            3.7519 eV

     #   Z          covCN         q      C6AA      α(0)
     1   6 C        3.763    -0.123    22.909     6.823
     2   6 C        3.902     0.029    20.036     6.363
     3   6 C        2.963    -0.028    28.692     8.786
     4   6 C        2.932    -0.059    29.458     8.901
     5   6 C        2.923     0.005    27.916     8.664
     6   6 C        2.933    -0.057    29.419     8.895
     7   6 C        2.967    -0.000    28.035     8.685
     8   6 C        2.847     0.147    24.795     8.161
     9   8 O        1.661    -0.371    20.290     6.081
    10   6 C        3.903     0.034    19.949     6.349
    11   6 C        3.763    -0.111    22.674     6.788
    12   6 C        3.762    -0.112    22.678     6.788
    13   6 C        3.764    -0.117    22.783     6.804
    14   7 N        3.623     0.122    19.156     6.500
    15   6 C        3.767    -0.034    21.220     6.565
    16   6 C        2.967    -0.007    28.193     8.709
    17   6 C        2.923    -0.038    28.948     8.823
    18   6 C        2.918    -0.023    28.575     8.766
    19   6 C        2.920    -0.019    28.489     8.753
    20   6 C        2.919    -0.023    28.582     8.767
    21   6 C        2.923    -0.039    28.959     8.825
    22   6 C        3.722    -0.083    22.192     6.728
    23   6 C        3.724    -0.082    22.182     6.725
    24   6 C        3.763    -0.114    22.725     6.795
    25   6 C        3.763    -0.114    22.728     6.796
    26   1 H        0.925     0.046     2.370     2.407
    27   1 H        0.925     0.062     2.176     2.307
    28   1 H        0.925     0.046     2.368     2.406
    29   1 H        0.926     0.056     2.243     2.342
    30   1 H        0.926     0.049     2.335     2.389
    31   1 H        0.805     0.329     0.640     1.257
    32   1 H        0.925     0.028     2.618     2.530
    33   1 H        0.925     0.055     2.258     2.350
    34   1 H        0.925     0.041     2.439     2.442
    35   1 H        0.925     0.041     2.435     2.440
    36   1 H        0.925     0.055     2.259     2.351
    37   1 H        0.925     0.028     2.616     2.529
    38   1 H        0.925     0.055     2.264     2.353
    39   1 H        0.925     0.055     2.262     2.352
    40   1 H        0.925     0.045     2.382     2.413
    41   1 H        0.925     0.084     1.943     2.180
    42   1 H        0.924     0.079     1.988     2.205
    43   1 H        0.926     0.040     2.453     2.449
    44   1 H        0.926     0.056     2.242     2.341
    45   1 H        0.926     0.059     2.206     2.322
    46   1 H        0.926     0.056     2.244     2.342
    47   1 H        0.926     0.039     2.458     2.452
    48   1 H        0.925     0.091     1.867     2.137
    49   1 H        0.925     0.093     1.853     2.129
    50   1 H        0.925     0.091     1.865     2.136
    51   1 H        0.925     0.090     1.876     2.142
    52   1 H        0.925     0.093     1.849     2.126
    53   1 H        0.925     0.092     1.862     2.134
    54   1 H        0.925     0.054     2.267     2.354
    55   1 H        0.925     0.035     2.511     2.478
    56   1 H        0.925     0.042     2.427     2.436
    57   1 H        0.925     0.054     2.267     2.354
    58   1 H        0.925     0.042     2.425     2.435
    59   1 H        0.925     0.036     2.508     2.477

Wiberg/Mayer (AO) data.
largest (>0.10) Wiberg bond orders for each atom

     #   Z sym  total        # sym  WBO       # sym  WBO       # sym  WBO
 ---------------------------------------------------------------------------
     1   6 C    3.993 --     2 C    0.999    27 H    0.974    26 H    0.973
                            28 H    0.973
     2   6 C    3.989 --     1 C    0.999    24 C    0.987    25 C    0.987
                             3 C    0.979
     3   6 C    3.980 --     4 C    1.408     8 C    1.339     2 C    0.979
     4   6 C    3.985 --     5 C    1.420     3 C    1.408    29 H    0.952
     5   6 C    3.905 --     4 C    1.420     6 C    1.383    14 N    0.898
     6   6 C    3.987 --     7 C    1.447     5 C    1.383    30 H    0.950
     7   6 C    3.980 --     6 C    1.447     8 C    1.304    10 C    0.982
     8   6 C    3.947 --     3 C    1.339     7 C    1.304     9 O    1.135
     9   8 O    2.179 --     8 C    1.135    31 H    0.830
    10   6 C    3.987 --    13 C    1.001    12 C    0.984    11 C    0.984
                             7 C    0.982
    11   6 C    3.994 --    34 H    0.986    10 C    0.984    32 H    0.982
                            33 H    0.982
    12   6 C    3.994 --    35 H    0.986    10 C    0.984    36 H    0.982
                            37 H    0.982
    13   6 C    3.991 --    10 C    1.001    38 H    0.983    39 H    0.983
                            40 H    0.982
    14   7 N    3.802 --    22 C    0.965    23 C    0.958    15 C    0.909
                             5 C    0.898
    15   6 C    3.933 --    16 C    1.005    42 H    0.967    41 H    0.961
                            14 N    0.909
    16   6 C    3.979 --    21 C    1.408    17 C    1.407    15 C    1.005
                            19 C    0.109
    17   6 C    3.990 --    18 C    1.445    16 C    1.407    43 H    0.968
                            20 C    0.110
    18   6 C    3.990 --    17 C    1.445    19 C    1.438    44 H    0.969
                            21 C    0.110
    19   6 C    3.989 --    20 C    1.438    18 C    1.438    45 H    0.969
                            16 C    0.109
    20   6 C    3.990 --    21 C    1.445    19 C    1.438    46 H    0.969
                            17 C    0.110
    21   6 C    3.991 --    20 C    1.445    16 C    1.408    47 H    0.968
                            18 C    0.110
    22   6 C    3.936 --    48 H    0.975    50 H    0.974    49 H    0.970
                            14 N    0.965
    23   6 C    3.934 --    51 H    0.977    52 H    0.972    53 H    0.972
                            14 N    0.958
    24   6 C    3.993 --     2 C    0.987    56 H    0.986    54 H    0.982
                            55 H    0.981
    25   6 C    3.993 --     2 C    0.987    58 H    0.986    57 H    0.982
                            59 H    0.981
    26   1 H    0.998 --     1 C    0.973
    27   1 H    0.995 --     1 C    0.974
    28   1 H    0.998 --     1 C    0.973
    29   1 H    0.996 --     4 C    0.952
    30   1 H    0.997 --     6 C    0.950
    31   1 H    0.892 --     9 O    0.830
    32   1 H    0.999 --    11 C    0.982
    33   1 H    0.996 --    11 C    0.982
    34   1 H    0.998 --    11 C    0.986
    35   1 H    0.998 --    12 C    0.986
    36   1 H    0.996 --    12 C    0.982
    37   1 H    0.999 --    12 C    0.982
    38   1 H    0.997 --    13 C    0.983
    39   1 H    0.997 --    13 C    0.983
    40   1 H    0.997 --    13 C    0.982
    41   1 H    0.993 --    15 C    0.961
    42   1 H    0.993 --    15 C    0.967
    43   1 H    0.998 --    17 C    0.968
    44   1 H    0.996 --    18 C    0.969
    45   1 H    0.996 --    19 C    0.969
    46   1 H    0.997 --    20 C    0.969
    47   1 H    0.998 --    21 C    0.968
    48   1 H    0.992 --    22 C    0.975
    49   1 H    0.991 --    22 C    0.970
    50   1 H    0.992 --    22 C    0.974
    51   1 H    0.992 --    23 C    0.977
    52   1 H    0.991 --    23 C    0.972
    53   1 H    0.991 --    23 C    0.972
    54   1 H    0.996 --    24 C    0.982
    55   1 H    0.999 --    24 C    0.981
    56   1 H    0.998 --    24 C    0.986
    57   1 H    0.996 --    25 C    0.982
    58   1 H    0.998 --    25 C    0.986
    59   1 H    0.999 --    25 C    0.981
 ---------------------------------------------------------------------------

molecular dipole:
                 x           y           z       tot (Debye)
 q only:        0.849      -8.880       5.596
   full:        0.702      -8.954       5.442      26.692

           -------------------------------------------------
          | TOTAL ENERGY              -73.192939190453 Eh   |
          | GRADIENT NORM               0.000580988628 Eh/α |
          | HOMO-LUMO GAP               3.751934524045 eV   |
           -------------------------------------------------

 * finished run on 2024/12/20 at 07:16:46.487
