   * xtb version 6.7.1 (edcfbbe) compiled by 'conda@3ef47c1a292c' on 2024-11-25

   ID    Z sym.   atoms
    1    9 F      1, 17-23
    2    6 C      2, 3, 5-7, 9, 10, 12-16
    3    7 N      4
    4    8 O      8, 11
    5    1 H      24-41

          program call               : xtb C1257.xyz --opt --namespace C1257 --charge +1
          :  Hamiltonian                  GFN2-xTB          :
 * total energy  :   -83.3414117 Eh     change       -0.3561382E-09 Eh
 * total energy  :   -83.3524359 Eh     change       -0.1102411E-01 Eh
 * total energy  :   -83.3558523 Eh     change       -0.3416421E-02 Eh
 * total energy  :   -83.3564233 Eh     change       -0.5710431E-03 Eh
 * total energy  :   -83.3569666 Eh     change       -0.5432248E-03 Eh
 * total energy  :   -83.3573039 Eh     change       -0.3373339E-03 Eh
 * total energy  :   -83.3576074 Eh     change       -0.3035200E-03 Eh
 * total energy  :   -83.3578068 Eh     change       -0.1994351E-03 Eh
 * total energy  :   -83.3579067 Eh     change       -0.9981396E-04 Eh
 * total energy  :   -83.3579921 Eh     change       -0.8549339E-04 Eh
 * total energy  :   -83.3696967 Eh     change       -0.3841804E-04 Eh
 * total energy  :   -83.3697223 Eh     change       -0.2564388E-04 Eh
 * total energy  :   -83.3697428 Eh     change       -0.2044349E-04 Eh
 * total energy  :   -83.3697607 Eh     change       -0.1796101E-04 Eh
 * total energy  :   -83.3697677 Eh     change       -0.6999952E-05 Eh
 * total energy  :   -83.3697783 Eh     change       -0.1060461E-04 Eh
 * total energy  :   -83.3697840 Eh     change       -0.5655344E-05 Eh
 * total energy  :   -83.3697921 Eh     change       -0.8082882E-05 Eh
 * total energy  :   -83.3697945 Eh     change       -0.2385928E-05 Eh
   *** GEOMETRY OPTIMIZATION CONVERGED AFTER 77 ITERATIONS ***

 final structure:
================
41
 xtb: 6.7.1 (edcfbbe)
F            2.57005794221727       -1.40152307795413        1.23625341387796
C            2.34946569650908       -0.82559201068578        0.03474905716270
C            3.02603026294595       -1.69961331875324       -1.06096062011221
N            2.23315093696688       -2.90396737021631       -1.52010161926622
C            3.18603488931353       -3.75618170794262       -2.26653582582808
C            1.65413462820443       -3.64647140348972       -0.36317076569035
C            0.74272008578690       -4.79084886533686       -0.82790933459100
O           -0.29345516135123       -4.29889077668378       -1.63142900183333
C            0.19896814217206       -3.66483644767929       -2.78218189000219
C            1.11317705843833       -2.48651264001471       -2.42643467004140
O            3.32047055755518       -0.98999395521542       -2.21182323355536
C            4.45563954575178       -0.12351673226555       -2.19674349275729
C            4.63514742179524        0.41756271010975       -3.61561992021142
C            3.33794444161741        0.88352543277190       -4.28124037600578
C            2.49236841700537        1.94339118171383       -3.51208795958728
C            3.27179066059265        3.22413886267561       -3.10630346422626
F            3.89120026108535        2.98530730378162       -1.92964644323905
F            4.22980663284201        3.51148749179826       -3.99427567696590
F            1.42856931298295        2.28599731850469       -4.25610740952084
F            1.99344540664320        1.38640889552045       -2.37672204453896
F            3.62424466299591        1.39128191749861       -5.49603657913122
F            2.52752003724371       -0.18443443289987       -4.52060776036174
F            1.02075517024354       -0.70334316992513       -0.09967123535944
H            2.78531425571673        0.18414921408324        0.04644498876887
H            3.94551596927609       -2.07974545796580       -0.57555757105280
H            3.64820785053550       -3.16446963709846       -3.05443006793367
H            3.95310927926230       -4.13857912064340       -1.59480612361234
H            2.67132960151507       -4.59621657769989       -2.72159972239615
H            1.02840782817545       -2.96857547237071        0.21784940608786
H            2.45987774493593       -4.02400948159758        0.26798136753719
H            0.26696801098841       -5.23489235712069        0.04868876510483
H            1.30838911056478       -5.57633791204539       -1.34822279191251
H            0.70312179024001       -4.38826622018840       -3.43827380454501
H           -0.67210790822928       -3.27591877655129       -3.31261932442601
H            1.53496525999343       -2.04046692542388       -3.32582877475467
H            0.51373999960470       -1.73721077577750       -1.91201345440622
H            4.30742977073619        0.69444576556248       -1.48592217355095
H            5.35385002381660       -0.68226375846293       -1.90540918611947
H            5.34269811787359        1.24731226503294       -3.60936301484238
H            5.03049305700009       -0.36189175029828       -4.27148172673866
H            2.59376322845162        4.08301177327686       -2.99507993941586

          :  Hamiltonian                  GFN2-xTB          :
         :: total energy             -83.369794471346 Eh    ::
         :: gradient norm              0.000695632820 Eh/a0 ::
         :: HOMO-LUMO gap              7.474862410016 eV    ::
         :: SCC energy               -83.893528781574 Eh    ::
         :: -> dispersion             -0.038315886303 Eh    ::
         :: repulsion energy           0.523734310228 Eh    ::

    * Orbital Energies and Occupations

         #    Occupation            Energy/Eh            Energy/eV
      -------------------------------------------------------------
         1        2.0000           -1.0073664             -27.4118
       ...           ...                  ...                  ...
        57        2.0000           -0.6460728             -17.5805
        58        2.0000           -0.6426448             -17.4873
        59        2.0000           -0.6396931             -17.4069
        60        2.0000           -0.6368021             -17.3283
        61        2.0000           -0.6321257             -17.2010
        62        2.0000           -0.6274214             -17.0730
        63        2.0000           -0.6266342             -17.0516
        64        2.0000           -0.6142890             -16.7157
        65        2.0000           -0.6118332             -16.6488
        66        2.0000           -0.5950031             -16.1909
        67        2.0000           -0.5931138             -16.1394
        68        2.0000           -0.5874339             -15.9849
        69        2.0000           -0.5553837             -15.1128 (HOMO)
        70                         -0.2806875              -7.6379 (LUMO)
        71                         -0.2102117              -5.7202
        72                         -0.1981532              -5.3920
        73                         -0.1923046              -5.2329
        74                         -0.1774389              -4.8284
        75                         -0.1629010              -4.4328
        76                         -0.1596383              -4.3440
        77                         -0.1460270              -3.9736
        78                         -0.1336194              -3.6360
        79                         -0.1112043              -3.0260
        80                         -0.1066339              -2.9017
       ...                                ...                  ...
       110                          0.1475960               4.0163
      -------------------------------------------------------------
                  HL-Gap            0.2746961 Eh            7.4749 eV

     #   Z          covCN         q      C6AA      α(0)
     1   9 F        0.787    -0.206    11.299     3.971
     2   6 C        3.463     0.283    18.100     6.401
     3   6 C        3.694     0.140    18.477     6.150
     4   7 N        3.619     0.120    19.190     6.506
     5   6 C        3.718    -0.099    22.514     6.778
     6   6 C        3.753    -0.048    21.493     6.611
     7   6 C        3.718     0.063    19.645     6.331
     8   8 O        1.702    -0.276    18.579     5.820
     9   6 C        3.717     0.061    19.669     6.335
    10   6 C        3.755    -0.055    21.618     6.630
    11   8 O        1.702    -0.294    18.891     5.868
    12   6 C        3.686     0.064    19.694     6.353
    13   6 C        3.802    -0.090    22.207     6.709
    14   6 C        3.517     0.328    16.814     6.051
    15   6 C        3.517     0.312    17.026     6.089
    16   6 C        3.466     0.291    17.942     6.364
    17   9 F        0.788    -0.201    11.244     3.961
    18   9 F        0.787    -0.184    11.071     3.930
    19   9 F        0.789    -0.174    10.972     3.913
    20   9 F        0.788    -0.204    11.275     3.966
    21   9 F        0.790    -0.187    11.100     3.936
    22   9 F        0.789    -0.205    11.283     3.968
    23   9 F        0.787    -0.191    11.144     3.943
    24   1 H        0.923     0.111     1.687     2.031
    25   1 H        0.922     0.080     1.976     2.198
    26   1 H        0.925     0.112     1.677     2.025
    27   1 H        0.925     0.095     1.835     2.118
    28   1 H        0.925     0.112     1.677     2.025
    29   1 H        0.924     0.118     1.629     1.996
    30   1 H        0.924     0.089     1.888     2.149
    31   1 H        0.924     0.104     1.747     2.067
    32   1 H        0.923     0.053     2.282     2.363
    33   1 H        0.923     0.053     2.284     2.364
    34   1 H        0.924     0.107     1.727     2.055
    35   1 H        0.925     0.117     1.634     1.999
    36   1 H        0.925     0.120     1.617     1.988
    37   1 H        0.924     0.069     2.092     2.262
    38   1 H        0.924     0.069     2.097     2.264
    39   1 H        0.924     0.112     1.679     2.026
    40   1 H        0.924     0.109     1.704     2.041
    41   1 H        0.923     0.121     1.603     1.980

Wiberg/Mayer (AO) data.
largest (>0.10) Wiberg bond orders for each atom

     #   Z sym  total        # sym  WBO       # sym  WBO       # sym  WBO
 ---------------------------------------------------------------------------
     1   9 F    1.057 --     2 C    0.959
     2   6 C    3.859 --    23 F    0.971     1 F    0.959     3 C    0.941
                            24 H    0.934
     3   6 C    3.947 --    11 O    1.024    25 H    0.942     2 C    0.941
                             4 N    0.923
     4   7 N    3.801 --     5 C    0.951     6 C    0.930     3 C    0.923
                            10 C    0.918
     5   6 C    3.917 --    27 H    0.975    26 H    0.971    28 H    0.963
                             4 N    0.951
     6   6 C    3.921 --     7 C    0.991    30 H    0.968    29 H    0.960
                             4 N    0.930
     7   6 C    3.951 --     8 O    1.002     6 C    0.991    32 H    0.960
                            31 H    0.957
     8   8 O    2.110 --     7 C    1.002     9 C    0.997
     9   6 C    3.950 --     8 O    0.997    10 C    0.994    33 H    0.959
                            34 H    0.956
    10   6 C    3.909 --     9 C    0.994    35 H    0.960    36 H    0.959
                             4 N    0.918
    11   8 O    2.101 --     3 C    1.024    12 C    0.943
    12   6 C    3.924 --    13 C    1.005    38 H    0.966    37 H    0.964
                            11 O    0.943
    13   6 C    3.976 --    12 C    1.005    14 C    0.970    40 H    0.962
                            39 H    0.960
    14   6 C    3.871 --    13 C    0.970    21 F    0.968    22 F    0.946
                            15 C    0.912
    15   6 C    3.874 --    19 F    0.979    20 F    0.950    16 C    0.925
                            14 C    0.912
    16   6 C    3.861 --    18 F    0.982    17 F    0.961    41 H    0.937
                            15 C    0.925
    17   9 F    1.061 --    16 C    0.961
    18   9 F    1.082 --    16 C    0.982
    19   9 F    1.093 --    15 C    0.979
    20   9 F    1.058 --    15 C    0.950
    21   9 F    1.079 --    14 C    0.968
    22   9 F    1.061 --    14 C    0.946
    23   9 F    1.081 --     2 C    0.971
    24   1 H    0.987 --     2 C    0.934
    25   1 H    0.993 --     3 C    0.942
    26   1 H    0.987 --     5 C    0.971
    27   1 H    0.991 --     5 C    0.975
    28   1 H    0.987 --     5 C    0.963
    29   1 H    0.986 --     6 C    0.960
    30   1 H    0.992 --     6 C    0.968
    31   1 H    0.989 --     7 C    0.957
    32   1 H    0.997 --     7 C    0.960
    33   1 H    0.997 --     9 C    0.959
    34   1 H    0.988 --     9 C    0.956
    35   1 H    0.986 --    10 C    0.960
    36   1 H    0.986 --    10 C    0.959
    37   1 H    0.995 --    12 C    0.964
    38   1 H    0.995 --    12 C    0.966
    39   1 H    0.987 --    13 C    0.960
    40   1 H    0.988 --    13 C    0.962
    41   1 H    0.985 --    16 C    0.937
 ---------------------------------------------------------------------------

molecular dipole:
                 x           y           z       tot (Debye)
 q only:        5.872      -4.746      -3.213
   full:        6.253      -4.449      -3.057      20.996

           -------------------------------------------------
          | TOTAL ENERGY              -83.369794471346 Eh   |
          | GRADIENT NORM               0.000695632820 Eh/α |
          | HOMO-LUMO GAP               7.474862410016 eV   |
           -------------------------------------------------

 * finished run on 2024/12/20 at 07:16:42.050
