   * xtb version 6.7.1 (edcfbbe) compiled by 'conda@3ef47c1a292c' on 2024-11-25

   ID    Z sym.   atoms
    1    6 C      1, 2, 5, 6, 8-10, 12-17
    2    8 O      3, 11
    3    7 N      4, 7
    4   17 Cl     18
    5    1 H      19-32

          program call               : xtb C1269.xyz --opt --namespace C1269 --charge +1
          :  Hamiltonian                  GFN2-xTB          :
 * total energy  :   -53.0510799 Eh     change       -0.6832295E-09 Eh
 * total energy  :   -53.0581449 Eh     change       -0.7065054E-02 Eh
 * total energy  :   -53.0603235 Eh     change       -0.2178600E-02 Eh
 * total energy  :   -53.0606276 Eh     change       -0.3040915E-03 Eh
 * total energy  :   -53.0608448 Eh     change       -0.2171804E-03 Eh
 * total energy  :   -53.0609722 Eh     change       -0.1273973E-03 Eh
 * total energy  :   -53.0611574 Eh     change       -0.1852212E-03 Eh
 * total energy  :   -53.0614132 Eh     change       -0.2557595E-03 Eh
 * total energy  :   -53.0616408 Eh     change       -0.2276169E-03 Eh
 * total energy  :   -53.0618614 Eh     change       -0.2206332E-03 Eh
 * total energy  :   -53.0707150 Eh     change       -0.4162762E-04 Eh
 * total energy  :   -53.0707549 Eh     change       -0.3993794E-04 Eh
 * total energy  :   -53.0707695 Eh     change       -0.1459821E-04 Eh
 * total energy  :   -53.0707963 Eh     change       -0.2681931E-04 Eh
 * total energy  :   -53.0708105 Eh     change       -0.1416356E-04 Eh
 * total energy  :   -53.0708233 Eh     change       -0.1282979E-04 Eh
 * total energy  :   -53.0708341 Eh     change       -0.1081116E-04 Eh
 * total energy  :   -53.0708407 Eh     change       -0.6540759E-05 Eh
 * total energy  :   -53.0708456 Eh     change       -0.4971541E-05 Eh
   *** GEOMETRY OPTIMIZATION CONVERGED AFTER 105 ITERATIONS ***

 final structure:
================
32
 xtb: 6.7.1 (edcfbbe)
C            0.11135413990819       -1.61037194421698        1.79445469481270
C            0.58272938001433       -1.68990384045968        0.35366538050602
O            1.76390215771510       -2.50420366573362        0.19053359230069
N            2.87875943973177       -1.97823995945990        0.74765957242063
C            3.73204039776420       -1.10449671971715        0.14310854748971
C            4.73218384537153       -0.86510761286373        1.03270705904010
N            4.47987824821553       -1.60653102258164        2.15042005620280
C            3.33619707997254       -2.26423197176448        1.96512014375704
C            5.12575044051667       -1.49079720612352        3.42367201901820
C            4.08373277660005       -0.90699209446269        4.42719158195360
O            2.92852488442085       -0.83992923732101        4.06642127766840
C            4.57228827443512       -0.49848069032662        5.73281079884717
C            5.89740533142462       -0.66676289517492        6.15787979844047
C            6.28115039199745       -0.25935784317861        7.41588314188505
C            5.35253516750885        0.32692854061937        8.27581128259211
C            4.03035122706979        0.49718149236135        7.87011143762590
C            3.64875595098614        0.08637879038150        6.61408964579001
Cl           5.84157037736693        0.83502169808393        9.83338568240822
H           -0.06724413493273       -2.60692357051662        2.19012586910314
H           -0.82261449920647       -1.05783462487059        1.82616634640468
H            0.83090276553962       -1.09697457643696        2.42992682258753
H           -0.14248580530204       -2.21056426151488       -0.27226069377070
H            0.76903676722400       -0.69333996995867       -0.06122443586820
H            3.57147097794082       -0.73664501411819       -0.85000300379717
H            5.59342656933822       -0.23470088960721        0.94128060951620
H            2.86950794965891       -2.94422878768251        2.65060303395482
H            5.44109505201299       -2.47169021378826        3.78999878231939
H            5.99150720656672       -0.83499188995988        3.33432253351138
H            6.63448166908602       -1.12490963939063        5.51780600549634
H            7.29980445196141       -0.39083670700355        7.74402821938821
H            3.31650488699001        0.94725647211333        8.54107999673216
H            2.62871663209370        0.20896985467383        6.28307420167131

          :  Hamiltonian                  GFN2-xTB          :
         :: total energy             -53.070845631478 Eh    ::
         :: gradient norm              0.000535183296 Eh/a0 ::
         :: HOMO-LUMO gap              2.458812845634 eV    ::
         :: SCC energy               -53.772167476485 Eh    ::
         :: -> dispersion             -0.030566941161 Eh    ::
         :: repulsion energy           0.701321845007 Eh    ::

    * Orbital Energies and Occupations

         #    Occupation            Energy/Eh            Energy/eV
      -------------------------------------------------------------
         1        2.0000           -1.1528896             -31.3717
       ...           ...                  ...                  ...
        35        2.0000           -0.6114711             -16.6390
        36        2.0000           -0.6059920             -16.4899
        37        2.0000           -0.5859229             -15.9438
        38        2.0000           -0.5827949             -15.8587
        39        2.0000           -0.5745024             -15.6330
        40        2.0000           -0.5741865             -15.6244
        41        2.0000           -0.5666504             -15.4193
        42        2.0000           -0.5652917             -15.3824
        43        2.0000           -0.5553846             -15.1128
        44        2.0000           -0.5429542             -14.7745
        45        2.0000           -0.5395909             -14.6830
        46        2.0000           -0.5186407             -14.1129
        47        2.0000           -0.5103171             -13.8864 (HOMO)
        48                         -0.4199574             -11.4276 (LUMO)
        49                         -0.4027880             -10.9604
        50                         -0.3696391             -10.0584
        51                         -0.3546773              -9.6513
        52                         -0.3266790              -8.8894
        53                         -0.2333026              -6.3485
        54                         -0.2301132              -6.2617
        55                         -0.2200984              -5.9892
        56                         -0.1466351              -3.9901
        57                         -0.0994542              -2.7063
        58                         -0.0932486              -2.5374
       ...                                ...                  ...
        91                          0.5313493              14.4587
      -------------------------------------------------------------
                  HL-Gap            0.0903597 Eh            2.4588 eV

     #   Z          covCN         q      C6AA      α(0)
     1   6 C        3.750    -0.133    23.126     6.858
     2   6 C        3.683     0.060    19.772     6.367
     3   8 O        1.766    -0.222    17.672     5.676
     4   7 N        2.909     0.209    17.804     6.267
     5   6 C        3.040    -0.018    28.428     8.745
     6   6 C        3.072    -0.009    28.171     8.703
     7   7 N        2.875     0.076    19.924     6.629
     8   6 C        3.064     0.048    26.864     8.499
     9   6 C        3.744    -0.053    21.605     6.631
    10   6 C        2.823     0.227    23.231     7.898
    11   8 O        0.857    -0.364    20.978     6.141
    12   6 C        2.969    -0.020    28.511     8.758
    13   6 C        2.919    -0.025    28.622     8.773
    14   6 C        2.955    -0.031    28.782     8.799
    15   6 C        2.887     0.119    25.375     8.259
    16   6 C        2.952    -0.030    28.758     8.796
    17   6 C        2.928    -0.008    28.207     8.710
    18  17 Cl       0.972    -0.089   101.930    15.446
    19   1 H        0.925     0.068     2.107     2.270
    20   1 H        0.925     0.077     2.015     2.220
    21   1 H        0.925     0.064     2.158     2.297
    22   1 H        0.924     0.102     1.765     2.077
    23   1 H        0.924     0.056     2.242     2.342
    24   1 H        0.926     0.121     1.601     1.979
    25   1 H        0.926     0.111     1.686     2.031
    26   1 H        0.926     0.137     1.480     1.902
    27   1 H        0.924     0.106     1.730     2.057
    28   1 H        0.925     0.105     1.742     2.064
    29   1 H        0.926     0.058     2.227     2.334
    30   1 H        0.926     0.085     1.933     2.174
    31   1 H        0.926     0.088     1.899     2.155
    32   1 H        0.926     0.087     1.904     2.158

Wiberg/Mayer (AO) data.
largest (>0.10) Wiberg bond orders for each atom

     #   Z sym  total        # sym  WBO       # sym  WBO       # sym  WBO
 ---------------------------------------------------------------------------
     1   6 C    3.986 --     2 C    1.022    19 H    0.983    21 H    0.981
                            20 H    0.975
     2   6 C    3.900 --     1 C    1.022    23 H    0.972    22 H    0.956
                             3 O    0.908
     3   8 O    2.068 --     4 N    1.011     2 C    0.908
     4   7 N    3.727 --     8 C    1.339     5 C    1.206     3 O    1.011
     5   6 C    3.945 --     6 C    1.599     4 N    1.206    24 H    0.958
     6   6 C    3.945 --     5 C    1.599     7 N    1.211    25 H    0.960
     7   7 N    3.708 --     8 C    1.344     6 C    1.211     9 C    0.996
     8   6 C    3.941 --     7 N    1.344     4 N    1.339    26 H    0.949
     9   6 C    3.944 --     7 N    0.996    28 H    0.956    27 H    0.942
                            10 C    0.918
    10   6 C    3.922 --    11 O    1.783    12 C    1.100     9 C    0.918
    11   8 O    2.088 --    10 C    1.783
    12   6 C    3.982 --    13 C    1.337    17 C    1.331    10 C    1.100
    13   6 C    3.990 --    14 C    1.493    12 C    1.337    29 H    0.964
    14   6 C    3.986 --    13 C    1.493    15 C    1.360    30 H    0.963
    15   6 C    3.929 --    16 C    1.368    14 C    1.360    18 Cl   1.046
    16   6 C    3.985 --    17 C    1.486    15 C    1.368    31 H    0.962
    17   6 C    3.982 --    16 C    1.486    12 C    1.331    32 H    0.961
    18  17 Cl   1.208 --    15 C    1.046
    19   1 H    0.995 --     1 C    0.983
    20   1 H    0.994 --     1 C    0.975
    21   1 H    0.996 --     1 C    0.981
    22   1 H    0.989 --     2 C    0.956
    23   1 H    0.997 --     2 C    0.972
    24   1 H    0.985 --     5 C    0.958
    25   1 H    0.988 --     6 C    0.960
    26   1 H    0.981 --     8 C    0.949
    27   1 H    0.988 --     9 C    0.942
    28   1 H    0.988 --     9 C    0.956
    29   1 H    0.997 --    13 C    0.964
    30   1 H    0.992 --    14 C    0.963
    31   1 H    0.991 --    16 C    0.962
    32   1 H    0.992 --    17 C    0.961
 ---------------------------------------------------------------------------

molecular dipole:
                 x           y           z       tot (Debye)
 q only:        7.420      -2.346       4.925
   full:        7.758      -2.232       5.291      24.533

           -------------------------------------------------
          | TOTAL ENERGY              -53.070845631478 Eh   |
          | GRADIENT NORM               0.000535183296 Eh/α |
          | HOMO-LUMO GAP               2.458812845634 eV   |
           -------------------------------------------------

 * finished run on 2024/12/20 at 07:17:06.595
