   * xtb version 6.7.1 (edcfbbe) compiled by 'conda@3ef47c1a292c' on 2024-11-25

   ID    Z sym.   atoms
    1    6 C      1, 3, 4, 6-11
    2    8 O      2
    3    7 N      5
    4    1 H      12-31

          program call               : xtb C1266.xyz --opt --namespace C1266 --charge +1
          :  Hamiltonian                  GFN2-xTB          :
 * total energy  :   -36.0652755 Eh     change       -0.5890399E-10 Eh
 * total energy  :   -36.0719532 Eh     change       -0.6677757E-02 Eh
 * total energy  :   -36.0738283 Eh     change       -0.1875022E-02 Eh
 * total energy  :   -36.0739591 Eh     change       -0.1308266E-03 Eh
 * total energy  :   -36.0740928 Eh     change       -0.1337561E-03 Eh
 * total energy  :   -36.0741371 Eh     change       -0.4429085E-04 Eh
 * total energy  :   -36.0741961 Eh     change       -0.5897494E-04 Eh
 * total energy  :   -36.0742456 Eh     change       -0.4945795E-04 Eh
 * total energy  :   -36.0742723 Eh     change       -0.2678094E-04 Eh
 * total energy  :   -36.0743093 Eh     change       -0.3691763E-04 Eh
 * total energy  :   -36.0746297 Eh     change       -0.5804527E-04 Eh
 * total energy  :   -36.0746711 Eh     change       -0.4139287E-04 Eh
 * total energy  :   -36.0746990 Eh     change       -0.2795416E-04 Eh
 * total energy  :   -36.0747190 Eh     change       -0.1992988E-04 Eh
 * total energy  :   -36.0747359 Eh     change       -0.1690039E-04 Eh
 * total energy  :   -36.0747504 Eh     change       -0.1452975E-04 Eh
 * total energy  :   -36.0747577 Eh     change       -0.7318283E-05 Eh
 * total energy  :   -36.0747629 Eh     change       -0.5152667E-05 Eh
 * total energy  :   -36.0747652 Eh     change       -0.2338680E-05 Eh
   *** GEOMETRY OPTIMIZATION CONVERGED AFTER 26 ITERATIONS ***

 final structure:
================
31
 xtb: 6.7.1 (edcfbbe)
C            1.48835496303152       -1.28957086493230       -1.72985046282143
O            1.08647219251453       -0.14063174396754       -1.00796911777558
C            1.13418108450640        1.04144377855121       -1.76925706323989
C            0.41763255545265        2.18597174516692       -1.04556277416482
N            0.84783604191932        2.45602413452805        0.36002713718780
C            2.31760554859297        2.42502005604154        0.44624089286887
C            0.33024572134455        3.80574452835993        0.73592233489440
C            0.53862243999785        4.15867294987063        2.20547021311903
C           -0.07718434892162        3.09815850910588        3.11139998644949
C            0.48663717450770        1.72956034718999        2.74561388193150
C            0.24352299473514        1.43797302118531        1.27098459957530
H            1.41811648199317       -2.12421215281908       -1.03684215306119
H            2.51867308525011       -1.18995753348820       -2.08490878421950
H            0.82833176131236       -1.46469644193489       -2.58408693206996
H            2.17727889472312        1.30409421888879       -2.00242223230312
H            0.61278183492685        0.90002728493466       -2.72800191701329
H            0.57923065507264        3.09149080124953       -1.63470558042056
H           -0.65210974347830        1.97013902322839       -1.02618787836475
H            2.67023782703205        1.40812322120883        0.29053490833340
H            2.74560757935579        3.08194103435077       -0.30910701430362
H            2.64871749292664        2.75941929232242        1.42450236076997
H           -0.74054334180443        3.81576648519391        0.51961295212143
H            0.81819130807542        4.54920092608070        0.10217363965110
H            0.06415465903239        5.12459867464867        2.38142892944257
H            1.59784283007034        4.27948552514462        2.43470709392214
H            0.13713700627230        3.32876653314408        4.15348476145218
H           -1.16176032688943        3.09341690682217        2.98921390931877
H            1.54726957339333        1.67640493279855        2.99108193207640
H           -0.01475179778891        0.95208589757296        3.32208288205262
H            0.63731477661569        0.46183021316304        0.98846244778905
H           -0.83350692376477        1.43748869639398        1.08989704680112

          :  Hamiltonian                  GFN2-xTB          :
         :: total energy             -36.074765203616 Eh    ::
         :: gradient norm              0.000392779515 Eh/a0 ::
         :: HOMO-LUMO gap              8.312170503588 eV    ::
         :: SCC energy               -36.525706461836 Eh    ::
         :: -> dispersion             -0.023258072196 Eh    ::
         :: repulsion energy           0.450941258220 Eh    ::

    * Orbital Energies and Occupations

         #    Occupation            Energy/Eh            Energy/eV
      -------------------------------------------------------------
         1        2.0000           -0.8570691             -23.3220
       ...           ...                  ...                  ...
        21        2.0000           -0.6405749             -17.4309
        22        2.0000           -0.6388654             -17.3844
        23        2.0000           -0.6361882             -17.3116
        24        2.0000           -0.6300123             -17.1435
        25        2.0000           -0.6278014             -17.0833
        26        2.0000           -0.6139279             -16.7058
        27        2.0000           -0.6075396             -16.5320
        28        2.0000           -0.6003332             -16.3359
        29        2.0000           -0.5833062             -15.8726
        30        2.0000           -0.5799857             -15.7822
        31        2.0000           -0.5738168             -15.6144
        32        2.0000           -0.5703383             -15.5197
        33        2.0000           -0.5364287             -14.5970 (HOMO)
        34                         -0.2309620              -6.2848 (LUMO)
        35                         -0.1618897              -4.4052
        36                         -0.1586181              -4.3162
        37                         -0.1411222              -3.8401
        38                         -0.1136631              -3.0929
        39                         -0.0702819              -1.9125
        40                         -0.0579589              -1.5771
        41                         -0.0526740              -1.4333
        42                         -0.0414950              -1.1291
        43                         -0.0277621              -0.7554
        44                         -0.0164262              -0.4470
       ...                                ...                  ...
        64                          0.1778144               4.8386
      -------------------------------------------------------------
                  HL-Gap            0.3054666 Eh            8.3122 eV

     #   Z          covCN         q      C6AA      α(0)
     1   6 C        3.651     0.026    20.449     6.495
     2   8 O        1.700    -0.319    19.336     5.937
     3   6 C        3.699     0.072    19.532     6.320
     4   6 C        3.763    -0.041    21.353     6.587
     5   7 N        3.621     0.126    19.089     6.489
     6   6 C        3.712    -0.093    22.411     6.765
     7   6 C        3.767    -0.035    21.230     6.567
     8   6 C        3.804    -0.071    21.860     6.656
     9   6 C        3.807    -0.072    21.872     6.658
    10   6 C        3.805    -0.073    21.897     6.662
    11   6 C        3.763    -0.042    21.363     6.588
    12   1 H        0.925     0.078     1.995     2.209
    13   1 H        0.924     0.045     2.381     2.413
    14   1 H        0.924     0.050     2.323     2.383
    15   1 H        0.923     0.047     2.355     2.400
    16   1 H        0.923     0.063     2.161     2.299
    17   1 H        0.924     0.086     1.917     2.165
    18   1 H        0.924     0.094     1.841     2.122
    19   1 H        0.925     0.107     1.722     2.052
    20   1 H        0.925     0.089     1.892     2.151
    21   1 H        0.925     0.103     1.755     2.072
    22   1 H        0.924     0.083     1.946     2.182
    23   1 H        0.924     0.078     1.997     2.210
    24   1 H        0.924     0.078     2.003     2.213
    25   1 H        0.924     0.061     2.193     2.316
    26   1 H        0.925     0.070     2.087     2.259
    27   1 H        0.924     0.057     2.239     2.340
    28   1 H        0.925     0.061     2.187     2.313
    29   1 H        0.925     0.078     1.999     2.211
    30   1 H        0.925     0.112     1.683     2.029
    31   1 H        0.924     0.082     1.954     2.186

Wiberg/Mayer (AO) data.
largest (>0.10) Wiberg bond orders for each atom

     #   Z sym  total        # sym  WBO       # sym  WBO       # sym  WBO
 ---------------------------------------------------------------------------
     1   6 C    3.933 --    13 H    0.979    14 H    0.978    12 H    0.977
                             2 O    0.974
     2   8 O    2.069 --     3 C    0.995     1 C    0.974
     3   6 C    3.958 --     4 C    1.001     2 O    0.995    15 H    0.963
                            16 H    0.957
     4   6 C    3.944 --     3 C    1.001    17 H    0.967    18 H    0.966
                             5 N    0.940
     5   7 N    3.808 --     6 C    0.960     4 C    0.940     7 C    0.929
                            11 C    0.924
     6   6 C    3.928 --    20 H    0.977    19 H    0.971    21 H    0.966
                             5 N    0.960
     7   6 C    3.935 --     8 C    1.007    23 H    0.969    22 H    0.968
                             5 N    0.929
     8   6 C    3.986 --     9 C    1.008     7 C    1.007    25 H    0.969
                            24 H    0.965
     9   6 C    3.992 --    10 C    1.009     8 C    1.008    27 H    0.975
                            26 H    0.973
    10   6 C    3.987 --    11 C    1.009     9 C    1.009    28 H    0.971
                            29 H    0.965
    11   6 C    3.923 --    10 C    1.009    31 H    0.966    30 H    0.956
                             5 N    0.924
    12   1 H    0.994 --     1 C    0.977
    13   1 H    0.998 --     1 C    0.979
    14   1 H    0.998 --     1 C    0.978
    15   1 H    0.998 --     3 C    0.963
    16   1 H    0.995 --     3 C    0.957
    17   1 H    0.992 --     4 C    0.967
    18   1 H    0.991 --     4 C    0.966
    19   1 H    0.989 --     6 C    0.971
    20   1 H    0.992 --     6 C    0.977
    21   1 H    0.989 --     6 C    0.966
    22   1 H    0.993 --     7 C    0.968
    23   1 H    0.994 --     7 C    0.969
    24   1 H    0.994 --     8 C    0.965
    25   1 H    0.996 --     8 C    0.969
    26   1 H    0.995 --     9 C    0.973
    27   1 H    0.997 --     9 C    0.975
    28   1 H    0.996 --    10 C    0.971
    29   1 H    0.994 --    10 C    0.965
    30   1 H    0.988 --    11 C    0.956
    31   1 H    0.993 --    11 C    0.966
 ---------------------------------------------------------------------------

molecular dipole:
                 x           y           z       tot (Debye)
 q only:        1.702       4.372       0.687
   full:        1.732       4.418       0.345      12.094

           -------------------------------------------------
          | TOTAL ENERGY              -36.074765203616 Eh   |
          | GRADIENT NORM               0.000392779515 Eh/α |
          | HOMO-LUMO GAP               8.312170503588 eV   |
           -------------------------------------------------

 * finished run on 2024/12/20 at 07:17:02.777
