   * xtb version 6.7.1 (edcfbbe) compiled by 'conda@3ef47c1a292c' on 2024-11-25

   ID    Z sym.   atoms
    1    6 C      1-8, 10-28
    2   15 P      9
    3    1 H      29-86

          program call               : xtb C1265.xyz --opt --namespace C1265 --charge +1
          :  Hamiltonian                  GFN2-xTB          :
 * total energy  :   -89.5540798 Eh     change       -0.3277734E-09 Eh
 * total energy  :   -89.5611781 Eh     change       -0.7098228E-02 Eh
 * total energy  :   -89.5631397 Eh     change       -0.1961680E-02 Eh
 * total energy  :   -89.5635819 Eh     change       -0.4421349E-03 Eh
 * total energy  :   -89.5639576 Eh     change       -0.3757590E-03 Eh
 * total energy  :   -89.5642873 Eh     change       -0.3296111E-03 Eh
 * total energy  :   -89.5647068 Eh     change       -0.4195388E-03 Eh
 * total energy  :   -89.5652208 Eh     change       -0.5140299E-03 Eh
 * total energy  :   -89.5657197 Eh     change       -0.4989065E-03 Eh
 * total energy  :   -89.5661488 Eh     change       -0.4290638E-03 Eh
 * total energy  :   -89.5742181 Eh     change       -0.2342507E-04 Eh
 * total energy  :   -89.5742379 Eh     change       -0.1979665E-04 Eh
 * total energy  :   -89.5742571 Eh     change       -0.1920541E-04 Eh
 * total energy  :   -89.5742564 Eh     change        0.6950835E-06 Eh
 * total energy  :   -89.5742690 Eh     change       -0.1258715E-04 Eh
 * total energy  :   -89.5742811 Eh     change       -0.1216287E-04 Eh
 * total energy  :   -89.5742816 Eh     change       -0.4472342E-06 Eh
 * total energy  :   -89.5742960 Eh     change       -0.1438937E-04 Eh
 * total energy  :   -89.5742996 Eh     change       -0.3674168E-05 Eh
   *** GEOMETRY OPTIMIZATION CONVERGED AFTER 94 ITERATIONS ***

 final structure:
================
86
 xtb: 6.7.1 (edcfbbe)
C            2.91035396669179       -1.33251119149276        0.09154442219805
C            2.12730789783528       -2.52068012549386       -0.45385852759035
C            1.78794919664984       -3.56151379035956        0.61451190728404
C            0.90318307192976       -3.05103183654305        1.75410823602748
C           -0.44746411744405       -2.47730492119794        1.31985060529365
C           -1.33546555162152       -3.43990625575145        0.52811206290366
C           -1.74578938023844       -4.70546421281800        1.28325541092007
C           -2.65817611559029       -4.44917479416464        2.49336372996335
P           -4.43795308205699       -4.69749752320677        2.15014116836432
C           -4.66505578762111       -6.38438981352504        1.46819950318416
C           -3.81303630995343       -7.49337192476097        2.08892300608177
C           -4.14348772223096       -7.81379142816273        3.54618440510024
C           -5.54040496396808       -8.39607535681478        3.77769576752353
C           -5.83036827400104       -9.69437863442448        3.01989177657396
C           -4.85774047195430      -10.84129116123246        3.30219354533750
C           -4.78285533041336      -11.27535802302016        4.76700291192085
C           -6.10480540939951      -11.81283910472886        5.30185947400447
C           -5.48383105713148       -4.52429093463977        3.65507572698668
C           -4.79505454340129       -3.94807705002039        4.89402955950872
C           -4.57355734204024       -2.43749874430463        4.81410870285741
C           -5.83250207339346       -1.60785015289969        5.07916842566227
C           -6.33663723565024       -1.65132926108668        6.52386457065838
C           -5.34644804887976       -1.14793467929203        7.57656975139694
C           -4.85067628023936        0.28386682839065        7.36690462521680
C           -5.96906224105287        1.31837080015152        7.40056998078198
C           -5.13180179110455       -3.64933619100956        0.81128942586149
C           -5.48301086804470       -2.19421052733350        1.13324689644024
C           -4.29793823136332       -1.24208844139171        1.05472852437046
H            2.31017897323518       -0.74455559587839        0.78153769921521
H            3.21917353679180       -0.68231490640016       -0.72306197955951
H            3.80220962198502       -1.67228224282241        0.61280792425289
H            1.21450205817456       -2.16530407942300       -0.93625763484512
H            2.72704707125781       -3.01321865895366       -1.22230234237455
H            1.31000262562098       -4.41767665201671        0.13230125717829
H            2.72074375732665       -3.92178196769880        1.05384723014077
H            0.74561755377882       -3.86898836442384        2.46168658970981
H            1.43911892906103       -2.26925713977096        2.29361007620746
H           -0.97159342656286       -2.12978107526102        2.21466351039727
H           -0.27517717897888       -1.59793795930821        0.69852824549772
H           -2.22798003156485       -2.90321913260262        0.20405037020621
H           -0.79996169859125       -3.74711542145803       -0.37049664650404
H           -2.23369536766252       -5.38371464648208        0.57894484293675
H           -0.84190481163899       -5.20489357301163        1.63275101846452
H           -2.42463763332531       -5.15032131132528        3.30009752331692
H           -2.50443415073806       -3.44408089786332        2.88634223669528
H           -5.72828544176277       -6.62186699614963        1.56429914555321
H           -4.44596308297124       -6.31639921162807        0.39753605108298
H           -3.95335036052178       -8.39329536919861        1.48892244130238
H           -2.75702189618994       -7.22731950106260        2.01802301318001
H           -3.40712654125674       -8.53325164537764        3.90544523615794
H           -4.02802376094810       -6.90929535155856        4.15216976743953
H           -5.65393605239483       -8.57743538224283        4.84727814988493
H           -6.30681788678985       -7.66675684024938        3.49819255561072
H           -6.83966182320965      -10.01479260247752        3.28116931909222
H           -5.83157930834181       -9.49967277455933        1.94455827048067
H           -5.17330045236059      -11.69887111347292        2.70408814035025
H           -3.85607223235481      -10.56611650458931        2.96399907793998
H           -4.02790901765170      -12.06052123516927        4.84514157045427
H           -4.44812140006848      -10.44340902020327        5.39003328819971
H           -6.47417892793647      -12.61344008072020        4.66533231738389
H           -5.96932907812053      -12.21019410434518        6.30454925303363
H           -6.86092655588306      -11.03293682505229        5.34909061415674
H           -6.34129750493768       -3.90440071470046        3.38106102331394
H           -5.86509169910166       -5.52347019060099        3.87682716765939
H           -5.42019874936573       -4.16913045557161        5.75985351777784
H           -3.84061537349642       -4.45298109555586        5.05600701542338
H           -3.81059265051684       -2.15276136469498        5.53810151713911
H           -4.19243477183602       -2.18691651968199        3.82033099988620
H           -5.61973993998270       -0.57229902761275        4.81173957792624
H           -6.64495779150174       -1.94522937526153        4.42931144697472
H           -7.24461979129552       -1.04953705777139        6.57733113857868
H           -6.62110613137848       -2.67359832087949        6.78463178635740
H           -5.84139244600341       -1.20277130987889        8.54838580687754
H           -4.48407408592607       -1.81734096808103        7.62047969787919
H           -4.13880721268390        0.51121104319883        8.16327444252688
H           -4.31022665734979        0.36027512052057        6.42100512281568
H           -6.54075324647484        1.22896002651085        8.32113612746040
H           -5.55313708540810        2.32169027830258        7.35420783648764
H           -6.64789385561226        1.19662371864829        6.56010081003173
H           -4.43926517349768       -3.69468002323833       -0.03372865741273
H           -6.04412874708355       -4.18199200300968        0.51653313184915
H           -6.23179195837890       -1.86899467658611        0.40832804207550
H           -5.94192397314841       -2.12322010689858        2.12042208830906
H           -3.88193377418522       -1.22692579156258        0.05017461074658
H           -4.62158538558656       -0.23318302847917        1.29579478261733
H           -3.51172990783864       -1.51978152333443        1.75230724010716

          :  Hamiltonian                  GFN2-xTB          :
         :: total energy             -89.574299637946 Eh    ::
         :: gradient norm              0.000263545376 Eh/a0 ::
         :: HOMO-LUMO gap              5.371780087536 eV    ::
         :: SCC energy               -90.897515896077 Eh    ::
         :: -> dispersion             -0.079085324212 Eh    ::
         :: repulsion energy           1.323216258131 Eh    ::

    * Orbital Energies and Occupations

         #    Occupation            Energy/Eh            Energy/eV
      -------------------------------------------------------------
         1        2.0000           -0.8378916             -22.8002
       ...           ...                  ...                  ...
        73        2.0000           -0.5238626             -14.2550
        74        2.0000           -0.5226612             -14.2223
        75        2.0000           -0.5204661             -14.1626
        76        2.0000           -0.5192633             -14.1299
        77        2.0000           -0.5020878             -13.6625
        78        2.0000           -0.4998399             -13.6013
        79        2.0000           -0.4995412             -13.5932
        80        2.0000           -0.4983650             -13.5612
        81        2.0000           -0.4964578             -13.5093
        82        2.0000           -0.4957615             -13.4904
        83        2.0000           -0.4941748             -13.4472
        84        2.0000           -0.4929098             -13.4128
        85        2.0000           -0.4918223             -13.3832 (HOMO)
        86                         -0.2944130              -8.0114 (LUMO)
        87                         -0.2795116              -7.6059
        88                         -0.2631823              -7.1616
        89                         -0.1907190              -5.1897
        90                         -0.1095993              -2.9823
        91                         -0.0716049              -1.9485
        92                         -0.0537539              -1.4627
        93                         -0.0499357              -1.3588
        94                         -0.0429565              -1.1689
        95                         -0.0373356              -1.0160
        96                         -0.0322944              -0.8788
       ...                                ...                  ...
       175                          0.8033696              21.8608
      -------------------------------------------------------------
                  HL-Gap            0.1974093 Eh            5.3718 eV

     #   Z          covCN         q      C6AA      α(0)
     1   6 C        3.751    -0.105    22.565     6.774
     2   6 C        3.799    -0.054    21.546     6.609
     3   6 C        3.800    -0.060    21.656     6.626
     4   6 C        3.800    -0.061    21.670     6.628
     5   6 C        3.800    -0.060    21.651     6.625
     6   6 C        3.800    -0.067    21.779     6.644
     7   6 C        3.854    -0.062    21.650     6.618
     8   6 C        3.750    -0.067    21.847     6.666
     9  15 P        3.892     0.178   152.557    22.187
    10   6 C        3.750    -0.078    22.046     6.696
    11   6 C        3.839    -0.065    21.715     6.629
    12   6 C        3.800    -0.064    21.726     6.636
    13   6 C        3.800    -0.059    21.632     6.622
    14   6 C        3.800    -0.061    21.665     6.627
    15   6 C        3.801    -0.061    21.667     6.627
    16   6 C        3.799    -0.054    21.547     6.609
    17   6 C        3.751    -0.105    22.566     6.774
    18   6 C        3.750    -0.075    21.997     6.689
    19   6 C        3.839    -0.063    21.676     6.623
    20   6 C        3.801    -0.065    21.742     6.639
    21   6 C        3.800    -0.059    21.641     6.623
    22   6 C        3.800    -0.061    21.671     6.628
    23   6 C        3.800    -0.061    21.665     6.627
    24   6 C        3.799    -0.054    21.543     6.608
    25   6 C        3.751    -0.105    22.566     6.774
    26   6 C        3.749    -0.075    22.007     6.691
    27   6 C        3.828    -0.059    21.606     6.614
    28   6 C        3.751    -0.110    22.674     6.791
    29   1 H        0.925     0.033     2.538     2.491
    30   1 H        0.925     0.038     2.471     2.458
    31   1 H        0.925     0.039     2.463     2.454
    32   1 H        0.924     0.028     2.616     2.529
    33   1 H        0.924     0.034     2.528     2.486
    34   1 H        0.924     0.025     2.662     2.551
    35   1 H        0.924     0.038     2.473     2.459
    36   1 H        0.924     0.024     2.672     2.556
    37   1 H        0.924     0.044     2.392     2.419
    38   1 H        0.924     0.020     2.739     2.588
    39   1 H        0.924     0.049     2.339     2.392
    40   1 H        0.924     0.035     2.516     2.481
    41   1 H        0.924     0.055     2.259     2.350
    42   1 H        0.924     0.046     2.376     2.410
    43   1 H        0.924     0.065     2.136     2.286
    44   1 H        0.928     0.088     1.897     2.154
    45   1 H        0.926     0.097     1.809     2.104
    46   1 H        0.927     0.086     1.916     2.165
    47   1 H        0.927     0.078     2.000     2.211
    48   1 H        0.924     0.068     2.106     2.270
    49   1 H        0.924     0.049     2.332     2.388
    50   1 H        0.924     0.057     2.230     2.335
    51   1 H        0.924     0.027     2.624     2.533
    52   1 H        0.924     0.047     2.361     2.403
    53   1 H        0.924     0.016     2.798     2.616
    54   1 H        0.924     0.045     2.389     2.417
    55   1 H        0.924     0.025     2.655     2.548
    56   1 H        0.924     0.039     2.457     2.451
    57   1 H        0.924     0.027     2.636     2.539
    58   1 H        0.924     0.035     2.515     2.480
    59   1 H        0.924     0.027     2.622     2.532
    60   1 H        0.925     0.039     2.457     2.451
    61   1 H        0.925     0.039     2.465     2.455
    62   1 H        0.925     0.033     2.549     2.497
    63   1 H        0.926     0.089     1.891     2.150
    64   1 H        0.927     0.091     1.874     2.140
    65   1 H        0.924     0.069     2.097     2.265
    66   1 H        0.924     0.043     2.407     2.426
    67   1 H        0.925     0.055     2.259     2.351
    68   1 H        0.924     0.031     2.569     2.506
    69   1 H        0.924     0.046     2.364     2.405
    70   1 H        0.924     0.021     2.725     2.582
    71   1 H        0.924     0.045     2.387     2.416
    72   1 H        0.924     0.026     2.637     2.540
    73   1 H        0.924     0.040     2.454     2.450
    74   1 H        0.924     0.026     2.645     2.543
    75   1 H        0.924     0.035     2.523     2.484
    76   1 H        0.924     0.026     2.639     2.540
    77   1 H        0.925     0.040     2.453     2.449
    78   1 H        0.925     0.038     2.477     2.461
    79   1 H        0.925     0.033     2.544     2.494
    80   1 H        0.926     0.091     1.871     2.139
    81   1 H        0.929     0.082     1.956     2.187
    82   1 H        0.924     0.062     2.178     2.308
    83   1 H        0.924     0.055     2.260     2.351
    84   1 H        0.925     0.049     2.338     2.391
    85   1 H        0.925     0.059     2.210     2.325
    86   1 H        0.925     0.042     2.424     2.435

Wiberg/Mayer (AO) data.
largest (>0.10) Wiberg bond orders for each atom

     #   Z sym  total        # sym  WBO       # sym  WBO       # sym  WBO
 ---------------------------------------------------------------------------
     1   6 C    3.996 --     2 C    1.020    31 H    0.987    30 H    0.987
                            29 H    0.986
     2   6 C    3.998 --     1 C    1.020     3 C    1.008    33 H    0.978
                            32 H    0.976
     3   6 C    3.997 --     2 C    1.008     4 C    1.007    35 H    0.976
                            34 H    0.976
     4   6 C    3.996 --     3 C    1.007     5 C    1.007    36 H    0.975
                            37 H    0.974
     5   6 C    3.996 --     6 C    1.007     4 C    1.007    39 H    0.973
                            38 H    0.972
     6   6 C    3.993 --     5 C    1.007     7 C    1.006    41 H    0.970
                            40 H    0.968
     7   6 C    3.987 --     6 C    1.006     8 C    0.980    43 H    0.968
                            42 H    0.963
     8   6 C    3.985 --     9 P    1.003     7 C    0.980    44 H    0.928
                            45 H    0.927
     9  15 P    4.554 --    10 C    1.008    26 C    1.005     8 C    1.003
                            18 C    0.992
    10   6 C    3.989 --     9 P    1.008    11 C    0.991    47 H    0.936
                            46 H    0.932
    11   6 C    3.986 --    12 C    1.008    10 C    0.991    49 H    0.969
                            48 H    0.965
    12   6 C    3.994 --    11 C    1.008    13 C    1.007    50 H    0.971
                            51 H    0.963
    13   6 C    3.996 --    12 C    1.007    14 C    1.006    52 H    0.973
                            53 H    0.970
    14   6 C    3.996 --    15 C    1.008    13 C    1.006    55 H    0.975
                            54 H    0.974
    15   6 C    3.996 --    16 C    1.008    14 C    1.008    56 H    0.976
                            57 H    0.975
    16   6 C    3.998 --    17 C    1.020    15 C    1.008    58 H    0.978
                            59 H    0.976
    17   6 C    3.996 --    16 C    1.020    60 H    0.987    61 H    0.987
                            62 H    0.986
    18   6 C    3.984 --     9 P    0.992    19 C    0.990    64 H    0.931
                            63 H    0.930
    19   6 C    3.988 --    20 C    1.007    18 C    0.990    66 H    0.968
                            65 H    0.964
    20   6 C    3.994 --    21 C    1.007    19 C    1.007    67 H    0.971
                            68 H    0.959
    21   6 C    3.996 --    20 C    1.007    22 C    1.007    69 H    0.973
                            70 H    0.972
    22   6 C    3.995 --    23 C    1.008    21 C    1.007    71 H    0.974
                            72 H    0.973
    23   6 C    3.997 --    24 C    1.008    22 C    1.008    73 H    0.976
                            74 H    0.975
    24   6 C    3.998 --    25 C    1.020    23 C    1.008    75 H    0.978
                            76 H    0.976
    25   6 C    3.996 --    24 C    1.020    77 H    0.987    78 H    0.987
                            79 H    0.986
    26   6 C    3.988 --     9 P    1.005    27 C    0.991    80 H    0.933
                            81 H    0.931
    27   6 C    3.987 --    28 C    1.021    26 C    0.991    82 H    0.971
                            83 H    0.963
    28   6 C    3.993 --    27 C    1.021    84 H    0.984    85 H    0.983
                            86 H    0.976
    29   1 H    0.999 --     1 C    0.986
    30   1 H    0.999 --     1 C    0.987
    31   1 H    0.998 --     1 C    0.987
    32   1 H    0.999 --     2 C    0.976
    33   1 H    0.999 --     2 C    0.978
    34   1 H    0.999 --     3 C    0.976
    35   1 H    0.999 --     3 C    0.976
    36   1 H    0.999 --     4 C    0.975
    37   1 H    0.998 --     4 C    0.974
    38   1 H    1.000 --     5 C    0.972
    39   1 H    0.998 --     5 C    0.973
    40   1 H    0.999 --     6 C    0.968
    41   1 H    0.997 --     6 C    0.970
    42   1 H    0.998 --     7 C    0.963
    43   1 H    0.995 --     7 C    0.968
    44   1 H    0.992 --     8 C    0.928
    45   1 H    0.990 --     8 C    0.927
    46   1 H    0.992 --    10 C    0.932
    47   1 H    0.994 --    10 C    0.936
    48   1 H    0.995 --    11 C    0.965
    49   1 H    0.997 --    11 C    0.969
    50   1 H    0.997 --    12 C    0.971
    51   1 H    0.999 --    12 C    0.963
    52   1 H    0.998 --    13 C    0.973
    53   1 H    1.000 --    13 C    0.970
    54   1 H    0.998 --    14 C    0.974
    55   1 H    0.999 --    14 C    0.975
    56   1 H    0.998 --    15 C    0.976
    57   1 H    0.999 --    15 C    0.975
    58   1 H    0.999 --    16 C    0.978
    59   1 H    0.999 --    16 C    0.976
    60   1 H    0.998 --    17 C    0.987
    61   1 H    0.998 --    17 C    0.987
    62   1 H    0.999 --    17 C    0.986
    63   1 H    0.992 --    18 C    0.930
    64   1 H    0.992 --    18 C    0.931
    65   1 H    0.995 --    19 C    0.964
    66   1 H    0.998 --    19 C    0.968
    67   1 H    0.997 --    20 C    0.971
    68   1 H    0.999 --    20 C    0.959
    69   1 H    0.998 --    21 C    0.973
    70   1 H    1.000 --    21 C    0.972
    71   1 H    0.998 --    22 C    0.974
    72   1 H    0.999 --    22 C    0.973
    73   1 H    0.998 --    23 C    0.976
    74   1 H    0.999 --    23 C    0.975
    75   1 H    0.999 --    24 C    0.978
    76   1 H    0.999 --    24 C    0.976
    77   1 H    0.998 --    25 C    0.987
    78   1 H    0.999 --    25 C    0.987
    79   1 H    0.999 --    25 C    0.986
    80   1 H    0.991 --    26 C    0.933
    81   1 H    0.993 --    26 C    0.931
    82   1 H    0.996 --    27 C    0.971
    83   1 H    0.997 --    27 C    0.963
    84   1 H    0.998 --    28 C    0.984
    85   1 H    0.996 --    28 C    0.983
    86   1 H    0.998 --    28 C    0.976
 ---------------------------------------------------------------------------

molecular dipole:
                 x           y           z       tot (Debye)
 q only:       -7.931      -8.620       4.482
   full:       -8.063      -8.738       4.386      32.211

           -------------------------------------------------
          | TOTAL ENERGY              -89.574299637946 Eh   |
          | GRADIENT NORM               0.000263545376 Eh/α |
          | HOMO-LUMO GAP               5.371780087536 eV   |
           -------------------------------------------------

 * finished run on 2024/12/20 at 07:17:01.922
