   * xtb version 6.7.1 (edcfbbe) compiled by 'conda@3ef47c1a292c' on 2024-11-25

   ID    Z sym.   atoms
    1    6 C      1-5, 7-9, 11, 12, 14, 15, 17-26
    2    7 N      6, 10, 13
    3    8 O      16
    4    1 H      27-50

          program call               : xtb C1263.xyz --opt --namespace C1263 --charge +1
          :  Hamiltonian                  GFN2-xTB          :
 * total energy  :   -71.7646874 Eh     change       -0.1492566E-08 Eh
 * total energy  :   -71.7772115 Eh     change       -0.1252417E-01 Eh
 * total energy  :   -71.7811074 Eh     change       -0.3895884E-02 Eh
 * total energy  :   -71.7821465 Eh     change       -0.1039026E-02 Eh
 * total energy  :   -71.7830697 Eh     change       -0.9231978E-03 Eh
 * total energy  :   -71.7837508 Eh     change       -0.6811575E-03 Eh
 * total energy  :   -71.7846201 Eh     change       -0.8692698E-03 Eh
 * total energy  :   -71.7852989 Eh     change       -0.6788013E-03 Eh
 * total energy  :   -71.7860533 Eh     change       -0.7543863E-03 Eh
 * total energy  :   -71.7868235 Eh     change       -0.7701972E-03 Eh
 * total energy  :   -71.7902664 Eh     change       -0.4246040E-04 Eh
 * total energy  :   -71.7903134 Eh     change       -0.4694011E-04 Eh
 * total energy  :   -71.7903514 Eh     change       -0.3805114E-04 Eh
 * total energy  :   -71.7903891 Eh     change       -0.3765592E-04 Eh
 * total energy  :   -71.7904036 Eh     change       -0.1450047E-04 Eh
 * total energy  :   -71.7904104 Eh     change       -0.6863627E-05 Eh
 * total energy  :   -71.7904156 Eh     change       -0.5142193E-05 Eh
 * total energy  :   -71.7904231 Eh     change       -0.7497044E-05 Eh
 * total energy  :   -71.7904280 Eh     change       -0.4956885E-05 Eh
   *** GEOMETRY OPTIMIZATION CONVERGED AFTER 37 ITERATIONS ***

 final structure:
================
50
 xtb: 6.7.1 (edcfbbe)
C            1.67522723571907       -1.15649678347201       -1.61376257011149
C            0.82020309552638       -2.33610689023086       -1.16367638602967
C            1.11078409874661       -2.76807518183837        0.27420810441986
C            0.53946159578706       -1.80409629277762        1.33717556914870
C           -0.93831542738921       -1.90038808330456        1.40997647826595
N           -1.81334418555941       -1.06784109090700        0.82010988262696
C           -1.54086998932404        0.21015164107728        0.20306441677335
C           -1.72015972255277        1.35055837236932        1.22407957188839
C           -0.94629967070851        1.06269531663412        2.40628287153184
N           -0.33634135155108        0.74234254937105        3.31739758937732
C           -3.09203562606277       -1.55223812561058        1.03115407097396
C           -2.95650918820578       -2.73777454087328        1.77035203817977
N           -1.60070491875319       -2.90615504223530        1.99533675355132
C           -1.04635710047914       -4.01207261239812        2.73480390710988
C           -1.71562748122899       -4.21942911606725        4.12562817194894
O           -2.46502636444944       -5.15614592425195        4.26147410863701
C           -1.35970392876850       -3.30322105084689        5.21047054512657
C           -0.71770468183863       -2.07673986339407        5.02205216968294
C           -0.41031407878079       -1.27896804509656        6.10653420716358
C           -0.72377423103550       -1.69450664071205        7.39242556716134
C           -1.36705475779934       -2.90696805460073        7.59287877565003
C           -1.69049082192519       -3.70169785583967        6.51249795586627
C           -4.06227053543211       -3.50767228185357        2.10983019957608
C           -5.29525386857334       -3.03807826007159        1.70414730343009
C           -5.43169378664816       -1.84959882570478        0.98372662178653
C           -4.33711275530297       -1.08629890950823        0.63074609122169
H            1.54752932019250       -0.28467969017923       -0.97470551434897
H            1.41698099738003       -0.87118360838911       -2.62975644579821
H            2.72715669640194       -1.42865636658704       -1.59689101305650
H           -0.24185437010088       -2.10302243278419       -1.27840142175161
H            1.03421977064794       -3.18039841483669       -1.82042025224555
H            0.70659037519246       -3.76783608242909        0.44030620403820
H            2.19066397476630       -2.81914129426770        0.41490568167035
H            0.97133224286314       -2.05468272482892        2.30772996328155
H            0.84701170961597       -0.78465106584155        1.11317057704128
H           -0.52561677641905        0.21343108580022       -0.19501923408461
H           -2.23600736420110        0.34609057183050       -0.62827151203032
H           -1.38951827203568        2.29621447117724        0.78961522782172
H           -2.76942119497136        1.44859602666553        1.51619897533937
H           -1.22225168872288       -4.93716421686454        2.17412350706031
H            0.02570645214357       -3.87445295353868        2.87291940783528
H           -0.47547649785831       -1.71325869082431        4.03651445552892
H            0.07511713681147       -0.32994442968990        5.94153659683650
H           -0.46958125307153       -1.07213771966320        8.23653297322863
H           -1.61672465034775       -3.22975316300999        8.59187415117445
H           -2.18976546776575       -4.64903256277827        6.64865668580398
H           -3.96927183217799       -4.42938400638551        2.65897478735951
H           -6.17849946583882       -3.60705609759417        1.94559077808313
H           -6.41676498051306       -1.52443457631174        0.68952601762117
H           -4.45467641539831       -0.17849046653084        0.06149538862957

          :  Hamiltonian                  GFN2-xTB          :
         :: total energy             -71.790428027843 Eh    ::
         :: gradient norm              0.000753805465 Eh/a0 ::
         :: HOMO-LUMO gap              2.834520529274 eV    ::
         :: SCC energy               -72.991273239126 Eh    ::
         :: -> dispersion             -0.057422418354 Eh    ::
         :: repulsion energy           1.200845211284 Eh    ::

    * Orbital Energies and Occupations

         #    Occupation            Energy/Eh            Energy/eV
      -------------------------------------------------------------
         1        2.0000           -0.8726006             -23.7447
       ...           ...                  ...                  ...
        54        2.0000           -0.5735426             -15.6069
        55        2.0000           -0.5639927             -15.3470
        56        2.0000           -0.5599307             -15.2365
        57        2.0000           -0.5550168             -15.1028
        58        2.0000           -0.5543332             -15.0842
        59        2.0000           -0.5478580             -14.9080
        60        2.0000           -0.5426627             -14.7666
        61        2.0000           -0.5411709             -14.7260
        62        2.0000           -0.5390080             -14.6672
        63        2.0000           -0.5258667             -14.3096
        64        2.0000           -0.5172131             -14.0741
        65        2.0000           -0.5131143             -13.9626
        66        2.0000           -0.5117935             -13.9266 (HOMO)
        67                         -0.4076268             -11.0921 (LUMO)
        68                         -0.3970805             -10.8051
        69                         -0.3574437              -9.7265
        70                         -0.3510212              -9.5518
        71                         -0.3379354              -9.1957
        72                         -0.3321917              -9.0394
        73                         -0.3300208              -8.9803
        74                         -0.3055919              -8.3156
        75                         -0.2312008              -6.2913
        76                         -0.1961361              -5.3371
        77                         -0.1772373              -4.8229
       ...                                ...                  ...
       128                          1.0158947              27.6439
      -------------------------------------------------------------
                  HL-Gap            0.1041667 Eh            2.8345 eV

     #   Z          covCN         q      C6AA      α(0)
     1   6 C        3.752    -0.110    22.668     6.790
     2   6 C        3.800    -0.059    21.635     6.623
     3   6 C        3.803    -0.064    21.723     6.636
     4   6 C        3.803    -0.074    21.906     6.663
     5   6 C        3.060     0.120    25.307     8.250
     6   7 N        2.830    -0.004    21.329     6.859
     7   6 C        3.748    -0.005    20.725     6.493
     8   6 C        3.804    -0.065    21.741     6.638
     9   6 C        1.900     0.115    28.275     8.588
    10   7 N        0.911    -0.220    25.803     7.347
    11   6 C        3.092     0.037    27.066     8.527
    12   6 C        3.090     0.040    27.010     8.519
    13   7 N        2.830     0.015    20.994     6.805
    14   6 C        3.738    -0.041    21.397     6.601
    15   6 C        2.819     0.225    23.265     7.903
    16   8 O        0.858    -0.335    20.418     6.058
    17   6 C        2.969    -0.020    28.499     8.757
    18   6 C        2.920    -0.029    28.717     8.788
    19   6 C        2.917    -0.022    28.564     8.764
    20   6 C        2.920    -0.010    28.260     8.718
    21   6 C        2.916    -0.019    28.476     8.751
    22   6 C        2.928    -0.011    28.299     8.724
    23   6 C        2.909    -0.034    28.846     8.807
    24   6 C        2.926    -0.019    28.477     8.751
    25   6 C        2.926    -0.019    28.492     8.754
    26   6 C        2.909    -0.039    28.957     8.824
    27   1 H        0.925     0.027     2.626     2.534
    28   1 H        0.925     0.051     2.305     2.374
    29   1 H        0.925     0.054     2.275     2.359
    30   1 H        0.924     0.024     2.679     2.560
    31   1 H        0.924     0.056     2.244     2.343
    32   1 H        0.924     0.045     2.387     2.416
    33   1 H        0.925     0.071     2.073     2.252
    34   1 H        0.924     0.082     1.957     2.188
    35   1 H        0.925     0.079     1.985     2.203
    36   1 H        0.924     0.087     1.913     2.163
    37   1 H        0.924     0.087     1.910     2.161
    38   1 H        0.924     0.102     1.766     2.078
    39   1 H        0.924     0.091     1.866     2.136
    40   1 H        0.924     0.098     1.806     2.102
    41   1 H        0.925     0.086     1.917     2.165
    42   1 H        0.926     0.031     2.568     2.506
    43   1 H        0.926     0.067     2.117     2.275
    44   1 H        0.926     0.062     2.170     2.304
    45   1 H        0.926     0.063     2.169     2.303
    46   1 H        0.926     0.073     2.048     2.238
    47   1 H        0.926     0.091     1.868     2.138
    48   1 H        0.926     0.080     1.978     2.199
    49   1 H        0.926     0.076     2.017     2.221
    50   1 H        0.926     0.061     2.186     2.312

Wiberg/Mayer (AO) data.
largest (>0.10) Wiberg bond orders for each atom

     #   Z sym  total        # sym  WBO       # sym  WBO       # sym  WBO
 ---------------------------------------------------------------------------
     1   6 C    3.994 --     2 C    1.021    29 H    0.986    28 H    0.985
                            27 H    0.981
     2   6 C    3.995 --     1 C    1.021     3 C    1.009    30 H    0.977
                            31 H    0.974
     3   6 C    3.980 --     2 C    1.009    32 H    0.976    33 H    0.970
                             4 C    0.962
     4   6 C    3.979 --     5 C    1.031     3 C    0.962    35 H    0.958
                            34 H    0.946
     5   6 C    3.948 --    13 N    1.335     6 N    1.309     4 C    1.031
     6   7 N    3.641 --     5 C    1.309    11 C    1.112     7 C    0.981
     7   6 C    3.953 --     6 N    0.981     8 C    0.966    37 H    0.962
                            36 H    0.959
     8   6 C    3.990 --     9 C    1.053     7 C    0.966    39 H    0.942
                            38 H    0.939
     9   6 C    3.948 --    10 N    2.855     8 C    1.053
    10   7 N    3.015 --     9 C    2.855
    11   6 C    3.952 --    26 C    1.346    12 C    1.281     6 N    1.112
    12   6 C    3.952 --    23 C    1.345    11 C    1.281    13 N    1.113
    13   7 N    3.665 --     5 C    1.335    12 C    1.113    14 C    0.981
    14   6 C    3.942 --    13 N    0.981    41 H    0.956    40 H    0.953
                            15 C    0.921
    15   6 C    3.930 --    16 O    1.831    17 C    1.072    14 C    0.921
    16   8 O    2.098 --    15 C    1.831
    17   6 C    3.986 --    18 C    1.361    22 C    1.351    15 C    1.072
    18   6 C    3.992 --    19 C    1.467    17 C    1.361    42 H    0.962
                            21 C    0.102
    19   6 C    3.989 --    18 C    1.467    20 C    1.422    43 H    0.967
                            22 C    0.101
    20   6 C    3.986 --    21 C    1.427    19 C    1.422    44 H    0.969
    21   6 C    3.989 --    22 C    1.465    20 C    1.427    45 H    0.967
                            18 C    0.102
    22   6 C    3.984 --    21 C    1.465    17 C    1.351    46 H    0.964
                            19 C    0.101
    23   6 C    3.981 --    24 C    1.488    12 C    1.345    47 H    0.957
                            26 C    0.118
    24   6 C    3.984 --    23 C    1.488    25 C    1.385    48 H    0.966
    25   6 C    3.984 --    26 C    1.486    24 C    1.385    49 H    0.967
    26   6 C    3.985 --    25 C    1.486    11 C    1.346    50 H    0.964
                            23 C    0.118
    27   1 H    0.999 --     1 C    0.981
    28   1 H    0.997 --     1 C    0.985
    29   1 H    0.997 --     1 C    0.986
    30   1 H    0.999 --     2 C    0.977
    31   1 H    0.996 --     2 C    0.974
    32   1 H    0.998 --     3 C    0.976
    33   1 H    0.994 --     3 C    0.970
    34   1 H    0.992 --     4 C    0.946
    35   1 H    0.993 --     4 C    0.958
    36   1 H    0.992 --     7 C    0.959
    37   1 H    0.992 --     7 C    0.962
    38   1 H    0.988 --     8 C    0.939
    39   1 H    0.992 --     8 C    0.942
    40   1 H    0.990 --    14 C    0.953
    41   1 H    0.992 --    14 C    0.956
    42   1 H    0.999 --    18 C    0.962
    43   1 H    0.995 --    19 C    0.967
    44   1 H    0.996 --    20 C    0.969
    45   1 H    0.995 --    21 C    0.967
    46   1 H    0.995 --    22 C    0.964
    47   1 H    0.991 --    23 C    0.957
    48   1 H    0.993 --    24 C    0.966
    49   1 H    0.994 --    25 C    0.967
    50   1 H    0.996 --    26 C    0.964
 ---------------------------------------------------------------------------

molecular dipole:
                 x           y           z       tot (Debye)
 q only:       -2.917      -2.628       2.925
   full:       -2.977      -2.320       2.493      11.498

           -------------------------------------------------
          | TOTAL ENERGY              -71.790428027843 Eh   |
          | GRADIENT NORM               0.000753805465 Eh/α |
          | HOMO-LUMO GAP               2.834520529274 eV   |
           -------------------------------------------------

 * finished run on 2024/12/20 at 07:16:51.459
