   * xtb version 6.7.1 (edcfbbe) compiled by 'conda@3ef47c1a292c' on 2024-11-25

   ID    Z sym.   atoms
    1   35 Br     1
    2    6 C      2, 5, 6, 9, 10
    3    7 N      3, 7
    4    8 O      4, 8
    5    1 H      11-18

          program call               : xtb C1261.xyz --opt --namespace C1261 --charge +1
          :  Hamiltonian                  GFN2-xTB          :
 * total energy  :   -32.3460479 Eh     change       -0.5526601E-10 Eh
 * total energy  :   -32.3501570 Eh     change       -0.4109129E-02 Eh
 * total energy  :   -32.3513791 Eh     change       -0.1222047E-02 Eh
 * total energy  :   -32.3514113 Eh     change       -0.3222088E-04 Eh
 * total energy  :   -32.3514216 Eh     change       -0.1030033E-04 Eh
 * total energy  :   -32.3514230 Eh     change       -0.1355681E-05 Eh
   *** GEOMETRY OPTIMIZATION CONVERGED AFTER 6 ITERATIONS ***

 final structure:
================
18
 xtb: 6.7.1 (edcfbbe)
Br           1.08494300044386        0.07566822531194       -0.04836906851106
C            2.96217217575908        0.04469146365972       -0.05917945342636
N            3.77690105611609        1.11019314080173       -0.06542506159098
O            3.41994720322016        2.41231243924631       -0.06544005182745
C            5.07896972699513        0.69861825131503       -0.07233862023604
C            5.05751561230719       -0.67939286106397       -0.07016779016231
N            3.74180375678490       -1.04741391426088       -0.06204167566778
O            3.33065067908097       -2.33443348832544       -0.05770333090593
C            6.15703376015021       -1.66743328387626       -0.07484908169442
C            6.19884585516035        1.65966694421596       -0.08038503227812
H            2.45038189005769        2.50619227840400       -0.05880896451310
H            2.35792579679281       -2.38517055911502       -0.05271086687557
H            6.77956609527679       -1.54209492371560       -0.95886991047794
H            6.78947650707593       -1.53933344401533        0.80171416217044
H            5.74867051308035       -2.67383106135639       -0.07097443959238
H            6.13847588577461        2.30262109316565       -0.95746197895629
H            6.15034792564219        2.30361224158354        0.79670938462966
H            7.14652256028166        1.13226745802501       -0.08644822008439

          :  Hamiltonian                  GFN2-xTB          :
         :: total energy             -32.351422969941 Eh    ::
         :: gradient norm              0.000386206100 Eh/a0 ::
         :: HOMO-LUMO gap              3.686835999812 eV    ::
         :: SCC energy               -32.669338973413 Eh    ::
         :: -> dispersion             -0.014723242571 Eh    ::
         :: repulsion energy           0.317916003471 Eh    ::

    * Orbital Energies and Occupations

         #    Occupation            Energy/Eh            Energy/eV
      -------------------------------------------------------------
         1        2.0000           -1.0250879             -27.8941
       ...           ...                  ...                  ...
        16        2.0000           -0.7140006             -19.4289
        17        2.0000           -0.7040096             -19.1571
        18        2.0000           -0.6744527             -18.3528
        19        2.0000           -0.6594344             -17.9441
        20        2.0000           -0.6587521             -17.9256
        21        2.0000           -0.6555710             -17.8390
        22        2.0000           -0.6395696             -17.4036
        23        2.0000           -0.6235321             -16.9672
        24        2.0000           -0.6175053             -16.8032
        25        2.0000           -0.6111370             -16.6299
        26        2.0000           -0.6104425             -16.6110
        27        2.0000           -0.5974074             -16.2563
        28        2.0000           -0.5645914             -15.3633 (HOMO)
        29                         -0.4291026             -11.6765 (LUMO)
        30                         -0.4005459             -10.8994
        31                         -0.3776010             -10.2750
        32                         -0.2906942              -7.9102
        33                         -0.2260875              -6.1522
        34                         -0.2101479              -5.7184
        35                         -0.1732185              -4.7135
        36                         -0.1522339              -4.1425
        37                         -0.1086392              -2.9562
        38                         -0.0688992              -1.8748
        39                         -0.0662491              -1.8027
       ...                                ...                  ...
        53                          0.4137769              11.2594
      -------------------------------------------------------------
                  HL-Gap            0.1354887 Eh            3.6868 eV

     #   Z          covCN         q      C6AA      α(0)
     1  35 Br       0.989    -0.029   185.774    21.976
     2   6 C        2.986     0.084    26.124     8.384
     3   7 N        2.919     0.171    18.381     6.368
     4   8 O        1.724    -0.278    18.605     5.824
     5   6 C        3.071     0.032    27.206     8.552
     6   6 C        3.068     0.033    27.198     8.551
     7   7 N        2.920     0.172    18.368     6.365
     8   8 O        1.724    -0.280    18.642     5.830
     9   6 C        3.755    -0.134    23.131     6.858
    10   6 C        3.755    -0.132    23.099     6.853
    11   1 H        0.804     0.359     0.567     1.183
    12   1 H        0.804     0.360     0.566     1.182
    13   1 H        0.925     0.106     1.729     2.056
    14   1 H        0.925     0.106     1.729     2.056
    15   1 H        0.925     0.109     1.703     2.041
    16   1 H        0.925     0.110     1.699     2.038
    17   1 H        0.925     0.110     1.699     2.038
    18   1 H        0.925     0.102     1.771     2.081

Wiberg/Mayer (AO) data.
largest (>0.10) Wiberg bond orders for each atom

     #   Z sym  total        # sym  WBO       # sym  WBO       # sym  WBO
 ---------------------------------------------------------------------------
     1  35 Br   1.264 --     2 C    1.059
     2   6 C    3.908 --     3 N    1.260     7 N    1.260     1 Br   1.059
     3   7 N    3.690 --     2 C    1.260     5 C    1.173     4 O    1.032
     4   8 O    2.050 --     3 N    1.032    11 H    0.850
     5   6 C    3.927 --     6 C    1.454     3 N    1.173    10 C    1.047
     6   6 C    3.927 --     5 C    1.454     7 N    1.174     9 C    1.044
     7   7 N    3.690 --     2 C    1.260     6 C    1.174     8 O    1.031
     8   8 O    2.047 --     7 N    1.031    12 H    0.848
     9   6 C    3.966 --     6 C    1.044    15 H    0.970    13 H    0.951
                            14 H    0.951
    10   6 C    3.967 --     5 C    1.047    18 H    0.972    16 H    0.949
                            17 H    0.949
    11   1 H    0.871 --     4 O    0.850
    12   1 H    0.870 --     8 O    0.848
    13   1 H    0.988 --     9 C    0.951
    14   1 H    0.988 --     9 C    0.951
    15   1 H    0.987 --     9 C    0.970
    16   1 H    0.987 --    10 C    0.949
    17   1 H    0.987 --    10 C    0.949
    18   1 H    0.989 --    10 C    0.972
 ---------------------------------------------------------------------------

molecular dipole:
                 x           y           z       tot (Debye)
 q only:        7.899       0.079      -0.125
   full:        7.022       0.106      -0.120      17.853

           -------------------------------------------------
          | TOTAL ENERGY              -32.351422969941 Eh   |
          | GRADIENT NORM               0.000386206100 Eh/α |
          | HOMO-LUMO GAP               3.686835999812 eV   |
           -------------------------------------------------

 * finished run on 2024/12/20 at 07:16:47.419
