   * xtb version 6.7.1 (edcfbbe) compiled by 'conda@3ef47c1a292c' on 2024-11-25

   ID    Z sym.   atoms
    1    6 C      1-4, 6, 8-11, 13, 14
    2    7 N      5, 7, 12
    3    1 H      15-38

          program call               : xtb C1268.xyz --opt --namespace C1268 --charge +1
          :  Hamiltonian                  GFN2-xTB          :
 * total energy  :   -44.1884965 Eh     change       -0.9864465E-10 Eh
 * total energy  :   -44.2017736 Eh     change       -0.1327708E-01 Eh
 * total energy  :   -44.2049589 Eh     change       -0.3185347E-02 Eh
 * total energy  :   -44.2054685 Eh     change       -0.5095241E-03 Eh
 * total energy  :   -44.2061215 Eh     change       -0.6530361E-03 Eh
 * total energy  :   -44.2064098 Eh     change       -0.2882893E-03 Eh
 * total energy  :   -44.2067481 Eh     change       -0.3383292E-03 Eh
 * total energy  :   -44.2069885 Eh     change       -0.2403810E-03 Eh
 * total energy  :   -44.2071323 Eh     change       -0.1438198E-03 Eh
 * total energy  :   -44.2071856 Eh     change       -0.5326547E-04 Eh
 * total energy  :   -44.2080227 Eh     change       -0.3809933E-04 Eh
 * total energy  :   -44.2080604 Eh     change       -0.3772448E-04 Eh
 * total energy  :   -44.2080782 Eh     change       -0.1780086E-04 Eh
 * total energy  :   -44.2080980 Eh     change       -0.1980846E-04 Eh
 * total energy  :   -44.2081057 Eh     change       -0.7727121E-05 Eh
 * total energy  :   -44.2081058 Eh     change       -0.4085991E-07 Eh
 * total energy  :   -44.2081128 Eh     change       -0.7068806E-05 Eh
 * total energy  :   -44.2081194 Eh     change       -0.6569534E-05 Eh
 * total energy  :   -44.2081227 Eh     change       -0.3310071E-05 Eh
   *** GEOMETRY OPTIMIZATION CONVERGED AFTER 41 ITERATIONS ***

 final structure:
================
38
 xtb: 6.7.1 (edcfbbe)
C            1.82132323670717        0.42380705341100       -0.52151911125997
C            0.76248840888762        0.46366717799049       -1.61673104665596
C            0.71871675787842       -0.81686563718227       -2.45592460721189
C            0.21246809580602       -2.05880167207057       -1.70330796934817
N           -1.22829852847152       -2.24796939373419       -1.82852552575280
C           -1.73888089373262       -3.20315563936238       -2.60783610319895
N           -0.85777709213865       -4.13958781201528       -3.12498536670265
C           -0.02799393431435       -3.74277009655670       -4.26023106071364
C           -1.38141133024557       -5.49477393943771       -3.24913208894672
C           -2.70583791641177       -5.48840222645224       -3.99624081771021
C           -3.65894681514977       -4.60567018661317       -3.20720297896386
N           -3.05687910976884       -3.32524250431107       -2.83649145805280
C           -4.00059936895966       -2.22266032330259       -2.83583895982512
C           -2.01537733863273       -1.47753117611424       -0.88362535549882
H            1.61428132484423       -0.34589740319106        0.21834896771560
H            1.85564361309253        1.37906494423099       -0.00553429311823
H            2.80288473695858        0.23235002287929       -0.94723381182533
H           -0.21378118760590        0.66687233549559       -1.17475571367665
H            0.99193515814752        1.29214565458377       -2.28871554255256
H            0.08682855034774       -0.64230145255184       -3.33039624456799
H            1.72925340472121       -1.01912230367105       -2.81374969749932
H            0.71172448265527       -2.95821685587556       -2.05678846125506
H            0.44533029191801       -1.95466679848621       -0.64270277010574
H            0.92519187073816       -4.26716471265107       -4.20244726433085
H           -0.51264398070514       -4.00291414363827       -5.20596017168119
H            0.15392264975739       -2.67367226878311       -4.26007385749448
H           -1.51863098972164       -5.89541775116814       -2.24090433413241
H           -0.63034225092492       -6.09874506907562       -3.75590806853682
H           -3.11529056513497       -6.49277650873554       -4.08034896636457
H           -2.56594573269799       -5.09109159741134       -5.00276953883303
H           -3.96284586049058       -5.11594255507439       -2.28524365740408
H           -4.55903373187707       -4.40619301235191       -3.78951197454687
H           -4.57187430702558       -2.27192341813689       -3.76508469770037
H           -4.70719887462502       -2.28509338009258       -2.00654506706838
H           -3.49125097694825       -1.26620807799588       -2.82317583275984
H           -1.42608335600953       -1.35823142415727        0.02468716867905
H           -2.25611272949642       -0.48001092316236       -1.25317808308178
H           -2.92766571136649       -2.00274692523134       -0.61627563801836

          :  Hamiltonian                  GFN2-xTB          :
         :: total energy             -44.208122725390 Eh    ::
         :: gradient norm              0.000496962931 Eh/a0 ::
         :: HOMO-LUMO gap              3.269638831370 eV    ::
         :: SCC energy               -44.817129042781 Eh    ::
         :: -> dispersion             -0.031812761350 Eh    ::
         :: repulsion energy           0.609006317391 Eh    ::

    * Orbital Energies and Occupations

         #    Occupation            Energy/Eh            Energy/eV
      -------------------------------------------------------------
         1        2.0000           -0.8490188             -23.1030
       ...           ...                  ...                  ...
        29        2.0000           -0.6101574             -16.6032
        30        2.0000           -0.6035495             -16.4234
        31        2.0000           -0.6014168             -16.3654
        32        2.0000           -0.5918826             -16.1059
        33        2.0000           -0.5851450             -15.9226
        34        2.0000           -0.5839109             -15.8890
        35        2.0000           -0.5806153             -15.7993
        36        2.0000           -0.5717967             -15.5594
        37        2.0000           -0.5497671             -14.9599
        38        2.0000           -0.5430357             -14.7768
        39        2.0000           -0.5383447             -14.6491
        40        2.0000           -0.5257459             -14.3063
        41        2.0000           -0.5154323             -14.0256 (HOMO)
        42                         -0.3952753             -10.7560 (LUMO)
        43                         -0.1932215              -5.2578
        44                         -0.1505027              -4.0954
        45                         -0.1352908              -3.6814
        46                         -0.0863867              -2.3507
        47                         -0.0645085              -1.7554
        48                         -0.0446510              -1.2150
        49                         -0.0438272              -1.1926
        50                         -0.0345699              -0.9407
        51                         -0.0274830              -0.7479
        52                         -0.0188610              -0.5132
       ...                                ...                  ...
        80                          0.3252779               8.8513
      -------------------------------------------------------------
                  HL-Gap            0.1201570 Eh            3.2696 eV

     #   Z          covCN         q      C6AA      α(0)
     1   6 C        3.752    -0.112    22.707     6.795
     2   6 C        3.799    -0.061    21.677     6.629
     3   6 C        3.800    -0.067    21.780     6.645
     4   6 C        3.750    -0.032    21.198     6.566
     5   7 N        2.739    -0.030    21.820     6.938
     6   6 C        2.786     0.195    23.838     7.997
     7   7 N        2.738    -0.134    23.896     7.260
     8   6 C        3.701    -0.055    21.732     6.666
     9   6 C        3.766    -0.011    20.807     6.501
    10   6 C        3.805    -0.076    21.946     6.669
    11   6 C        3.758    -0.013    20.863     6.512
    12   7 N        2.735    -0.055    22.300     7.014
    13   6 C        3.697    -0.070    22.008     6.710
    14   6 C        3.698    -0.072    22.043     6.715
    15   1 H        0.925     0.033     2.538     2.491
    16   1 H        0.925     0.052     2.289     2.366
    17   1 H        0.925     0.047     2.355     2.400
    18   1 H        0.924     0.036     2.501     2.473
    19   1 H        0.924     0.051     2.309     2.376
    20   1 H        0.924     0.037     2.489     2.467
    21   1 H        0.924     0.061     2.182     2.310
    22   1 H        0.925     0.082     1.958     2.188
    23   1 H        0.924     0.083     1.953     2.186
    24   1 H        0.925     0.073     2.049     2.239
    25   1 H        0.924     0.058     2.219     2.329
    26   1 H        0.925     0.068     2.111     2.272
    27   1 H        0.924     0.062     2.180     2.309
    28   1 H        0.925     0.077     2.005     2.214
    29   1 H        0.925     0.075     2.036     2.232
    30   1 H        0.924     0.060     2.194     2.316
    31   1 H        0.924     0.068     2.105     2.269
    32   1 H        0.924     0.078     1.999     2.211
    33   1 H        0.924     0.084     1.937     2.177
    34   1 H        0.924     0.075     2.034     2.230
    35   1 H        0.925     0.080     1.980     2.201
    36   1 H        0.925     0.093     1.853     2.129
    37   1 H        0.924     0.079     1.990     2.206
    38   1 H        0.925     0.078     2.001     2.212

Wiberg/Mayer (AO) data.
largest (>0.10) Wiberg bond orders for each atom

     #   Z sym  total        # sym  WBO       # sym  WBO       # sym  WBO
 ---------------------------------------------------------------------------
     1   6 C    3.994 --     2 C    1.021    17 H    0.986    16 H    0.985
                            15 H    0.983
     2   6 C    3.994 --     1 C    1.021     3 C    1.006    18 H    0.975
                            19 H    0.975
     3   6 C    3.989 --     2 C    1.006     4 C    0.988    20 H    0.973
                            21 H    0.972
     4   6 C    3.943 --     3 C    0.988     5 N    0.969    22 H    0.961
                            23 H    0.956
     5   7 N    3.581 --     6 C    1.360    14 C    0.989     4 C    0.969
                            12 N    0.121
     6   6 C    3.974 --     5 N    1.360    12 N    1.313     7 N    1.132
     7   7 N    3.286 --     6 C    1.132     9 C    0.977     8 C    0.969
     8   6 C    3.958 --    24 H    0.978    26 H    0.976    25 H    0.972
                             7 N    0.969
     9   6 C    3.969 --    10 C    1.002     7 N    0.977    27 H    0.970
                            28 H    0.969
    10   6 C    3.992 --    11 C    1.007     9 C    1.002    30 H    0.971
                            29 H    0.968
    11   6 C    3.956 --    10 C    1.007    12 N    0.968    32 H    0.966
                            31 H    0.961
    12   7 N    3.533 --     6 C    1.313    13 C    0.988    11 C    0.968
                             5 N    0.121
    13   6 C    3.951 --    12 N    0.988    35 H    0.975    34 H    0.972
                            33 H    0.966
    14   6 C    3.950 --     5 N    0.989    38 H    0.974    36 H    0.966
                            37 H    0.965
    15   1 H    0.999 --     1 C    0.983
    16   1 H    0.997 --     1 C    0.985
    17   1 H    0.998 --     1 C    0.986
    18   1 H    0.999 --     2 C    0.975
    19   1 H    0.997 --     2 C    0.975
    20   1 H    0.999 --     3 C    0.973
    21   1 H    0.995 --     3 C    0.972
    22   1 H    0.993 --     4 C    0.961
    23   1 H    0.992 --     4 C    0.956
    24   1 H    0.994 --     8 C    0.978
    25   1 H    0.996 --     8 C    0.972
    26   1 H    0.995 --     8 C    0.976
    27   1 H    0.996 --     9 C    0.970
    28   1 H    0.993 --     9 C    0.969
    29   1 H    0.994 --    10 C    0.968
    30   1 H    0.996 --    10 C    0.971
    31   1 H    0.995 --    11 C    0.961
    32   1 H    0.993 --    11 C    0.966
    33   1 H    0.992 --    13 C    0.966
    34   1 H    0.994 --    13 C    0.972
    35   1 H    0.993 --    13 C    0.975
    36   1 H    0.991 --    14 C    0.966
    37   1 H    0.993 --    14 C    0.965
    38   1 H    0.994 --    14 C    0.974
 ---------------------------------------------------------------------------

molecular dipole:
                 x           y           z       tot (Debye)
 q only:       -3.332      -5.545      -4.853
   full:       -3.548      -5.547      -4.967      20.965

           -------------------------------------------------
          | TOTAL ENERGY              -44.208122725390 Eh   |
          | GRADIENT NORM               0.000496962931 Eh/α |
          | HOMO-LUMO GAP               3.269638831370 eV   |
           -------------------------------------------------

 * finished run on 2024/12/20 at 07:17:04.371
