   * xtb version 6.7.1 (edcfbbe) compiled by 'conda@3ef47c1a292c' on 2024-11-25

   ID    Z sym.   atoms
    1    6 C      1, 3-9, 11, 13, 14, 16, 17
    2    8 O      2, 10
    3    7 N      12, 15
    4    1 H      18-32

          program call               : xtb C1262.xyz --opt --namespace C1262 --charge +1
          :  Hamiltonian                  GFN2-xTB          :
 * total energy  :   -49.0623775 Eh     change       -0.1034202E-08 Eh
 * total energy  :   -49.0696488 Eh     change       -0.7271319E-02 Eh
 * total energy  :   -49.0717938 Eh     change       -0.2144982E-02 Eh
 * total energy  :   -49.0721328 Eh     change       -0.3390451E-03 Eh
 * total energy  :   -49.0723018 Eh     change       -0.1689623E-03 Eh
 * total energy  :   -49.0724064 Eh     change       -0.1046183E-03 Eh
 * total energy  :   -49.0725096 Eh     change       -0.1031702E-03 Eh
 * total energy  :   -49.0726213 Eh     change       -0.1117406E-03 Eh
 * total energy  :   -49.0727253 Eh     change       -0.1039962E-03 Eh
 * total energy  :   -49.0728182 Eh     change       -0.9287054E-04 Eh
 * total energy  :   -49.0832640 Eh     change       -0.2015116E-04 Eh
 * total energy  :   -49.0832732 Eh     change       -0.9267299E-05 Eh
 * total energy  :   -49.0832836 Eh     change       -0.1039880E-04 Eh
 * total energy  :   -49.0832992 Eh     change       -0.1553383E-04 Eh
 * total energy  :   -49.0833134 Eh     change       -0.1426863E-04 Eh
 * total energy  :   -49.0833242 Eh     change       -0.1075415E-04 Eh
 * total energy  :   -49.0833324 Eh     change       -0.8259698E-05 Eh
 * total energy  :   -49.0833390 Eh     change       -0.6557644E-05 Eh
 * total energy  :   -49.0833433 Eh     change       -0.4348423E-05 Eh
   *** GEOMETRY OPTIMIZATION CONVERGED AFTER 79 ITERATIONS ***

 final structure:
================
32
 xtb: 6.7.1 (edcfbbe)
C            0.25028527940694        2.64010870261881        0.37627845340354
O           -0.32705105476972        1.52765480119404        1.03125534922061
C            0.38451665540979        0.82541368398624        1.91182483951552
C           -0.27105144149491       -0.27092193987633        2.49924599387693
C            0.37783154582874       -1.06245436720616        3.40590287641238
C            1.71385409955945       -0.80439885265191        3.77019233624761
C            2.35806850361040        0.29758293847062        3.19346105618337
C            1.70842090563943        1.09908154410865        2.28305508385755
C            2.32834531330607       -1.70029168874482        4.72244786350677
O            1.76295012143519       -2.61293113664143        5.28927210650499
C            3.83993054291507       -1.47388741196885        5.05621264733978
N            4.30563418096264       -2.64579882264832        5.73196497853798
C            5.16971899993866       -3.58186929589635        5.24376224962250
C            5.12021910002675       -4.65277007304225        6.07995798664242
N            4.21522755953401       -4.36415006582685        7.05815975184063
C            3.72534452680707       -3.15065865106603        6.82176722871556
C            3.84106857755415       -5.24503483754643        8.13065036320958
H           -0.52542571815764        3.02455147082201       -0.28273618900832
H            1.11784898849658        2.34387731346584       -0.21930448600577
H            0.53774686801065        3.41722444422978        1.08920591043589
H           -1.29152269699998       -0.46577787601297        2.21214655518987
H           -0.12058807406111       -1.90660518530192        3.85673543557631
H            3.37271147860944        0.54862288215565        3.46083054788222
H            2.23165157997909        1.94113169430525        1.85942772098846
H            4.42702157956472       -1.31927630781326        4.15236756048276
H            3.91438523163324       -0.59503217323757        5.70236835859778
H            5.75139057727831       -3.42370022369259        4.35894759216518
H            5.65285552152252       -5.58096295578474        6.04431595595761
H            3.00128083823059       -2.64666689953776        7.43058988439170
H            4.72547488205941       -5.55650812702921        8.68688738252691
H            3.15370664940555       -4.73666908787373        8.80261321822903
H            3.35072887876619       -6.13342349594013        7.73003338798261

          :  Hamiltonian                  GFN2-xTB          :
         :: total energy             -49.083343343105 Eh    ::
         :: gradient norm              0.000267719232 Eh/a0 ::
         :: HOMO-LUMO gap              2.618335388481 eV    ::
         :: SCC energy               -49.801175223033 Eh    ::
         :: -> dispersion             -0.028171880114 Eh    ::
         :: repulsion energy           0.717831879929 Eh    ::

    * Orbital Energies and Occupations

         #    Occupation            Energy/Eh            Energy/eV
      -------------------------------------------------------------
         1        2.0000           -0.8782768             -23.8991
       ...           ...                  ...                  ...
        32        2.0000           -0.6025569             -16.3964
        33        2.0000           -0.5963499             -16.2275
        34        2.0000           -0.5932915             -16.1443
        35        2.0000           -0.5922344             -16.1155
        36        2.0000           -0.5881302             -16.0038
        37        2.0000           -0.5765079             -15.6876
        38        2.0000           -0.5684519             -15.4684
        39        2.0000           -0.5588503             -15.2071
        40        2.0000           -0.5579791             -15.1834
        41        2.0000           -0.5320416             -14.4776
        42        2.0000           -0.5244407             -14.2708
        43        2.0000           -0.5229566             -14.2304
        44        2.0000           -0.4948992             -13.4669 (HOMO)
        45                         -0.3986771             -10.8486 (LUMO)
        46                         -0.3874812             -10.5439
        47                         -0.3559787              -9.6867
        48                         -0.3365935              -9.1592
        49                         -0.3007581              -8.1840
        50                         -0.1971684              -5.3652
        51                         -0.1636617              -4.4535
        52                         -0.1138500              -3.0980
        53                         -0.0813100              -2.2126
        54                         -0.0691637              -1.8820
        55                         -0.0385491              -1.0490
       ...                                ...                  ...
        83                          0.5612350              15.2720
      -------------------------------------------------------------
                  HL-Gap            0.0962221 Eh            2.6183 eV

     #   Z          covCN         q      C6AA      α(0)
     1   6 C        3.644     0.021    20.567     6.519
     2   8 O        1.706    -0.218    17.621     5.668
     3   6 C        2.865     0.170    24.337     8.086
     4   6 C        2.915    -0.047    29.160     8.855
     5   6 C        2.925    -0.011    28.290     8.723
     6   6 C        2.969    -0.030    28.756     8.796
     7   6 C        2.918    -0.027    28.682     8.782
     8   6 C        2.913    -0.061    29.507     8.907
     9   6 C        2.823     0.223    23.320     7.913
    10   8 O        0.857    -0.373    21.155     6.167
    11   6 C        3.744    -0.051    21.557     6.624
    12   7 N        2.872     0.071    20.006     6.643
    13   6 C        3.065    -0.008    28.162     8.702
    14   6 C        3.069    -0.009    28.174     8.703
    15   7 N        2.866     0.076    19.923     6.629
    16   6 C        3.093     0.060    26.556     8.446
    17   6 C        3.692    -0.085    22.307     6.758
    18   1 H        0.925     0.087     1.908     2.160
    19   1 H        0.924     0.059     2.210     2.325
    20   1 H        0.924     0.060     2.203     2.321
    21   1 H        0.926     0.079     1.988     2.205
    22   1 H        0.926     0.079     1.986     2.204
    23   1 H        0.926     0.045     2.385     2.415
    24   1 H        0.926     0.060     2.194     2.316
    25   1 H        0.925     0.096     1.817     2.108
    26   1 H        0.924     0.097     1.808     2.103
    27   1 H        0.926     0.101     1.774     2.083
    28   1 H        0.926     0.106     1.731     2.057
    29   1 H        0.926     0.122     1.596     1.976
    30   1 H        0.924     0.102     1.763     2.077
    31   1 H        0.925     0.099     1.793     2.094
    32   1 H        0.924     0.106     1.727     2.055

Wiberg/Mayer (AO) data.
largest (>0.10) Wiberg bond orders for each atom

     #   Z sym  total        # sym  WBO       # sym  WBO       # sym  WBO
 ---------------------------------------------------------------------------
     1   6 C    3.925 --    18 H    0.977    19 H    0.974    20 H    0.974
                             2 O    0.966
     2   8 O    2.308 --     3 C    1.151     1 C    0.966
     3   6 C    3.938 --     8 C    1.315     4 C    1.296     2 O    1.151
     4   6 C    3.985 --     5 C    1.536     3 C    1.296    21 H    0.963
     5   6 C    3.984 --     4 C    1.536     6 C    1.300    22 H    0.963
     6   6 C    3.979 --     7 C    1.334     5 C    1.300     9 C    1.122
     7   6 C    3.991 --     8 C    1.505     6 C    1.334    23 H    0.966
     8   6 C    3.988 --     7 C    1.505     3 C    1.315    24 H    0.964
     9   6 C    3.923 --    10 O    1.765     6 C    1.122    11 C    0.910
    10   8 O    2.084 --     9 C    1.765
    11   6 C    3.945 --    12 N    0.998    25 H    0.959    26 H    0.945
                             9 C    0.910
    12   7 N    3.706 --    16 C    1.339    13 C    1.210    11 C    0.998
    13   6 C    3.948 --    14 C    1.604    12 N    1.210    27 H    0.962
    14   6 C    3.949 --    13 C    1.604    15 N    1.217    28 H    0.962
    15   7 N    3.714 --    16 C    1.358    14 C    1.217    17 C    0.991
    16   6 C    3.945 --    15 N    1.358    12 N    1.339    29 H    0.952
    17   6 C    3.936 --    15 N    0.991    31 H    0.976    30 H    0.966
                            32 H    0.961
    18   1 H    0.992 --     1 C    0.977
    19   1 H    0.995 --     1 C    0.974
    20   1 H    0.995 --     1 C    0.974
    21   1 H    0.993 --     4 C    0.963
    22   1 H    0.993 --     5 C    0.963
    23   1 H    0.998 --     7 C    0.966
    24   1 H    0.996 --     8 C    0.964
    25   1 H    0.990 --    11 C    0.959
    26   1 H    0.989 --    11 C    0.945
    27   1 H    0.989 --    13 C    0.962
    28   1 H    0.989 --    14 C    0.962
    29   1 H    0.985 --    16 C    0.952
    30   1 H    0.989 --    17 C    0.966
    31   1 H    0.990 --    17 C    0.976
    32   1 H    0.988 --    17 C    0.961
 ---------------------------------------------------------------------------

molecular dipole:
                 x           y           z       tot (Debye)
 q only:        7.111      -4.270      10.015
   full:        7.352      -4.033       9.983      33.139

           -------------------------------------------------
          | TOTAL ENERGY              -49.083343343105 Eh   |
          | GRADIENT NORM               0.000267719232 Eh/α |
          | HOMO-LUMO GAP               2.618335388481 eV   |
           -------------------------------------------------

 * finished run on 2024/12/20 at 07:16:49.106
