   * xtb version 6.7.1 (edcfbbe) compiled by 'conda@3ef47c1a292c' on 2024-11-25

   ID    Z sym.   atoms
    1    6 C      1-13, 15, 16, 18, 19
    2    7 N      14, 17
    3    1 H      20-52

          program call               : xtb C1264.xyz --opt --namespace C1264 --charge +1
          :  Hamiltonian                  GFN2-xTB          :
 * total energy  :   -58.7294460 Eh     change       -0.5910685E-08 Eh
 * total energy  :   -58.7332944 Eh     change       -0.3848474E-02 Eh
 * total energy  :   -58.7340767 Eh     change       -0.7823119E-03 Eh
 * total energy  :   -58.7342150 Eh     change       -0.1382284E-03 Eh
 * total energy  :   -58.7343123 Eh     change       -0.9737634E-04 Eh
 * total energy  :   -58.7343452 Eh     change       -0.3287937E-04 Eh
 * total energy  :   -58.7343897 Eh     change       -0.4443407E-04 Eh
 * total energy  :   -58.7344302 Eh     change       -0.4052797E-04 Eh
 * total energy  :   -58.7344528 Eh     change       -0.2265163E-04 Eh
 * total energy  :   -58.7344648 Eh     change       -0.1193932E-04 Eh
 * total energy  :   -58.7344581 Eh     change        0.6641562E-05 Eh
 * total energy  :   -58.7344694 Eh     change       -0.1127968E-04 Eh
 * total energy  :   -58.7344787 Eh     change       -0.9293708E-05 Eh
 * total energy  :   -58.7344853 Eh     change       -0.6611470E-05 Eh
 * total energy  :   -58.7345027 Eh     change       -0.1739790E-04 Eh
 * total energy  :   -58.7345124 Eh     change       -0.9652167E-05 Eh
 * total energy  :   -58.7345164 Eh     change       -0.3992762E-05 Eh
   *** GEOMETRY OPTIMIZATION CONVERGED AFTER 17 ITERATIONS ***

 final structure:
================
52
 xtb: 6.7.1 (edcfbbe)
C            1.05241478260028       -0.47679171327344        0.10798952996623
C            0.97103753084642        0.39771484083563        1.35341853356593
C            1.33917687722707        1.85892711845617        1.09061803698918
C            0.42231653541022        2.59064757240835        0.10777463718588
C           -1.05351681213978        2.63566336568633        0.50846818901849
C           -1.33679169845217        3.29567453014638        1.85920259014166
C           -0.88834280351175        4.75421051138725        1.97233754572809
C           -1.51792536660305        5.70586313462405        0.95265352675636
C           -3.04694604869299        5.75692552788460        0.97473539224287
C           -3.66074320097122        6.14824011027735        2.32122619017270
C           -3.21040214784406        7.50734278677589        2.86310665394767
C           -3.53126208726387        8.69932638214438        1.96162693857871
C           -5.03319440162598        8.94742121768304        1.77130258562404
N           -5.65444527715816        9.31134782532058        3.02312880685612
C           -5.67884642535298       10.56093145565703        3.56035466404680
C           -6.26438681911661       10.46495867514693        4.78700914314278
N           -6.58232663826794        9.15675837366777        4.98248028433301
C           -6.20028120912852        8.47693468741995        3.90216906757627
C           -7.22168559350168        8.60159488320143        6.14626479097194
H            0.31372425578854       -0.17864452697157       -0.63160924540577
H            0.86934988459181       -1.51717745492208        0.36660405842845
H            2.03982235025167       -0.40555449801795       -0.34272909358171
H           -0.03341028239998        0.33639478686512        1.77648224486695
H            1.66216115969683        0.00553800771435        2.10357814915753
H            1.35029067990752        2.39341653469211        2.04319489782082
H            2.35563891929461        1.89345372909386        0.69060174495565
H            0.79636245797345        3.60981794587010       -0.01376773528888
H            0.49233762892536        2.10946834115685       -0.86932842803261
H           -1.60489117572492        3.16045255647253       -0.27527976769042
H           -1.44484659622779        1.61728851784161        0.54212222038036
H           -2.40984017400783        3.22792419617803        2.05538970588161
H           -0.83548662973427        2.72745267256373        2.64458456698660
H           -1.10909174251189        5.10400465864246        2.98416388887903
H            0.19482595399044        4.80291461043197        1.85163781185131
H           -1.11439123342808        6.70733625139200        1.12087663243793
H           -1.20909889358402        5.40640211213710       -0.04966408904560
H           -3.38163413064995        6.45246166797916        0.20108285513466
H           -3.43734009441122        4.77497016727600        0.70451771565421
H           -4.74976369778860        6.12320892581809        2.21878699808986
H           -3.39636135041563        5.39169973143003        3.06086491589677
H           -3.65702983404371        7.66195217489366        3.85091460115797
H           -2.13094440808221        7.48287970237361        3.00877658066608
H           -3.07479615207327        9.59816235809343        2.38147234689683
H           -3.09594149754421        8.53811366405448        0.97688412785736
H           -5.18630236696473        9.76415366807384        1.06360058873282
H           -5.51831258150666        8.05009938446341        1.38578295052254
H           -5.29341817496535       11.41799018874435        3.04697803959718
H           -6.46925531752513       11.22551518133912        5.51244650748384
H           -6.32731667850937        7.42105240992351        3.76073209805149
H           -8.20062936270344        8.19678674336587        5.88673736392551
H           -6.61371682888702        7.80009034599313        6.56658317105746
H           -7.34935328318185        9.37932395959035        6.89546446983012

          :  Hamiltonian                  GFN2-xTB          :
         :: total energy             -58.734516366814 Eh    ::
         :: gradient norm              0.000276883134 Eh/a0 ::
         :: HOMO-LUMO gap              1.573780298278 eV    ::
         :: SCC energy               -59.617799603021 Eh    ::
         :: -> dispersion             -0.042861626763 Eh    ::
         :: repulsion energy           0.883283236207 Eh    ::

    * Orbital Energies and Occupations

         #    Occupation            Energy/Eh            Energy/eV
      -------------------------------------------------------------
         1        2.0000           -0.8960550             -24.3829
       ...           ...                  ...                  ...
        43        2.0000           -0.5369911             -14.6123
        44        2.0000           -0.5313794             -14.4596
        45        2.0000           -0.5243234             -14.2676
        46        2.0000           -0.5209690             -14.1763
        47        2.0000           -0.5112861             -13.9128
        48        2.0000           -0.5068752             -13.7928
        49        2.0000           -0.5010240             -13.6336
        50        2.0000           -0.4913600             -13.3706
        51        2.0000           -0.4880778             -13.2813
        52        2.0000           -0.4843975             -13.1811
        53        2.0000           -0.4708668             -12.8129
        54        2.0000           -0.4665671             -12.6959
        55        2.0000           -0.4645509             -12.6411 (HOMO)
        56                         -0.4067155             -11.0673 (LUMO)
        57                         -0.3699825             -10.0677
        58                         -0.1823013              -4.9607
        59                         -0.1289305              -3.5084
        60                         -0.0613306              -1.6689
        61                         -0.0579225              -1.5762
        62                         -0.0445961              -1.2135
        63                         -0.0304844              -0.8295
        64                         -0.0200682              -0.5461
        65                         -0.0127513              -0.3470
        66                         -0.0075901              -0.2065
       ...                                ...                  ...
       109                          0.4628607              12.5951
      -------------------------------------------------------------
                  HL-Gap            0.0578354 Eh            1.5738 eV

     #   Z          covCN         q      C6AA      α(0)
     1   6 C        3.751    -0.102    22.518     6.767
     2   6 C        3.799    -0.052    21.512     6.604
     3   6 C        3.800    -0.058    21.611     6.619
     4   6 C        3.800    -0.058    21.612     6.619
     5   6 C        3.800    -0.057    21.605     6.618
     6   6 C        3.800    -0.057    21.606     6.618
     7   6 C        3.800    -0.058    21.623     6.621
     8   6 C        3.800    -0.060    21.660     6.626
     9   6 C        3.800    -0.061    21.675     6.629
    10   6 C        3.800    -0.061    21.676     6.629
    11   6 C        3.800    -0.065    21.748     6.640
    12   6 C        3.802    -0.071    21.849     6.655
    13   6 C        3.742    -0.028    21.150     6.561
    14   7 N        2.868     0.074    19.956     6.635
    15   6 C        3.076    -0.007    28.110     8.693
    16   6 C        3.072    -0.007    28.129     8.696
    17   7 N        2.867     0.075    19.943     6.633
    18   6 C        3.102     0.045    26.863     8.493
    19   6 C        3.692    -0.086    22.337     6.763
    20   1 H        0.925     0.034     2.531     2.488
    21   1 H        0.925     0.033     2.541     2.493
    22   1 H        0.925     0.035     2.510     2.478
    23   1 H        0.924     0.029     2.604     2.523
    24   1 H        0.924     0.028     2.608     2.526
    25   1 H        0.924     0.026     2.637     2.540
    26   1 H        0.924     0.031     2.566     2.505
    27   1 H        0.924     0.027     2.633     2.537
    28   1 H        0.924     0.035     2.518     2.481
    29   1 H        0.924     0.026     2.651     2.546
    30   1 H        0.924     0.035     2.517     2.481
    31   1 H        0.924     0.022     2.697     2.568
    32   1 H        0.924     0.036     2.501     2.473
    33   1 H        0.924     0.022     2.704     2.572
    34   1 H        0.924     0.039     2.456     2.451
    35   1 H        0.924     0.025     2.658     2.550
    36   1 H        0.924     0.043     2.410     2.428
    37   1 H        0.924     0.025     2.660     2.550
    38   1 H        0.924     0.046     2.376     2.410
    39   1 H        0.924     0.014     2.827     2.630
    40   1 H        0.924     0.049     2.337     2.390
    41   1 H        0.924     0.017     2.775     2.605
    42   1 H        0.925     0.065     2.144     2.290
    43   1 H        0.924     0.052     2.299     2.371
    44   1 H        0.925     0.081     1.969     2.194
    45   1 H        0.924     0.087     1.906     2.159
    46   1 H        0.924     0.089     1.885     2.147
    47   1 H        0.926     0.108     1.710     2.045
    48   1 H        0.926     0.108     1.714     2.047
    49   1 H        0.926     0.115     1.654     2.011
    50   1 H        0.924     0.103     1.755     2.072
    51   1 H        0.924     0.102     1.764     2.077
    52   1 H        0.925     0.106     1.728     2.056

Wiberg/Mayer (AO) data.
largest (>0.10) Wiberg bond orders for each atom

     #   Z sym  total        # sym  WBO       # sym  WBO       # sym  WBO
 ---------------------------------------------------------------------------
     1   6 C    3.997 --     2 C    1.020    22 H    0.988    21 H    0.987
                            20 H    0.986
     2   6 C    3.998 --     1 C    1.020     3 C    1.008    24 H    0.978
                            23 H    0.976
     3   6 C    3.997 --     2 C    1.008     4 C    1.008    26 H    0.977
                            25 H    0.976
     4   6 C    3.997 --     5 C    1.008     3 C    1.008    27 H    0.975
                            28 H    0.975
     5   6 C    3.997 --     4 C    1.008     6 C    1.008    29 H    0.975
                            30 H    0.974
     6   6 C    3.997 --     5 C    1.008     7 C    1.008    31 H    0.975
                            32 H    0.974
     7   6 C    3.997 --     6 C    1.008     8 C    1.008    33 H    0.975
                            34 H    0.974
     8   6 C    3.996 --     9 C    1.008     7 C    1.008    35 H    0.975
                            36 H    0.974
     9   6 C    3.996 --     8 C    1.008    10 C    1.007    37 H    0.975
                            38 H    0.973
    10   6 C    3.995 --    11 C    1.007     9 C    1.007    39 H    0.974
                            40 H    0.973
    11   6 C    3.993 --    12 C    1.009    10 C    1.007    41 H    0.974
                            42 H    0.968
    12   6 C    3.982 --    11 C    1.009    13 C    0.979    43 H    0.975
                            44 H    0.962
    13   6 C    3.934 --    12 C    0.979    14 N    0.968    45 H    0.964
                            46 H    0.961
    14   7 N    3.722 --    18 C    1.365    15 C    1.233    13 C    0.968
    15   6 C    3.950 --    16 C    1.585    14 N    1.233    47 H    0.961
    16   6 C    3.949 --    15 C    1.585    17 N    1.232    48 H    0.961
    17   7 N    3.718 --    18 C    1.353    16 C    1.232    19 C    0.990
    18   6 C    3.946 --    14 N    1.365    17 N    1.353    49 H    0.953
    19   6 C    3.934 --    17 N    0.990    52 H    0.974    51 H    0.965
                            50 H    0.963
    20   1 H    0.999 --     1 C    0.986
    21   1 H    0.999 --     1 C    0.987
    22   1 H    0.999 --     1 C    0.988
    23   1 H    0.999 --     2 C    0.976
    24   1 H    0.999 --     2 C    0.978
    25   1 H    0.999 --     3 C    0.976
    26   1 H    0.999 --     3 C    0.977
    27   1 H    0.999 --     4 C    0.975
    28   1 H    0.999 --     4 C    0.975
    29   1 H    0.999 --     5 C    0.975
    30   1 H    0.999 --     5 C    0.974
    31   1 H    0.999 --     6 C    0.975
    32   1 H    0.999 --     6 C    0.974
    33   1 H    0.999 --     7 C    0.975
    34   1 H    0.998 --     7 C    0.974
    35   1 H    0.999 --     8 C    0.975
    36   1 H    0.998 --     8 C    0.974
    37   1 H    0.999 --     9 C    0.975
    38   1 H    0.998 --     9 C    0.973
    39   1 H    1.000 --    10 C    0.974
    40   1 H    0.998 --    10 C    0.973
    41   1 H    1.000 --    11 C    0.974
    42   1 H    0.996 --    11 C    0.968
    43   1 H    0.997 --    12 C    0.975
    44   1 H    0.992 --    12 C    0.962
    45   1 H    0.992 --    13 C    0.964
    46   1 H    0.992 --    13 C    0.961
    47   1 H    0.988 --    15 C    0.961
    48   1 H    0.988 --    16 C    0.961
    49   1 H    0.987 --    18 C    0.953
    50   1 H    0.989 --    19 C    0.963
    51   1 H    0.989 --    19 C    0.965
    52   1 H    0.988 --    19 C    0.974
 ---------------------------------------------------------------------------

molecular dipole:
                 x           y           z       tot (Debye)
 q only:      -10.867      16.783       7.309
   full:      -10.979      16.813       7.335      54.336

           -------------------------------------------------
          | TOTAL ENERGY              -58.734516366814 Eh   |
          | GRADIENT NORM               0.000276883134 Eh/α |
          | HOMO-LUMO GAP               1.573780298278 eV   |
           -------------------------------------------------

 * finished run on 2024/12/20 at 07:16:52.960
