   * xtb version 6.7.1 (edcfbbe) compiled by 'conda@3ef47c1a292c' on 2024-11-25

   ID    Z sym.   atoms
    1    6 C      1, 3, 5, 7-11
    2    8 O      2, 4
    3    7 N      6
    4    1 H      12-27

          program call               : xtb C1267.xyz --opt --namespace C1267 --charge +1
          :  Hamiltonian                  GFN2-xTB          :
 * total energy  :   -35.9493483 Eh     change       -0.3697735E-09 Eh
 * total energy  :   -35.9578568 Eh     change       -0.8508479E-02 Eh
 * total energy  :   -35.9601479 Eh     change       -0.2291168E-02 Eh
 * total energy  :   -35.9603327 Eh     change       -0.1847553E-03 Eh
 * total energy  :   -35.9604025 Eh     change       -0.6979068E-04 Eh
 * total energy  :   -35.9604533 Eh     change       -0.5086539E-04 Eh
 * total energy  :   -35.9605148 Eh     change       -0.6146966E-04 Eh
 * total energy  :   -35.9606091 Eh     change       -0.9428379E-04 Eh
 * total energy  :   -35.9607749 Eh     change       -0.1658013E-03 Eh
 * total energy  :   -35.9609537 Eh     change       -0.1787946E-03 Eh
 * total energy  :   -35.9613197 Eh     change       -0.6206263E-04 Eh
 * total energy  :   -35.9613571 Eh     change       -0.3747175E-04 Eh
 * total energy  :   -35.9613740 Eh     change       -0.1682145E-04 Eh
 * total energy  :   -35.9613867 Eh     change       -0.1278171E-04 Eh
 * total energy  :   -35.9613928 Eh     change       -0.6067289E-05 Eh
 * total energy  :   -35.9614001 Eh     change       -0.7252212E-05 Eh
 * total energy  :   -35.9614100 Eh     change       -0.9927628E-05 Eh
 * total energy  :   -35.9614174 Eh     change       -0.7419904E-05 Eh
 * total energy  :   -35.9614213 Eh     change       -0.3913579E-05 Eh
   *** GEOMETRY OPTIMIZATION CONVERGED AFTER 22 ITERATIONS ***

 final structure:
================
27
 xtb: 6.7.1 (edcfbbe)
C            1.05963392231921       -0.59177719136327        1.05229877988071
O            0.32501080698335        0.63101895374145        1.18962271819701
C            0.99358606751384        1.74702220241376        1.35292022959930
O            2.18566449730424        1.88009574419370        1.39859476957047
C           -0.00484932470785        2.91557232388475        1.49316288522047
N            0.64081670853209        4.23464019246284        1.64919840020794
C            1.43095333664268        4.55065178674410        0.44147080119736
C            1.51811298738690        4.28755127288979        2.87301354900588
C            1.06511815340198        5.49398398191330        3.69897464595417
C            0.29735172474692        6.35461959306152        2.70014148368805
C           -0.39219667058495        5.29882917857805        1.85129566033952
H            0.58262828156045       -1.16053938661239        0.25733483823746
H            0.99885302346747       -1.14238515607958        1.99085292090095
H            2.10150063237518       -0.38291757310615        0.80931755551597
H           -0.64973260216949        2.92067795198959        0.61076036445241
H           -0.63029342706951        2.70686553675100        2.36530574189931
H            2.23834753845275        3.82928629789967        0.32983745886321
H            0.79582869044295        4.51298392476901       -0.44215234791641
H            1.85542325697535        5.54767623752533        0.53131064275798
H            2.55509053889469        4.38040525683528        2.55613092106831
H            1.42932802189116        3.35915238698471        3.43333649430971
H            0.40464176855405        5.18133565545222        4.50728583426507
H            1.90931156498856        6.01789684157901        4.13900094466067
H           -0.41928202206277        7.01394851522015        3.18267975198403
H            0.97291700545885        6.96832132303574        2.10529163310429
H           -1.23208656450492        4.87571106989260        2.40457902226356
H           -0.75043791679312        5.66750307934380        0.89176430077591

          :  Hamiltonian                  GFN2-xTB          :
         :: total energy             -35.961421312789 Eh    ::
         :: gradient norm              0.000322965927 Eh/a0 ::
         :: HOMO-LUMO gap              5.281529148796 eV    ::
         :: SCC energy               -36.382083630847 Eh    ::
         :: -> dispersion             -0.019503012444 Eh    ::
         :: repulsion energy           0.420662318058 Eh    ::

    * Orbital Energies and Occupations

         #    Occupation            Energy/Eh            Energy/eV
      -------------------------------------------------------------
         1        2.0000           -0.8976987             -24.4276
       ...           ...                  ...                  ...
        20        2.0000           -0.6641124             -18.0714
        21        2.0000           -0.6557017             -17.8426
        22        2.0000           -0.6502623             -17.6945
        23        2.0000           -0.6462445             -17.5852
        24        2.0000           -0.6442050             -17.5297
        25        2.0000           -0.6373948             -17.3444
        26        2.0000           -0.6236485             -16.9703
        27        2.0000           -0.6171824             -16.7944
        28        2.0000           -0.6125141             -16.6674
        29        2.0000           -0.5995954             -16.3158
        30        2.0000           -0.5872947             -15.9811
        31        2.0000           -0.5808549             -15.8059
        32        2.0000           -0.5751185             -15.6498 (HOMO)
        33                         -0.3810258             -10.3682 (LUMO)
        34                         -0.2394715              -6.5164
        35                         -0.1965983              -5.3497
        36                         -0.1709845              -4.6527
        37                         -0.1576089              -4.2888
        38                         -0.1196822              -3.2567
        39                         -0.0792733              -2.1571
        40                         -0.0492415              -1.3399
        41                         -0.0449445              -1.2230
        42                         -0.0378933              -1.0311
        43                         -0.0283899              -0.7725
       ...                                ...                  ...
        60                          0.5188181              14.1178
      -------------------------------------------------------------
                  HL-Gap            0.1940926 Eh            5.2815 eV

     #   Z          covCN         q      C6AA      α(0)
     1   6 C        3.649     0.011    20.715     6.538
     2   8 O        1.704    -0.227    17.762     5.690
     3   6 C        2.712     0.359    20.912     7.485
     4   8 O        0.856    -0.393    21.535     6.222
     5   6 C        3.759    -0.066    21.807     6.658
     6   7 N        3.629     0.126    19.081     6.488
     7   6 C        3.714    -0.098    22.502     6.778
     8   6 C        3.776    -0.038    21.289     6.574
     9   6 C        3.829    -0.076    21.922     6.662
    10   6 C        3.822    -0.072    21.865     6.654
    11   6 C        3.796    -0.037    21.233     6.561
    12   1 H        0.925     0.097     1.812     2.105
    13   1 H        0.925     0.091     1.874     2.141
    14   1 H        0.925     0.092     1.861     2.133
    15   1 H        0.924     0.110     1.699     2.039
    16   1 H        0.924     0.109     1.703     2.041
    17   1 H        0.925     0.119     1.622     1.992
    18   1 H        0.925     0.091     1.871     2.139
    19   1 H        0.925     0.104     1.746     2.066
    20   1 H        0.925     0.107     1.719     2.050
    21   1 H        0.925     0.092     1.860     2.133
    22   1 H        0.925     0.072     2.060     2.244
    23   1 H        0.925     0.087     1.912     2.163
    24   1 H        0.925     0.089     1.893     2.152
    25   1 H        0.925     0.071     2.080     2.255
    26   1 H        0.924     0.089     1.889     2.149
    27   1 H        0.925     0.091     1.869     2.138

Wiberg/Mayer (AO) data.
largest (>0.10) Wiberg bond orders for each atom

     #   Z sym  total        # sym  WBO       # sym  WBO       # sym  WBO
 ---------------------------------------------------------------------------
     1   6 C    3.886 --    14 H    0.975    12 H    0.973    13 H    0.971
                             2 O    0.927
     2   8 O    2.367 --     3 C    1.206     1 C    0.927     4 O    0.196
     3   6 C    3.938 --     4 O    1.738     2 O    1.206     5 C    0.935
     4   8 O    2.062 --     3 C    1.738     2 O    0.196
     5   6 C    3.946 --     6 N    0.964    15 H    0.953    16 H    0.951
                             3 C    0.935
     6   7 N    3.807 --     5 C    0.964     7 C    0.956    11 C    0.925
                             8 C    0.917
     7   6 C    3.918 --    18 H    0.976    19 H    0.973    17 H    0.966
                             6 N    0.956
     8   6 C    3.922 --     9 C    1.005    21 H    0.971    20 H    0.968
                             6 N    0.917
     9   6 C    3.985 --     8 C    1.005    10 C    1.004    22 H    0.976
                            23 H    0.971
    10   6 C    3.985 --    11 C    1.010     9 C    1.004    25 H    0.972
                            24 H    0.968
    11   6 C    3.930 --    10 C    1.010    27 H    0.969    26 H    0.968
                             6 N    0.925
    12   1 H    0.990 --     1 C    0.973
    13   1 H    0.992 --     1 C    0.971
    14   1 H    0.992 --     1 C    0.975
    15   1 H    0.988 --     5 C    0.953
    16   1 H    0.988 --     5 C    0.951
    17   1 H    0.986 --     7 C    0.966
    18   1 H    0.992 --     7 C    0.976
    19   1 H    0.989 --     7 C    0.973
    20   1 H    0.988 --     8 C    0.968
    21   1 H    0.992 --     8 C    0.971
    22   1 H    0.995 --     9 C    0.976
    23   1 H    0.992 --     9 C    0.971
    24   1 H    0.992 --    10 C    0.968
    25   1 H    0.995 --    10 C    0.972
    26   1 H    0.992 --    11 C    0.968
    27   1 H    0.992 --    11 C    0.969
 ---------------------------------------------------------------------------

molecular dipole:
                 x           y           z       tot (Debye)
 q only:        0.788       7.465       3.309
   full:        0.589       7.358       3.228      20.477

           -------------------------------------------------
          | TOTAL ENERGY              -35.961421312789 Eh   |
          | GRADIENT NORM               0.000322965927 Eh/α |
          | HOMO-LUMO GAP               5.281529148796 eV   |
           -------------------------------------------------

 * finished run on 2024/12/20 at 07:17:03.454
