   * xtb version 6.7.1 (edcfbbe) compiled by 'conda@3ef47c1a292c' on 2024-11-25

   ID    Z sym.   atoms
    1    8 O      1
    2    6 C      2, 3, 5-10
    3    7 N      4
    4    1 H      11-28

          program call               : xtb C1260.xyz --opt --namespace C1260 --charge +1
          :  Hamiltonian                  GFN2-xTB          :
 * total energy  :   -32.9028399 Eh     change       -0.5039169E-10 Eh
 * total energy  :   -32.9097892 Eh     change       -0.6949350E-02 Eh
 * total energy  :   -32.9116502 Eh     change       -0.1861007E-02 Eh
 * total energy  :   -32.9117684 Eh     change       -0.1181974E-03 Eh
 * total energy  :   -32.9118773 Eh     change       -0.1089183E-03 Eh
 * total energy  :   -32.9119221 Eh     change       -0.4479288E-04 Eh
 * total energy  :   -32.9119755 Eh     change       -0.5338432E-04 Eh
 * total energy  :   -32.9120228 Eh     change       -0.4732272E-04 Eh
 * total energy  :   -32.9120489 Eh     change       -0.2603155E-04 Eh
 * total energy  :   -32.9120725 Eh     change       -0.2359923E-04 Eh
 * total energy  :   -32.9121929 Eh     change       -0.6742556E-04 Eh
 * total energy  :   -32.9122656 Eh     change       -0.7264486E-04 Eh
 * total energy  :   -32.9123147 Eh     change       -0.4914804E-04 Eh
 * total energy  :   -32.9123634 Eh     change       -0.4868805E-04 Eh
 * total energy  :   -32.9124260 Eh     change       -0.6260926E-04 Eh
 * total energy  :   -32.9124517 Eh     change       -0.2566206E-04 Eh
 * total energy  :   -32.9123878 Eh     change        0.6386503E-04 Eh
 * total energy  :   -32.9124664 Eh     change       -0.7858387E-04 Eh
 * total energy  :   -32.9124690 Eh     change       -0.2649158E-05 Eh
   *** GEOMETRY OPTIMIZATION CONVERGED AFTER 21 ITERATIONS ***

 final structure:
================
28
 xtb: 6.7.1 (edcfbbe)
O            0.90158318697763        0.88403726630605       -0.40033028577517
C            0.50005387664609       -0.34289255930743       -0.96398862567840
C            1.13449917044342       -0.52817668771541       -2.34744342941330
N            2.62172090868824       -0.39674315723949       -2.41961144895220
C            3.06090228669967       -0.98812891772566       -3.71873456134040
C            4.54089378483285       -0.77740991014766       -4.02390480979546
C            4.90138300522599        0.70340237707679       -3.97931160415176
C            4.48235777115539        1.28809226872256       -2.63500577523801
C            2.99757918044232        1.04898263491806       -2.39825376427415
C            3.24262621325499       -1.11251088768018       -1.29244334030459
H            0.32396832376797        1.11209843664026        0.33524950281087
H            0.76059922837136       -1.17659975884272       -0.29781328028105
H           -0.58544851345367       -0.36922592657973       -1.12142973356514
H            0.85956836890377       -1.52519642425051       -2.69801898639215
H            0.70584221501305        0.21081372165895       -3.02671119775130
H            2.46764173325333       -0.51959370633046       -4.50735942303833
H            2.83392931873263       -2.05619749542941       -3.70321224140120
H            4.73040387329270       -1.17960108398789       -5.01952237082557
H            5.16882931002344       -1.33812631463773       -3.33094980641779
H            5.97230214564837        0.82951741882861       -4.12858450572445
H            4.38983542955125        1.23206973423326       -4.78545661836757
H            5.08552676854227        0.86669362132317       -1.83096143673452
H            4.64756739759124        2.36546956886438       -2.62780358086941
H            2.67709774067015        1.46516081396806       -1.44354673012460
H            2.43530823845185        1.54309556810872       -3.19330283136426
H            3.01704162477862       -0.59520181003348       -0.36286795553826
H            2.86281433071549       -2.13176155641873       -1.24788674084808
H            4.32066308177978       -1.14929723432397       -1.41325441864264

          :  Hamiltonian                  GFN2-xTB          :
         :: total energy             -32.912469041996 Eh    ::
         :: gradient norm              0.000833113413 Eh/a0 ::
         :: HOMO-LUMO gap              9.015552066726 eV    ::
         :: SCC energy               -33.323357156063 Eh    ::
         :: -> dispersion             -0.020911710819 Eh    ::
         :: repulsion energy           0.410888114067 Eh    ::

    * Orbital Energies and Occupations

         #    Occupation            Energy/Eh            Energy/eV
      -------------------------------------------------------------
         1        2.0000           -0.8569857             -23.3198
       ...           ...                  ...                  ...
        18        2.0000           -0.6569322             -17.8760
        19        2.0000           -0.6444988             -17.5377
        20        2.0000           -0.6388580             -17.3842
        21        2.0000           -0.6376574             -17.3515
        22        2.0000           -0.6363980             -17.3173
        23        2.0000           -0.6283481             -17.0982
        24        2.0000           -0.6269181             -17.0593
        25        2.0000           -0.6142621             -16.7149
        26        2.0000           -0.5999588             -16.3257
        27        2.0000           -0.5798370             -15.7782
        28        2.0000           -0.5753229             -15.6553
        29        2.0000           -0.5699123             -15.5081
        30        2.0000           -0.5622562             -15.2998 (HOMO)
        31                         -0.2309408              -6.2842 (LUMO)
        32                         -0.1614729              -4.3939
        33                         -0.1581749              -4.3042
        34                         -0.1392680              -3.7897
        35                         -0.1033720              -2.8129
        36                         -0.0708439              -1.9278
        37                         -0.0567474              -1.5442
        38                         -0.0520026              -1.4151
        39                         -0.0416304              -1.1328
        40                         -0.0267489              -0.7279
        41                         -0.0149215              -0.4060
       ...                                ...                  ...
        58                          0.1786633               4.8617
      -------------------------------------------------------------
                  HL-Gap            0.3313154 Eh            9.0156 eV

     #   Z          covCN         q      C6AA      α(0)
     1   8 O        1.656    -0.440    21.633     6.279
     2   6 C        3.672     0.071    19.617     6.348
     3   6 C        3.763    -0.040    21.341     6.585
     4   7 N        3.621     0.128    19.061     6.484
     5   6 C        3.767    -0.035    21.239     6.568
     6   6 C        3.804    -0.071    21.861     6.656
     7   6 C        3.806    -0.072    21.872     6.658
     8   6 C        3.805    -0.074    21.910     6.664
     9   6 C        3.763    -0.042    21.365     6.589
    10   6 C        3.712    -0.094    22.430     6.768
    11   1 H        0.805     0.315     0.677     1.293
    12   1 H        0.923     0.051     2.308     2.376
    13   1 H        0.924     0.063     2.161     2.299
    14   1 H        0.924     0.085     1.932     2.174
    15   1 H        0.924     0.095     1.832     2.117
    16   1 H        0.924     0.083     1.947     2.182
    17   1 H        0.924     0.078     2.000     2.212
    18   1 H        0.924     0.077     2.006     2.215
    19   1 H        0.924     0.060     2.194     2.317
    20   1 H        0.925     0.070     2.090     2.261
    21   1 H        0.924     0.057     2.240     2.341
    22   1 H        0.925     0.061     2.188     2.313
    23   1 H        0.925     0.078     2.000     2.211
    24   1 H        0.925     0.114     1.662     2.016
    25   1 H        0.924     0.082     1.955     2.186
    26   1 H        0.925     0.108     1.713     2.047
    27   1 H        0.925     0.088     1.894     2.152
    28   1 H        0.925     0.103     1.755     2.072

Wiberg/Mayer (AO) data.
largest (>0.10) Wiberg bond orders for each atom

     #   Z sym  total        # sym  WBO       # sym  WBO       # sym  WBO
 ---------------------------------------------------------------------------
     1   8 O    1.958 --     2 C    1.005    11 H    0.885
     2   6 C    3.958 --     1 O    1.005     3 C    1.003    12 H    0.965
                            13 H    0.963
     3   6 C    3.944 --     2 C    1.003    14 H    0.967    15 H    0.965
                             4 N    0.940
     4   7 N    3.809 --    10 C    0.961     3 C    0.940     5 C    0.930
                             9 C    0.924
     5   6 C    3.935 --     6 C    1.007    17 H    0.969    16 H    0.968
                             4 N    0.930
     6   6 C    3.986 --     7 C    1.008     5 C    1.007    19 H    0.970
                            18 H    0.965
     7   6 C    3.992 --     8 C    1.009     6 C    1.008    21 H    0.975
                            20 H    0.973
     8   6 C    3.988 --     9 C    1.010     7 C    1.009    22 H    0.971
                            23 H    0.965
     9   6 C    3.923 --     8 C    1.010    25 H    0.966    24 H    0.956
                             4 N    0.924
    10   6 C    3.928 --    27 H    0.976    26 H    0.971    28 H    0.966
                             4 N    0.961
    11   1 H    0.900 --     1 O    0.885
    12   1 H    0.997 --     2 C    0.965
    13   1 H    0.995 --     2 C    0.963
    14   1 H    0.993 --     3 C    0.967
    15   1 H    0.991 --     3 C    0.965
    16   1 H    0.993 --     5 C    0.968
    17   1 H    0.994 --     5 C    0.969
    18   1 H    0.994 --     6 C    0.965
    19   1 H    0.996 --     6 C    0.970
    20   1 H    0.995 --     7 C    0.973
    21   1 H    0.997 --     7 C    0.975
    22   1 H    0.996 --     8 C    0.971
    23   1 H    0.994 --     8 C    0.965
    24   1 H    0.987 --     9 C    0.956
    25   1 H    0.993 --     9 C    0.966
    26   1 H    0.988 --    10 C    0.971
    27   1 H    0.992 --    10 C    0.976
    28   1 H    0.989 --    10 C    0.966
 ---------------------------------------------------------------------------

molecular dipole:
                 x           y           z       tot (Debye)
 q only:        4.911      -0.695      -4.409
   full:        4.574      -0.853      -4.300      16.104

           -------------------------------------------------
          | TOTAL ENERGY              -32.912469041996 Eh   |
          | GRADIENT NORM               0.000833113413 Eh/α |
          | HOMO-LUMO GAP               9.015552066726 eV   |
           -------------------------------------------------

 * finished run on 2024/12/20 at 07:16:47.296
