   * xtb version 6.7.1 (edcfbbe) compiled by 'conda@3ef47c1a292c' on 2024-11-25

   ID    Z sym.   atoms
    1    7 N      1, 6, 8, 18
    2    6 C      2-5, 7, 9-17
    3    1 H      19-33

          program call               : xtb C1271.xyz --opt --namespace C1271 --charge +1
          :  Hamiltonian                  GFN2-xTB          :
 * total energy  :   -48.8096955 Eh     change       -0.9691661E-09 Eh
 * total energy  :   -48.8741540 Eh     change       -0.6445852E-01 Eh
 * total energy  :   -48.8806855 Eh     change       -0.6531481E-02 Eh
 * total energy  :   -48.8822424 Eh     change       -0.1556961E-02 Eh
 * total energy  :   -48.8827407 Eh     change       -0.4982588E-03 Eh
 * total energy  :   -48.8841822 Eh     change       -0.1441491E-02 Eh
 * total energy  :   -48.8850902 Eh     change       -0.9080607E-03 Eh
 * total energy  :   -48.8858369 Eh     change       -0.7466659E-03 Eh
 * total energy  :   -48.8866368 Eh     change       -0.7999470E-03 Eh
 * total energy  :   -48.8872054 Eh     change       -0.5685816E-03 Eh
 * total energy  :   -48.8893915 Eh     change       -0.4836978E-04 Eh
 * total energy  :   -48.8894107 Eh     change       -0.1919428E-04 Eh
 * total energy  :   -48.8894564 Eh     change       -0.4568983E-04 Eh
 * total energy  :   -48.8894831 Eh     change       -0.2663144E-04 Eh
 * total energy  :   -48.8895088 Eh     change       -0.2578529E-04 Eh
 * total energy  :   -48.8895140 Eh     change       -0.5157394E-05 Eh
 * total energy  :   -48.8895230 Eh     change       -0.9050713E-05 Eh
 * total energy  :   -48.8895290 Eh     change       -0.5921628E-05 Eh
 * total energy  :   -48.8895338 Eh     change       -0.4789326E-05 Eh
   *** GEOMETRY OPTIMIZATION CONVERGED AFTER 29 ITERATIONS ***

 final structure:
================
33
 xtb: 6.7.1 (edcfbbe)
N            1.29589848721093        1.08288368157835       -0.64380426327465
C            2.26801544142413        0.51205740226470       -0.45481538499102
C            3.54326024174656       -0.12451739225585       -0.25799603769698
C            4.39900368639212       -0.09764548303667       -1.53825276621725
C            4.21149842315501        1.17035851234259       -2.38176009669864
N            4.35301324658442        2.39182127718065       -1.61669785645315
C            5.40168517777294        2.72856140165042       -0.87844239963057
N            5.21923288149239        3.90598835130055       -0.28339221311060
C            3.96736477043972        4.36770192729285       -0.64185513214735
C            3.41491805891086        3.40120715190728       -1.50474095395973
C            2.15018400335780        3.57287216293325       -2.05634671937704
C            1.46730684893616        4.71928983976395       -1.70927703031224
C            2.01593552251303        5.67557185131044       -0.84956701294285
C            3.27226620933582        5.52179347110436       -0.30192954186782
C            6.09071777057821        4.48521155315203        0.71160084604468
C            5.64383139243253        4.05104701808243        2.12360598132892
C            5.44849192622550        2.62434386957575        2.12310859050835
N            5.27906142014460        1.50203548793281        1.99071776624343
H            4.04979449492280        0.39056876025993        0.56530808738928
H            3.37860521144012       -1.15751800261908        0.05530580021071
H            5.44589091751684       -0.22210135412544       -1.25928459114215
H            4.12703745781579       -0.93813153981147       -2.17829735542973
H            4.94122185605152        1.17352118802639       -3.19738124261810
H            3.21036555711567        1.17827777360995       -2.81456606203924
H            6.29037700993103        2.13418354952338       -0.77672061242533
H            1.70707643423153        2.84436845485447       -2.71340981082617
H            0.48014478016424        4.88336936598797       -2.10990534360127
H            1.44013577414121        6.55483771119907       -0.60865288752609
H            3.68997494578045        6.26640717631075        0.35600472793093
H            7.11048520105118        4.14277286827018        0.52040822122768
H            6.05998514250628        5.57290542326131        0.62625757246942
H            6.40203753751087        4.32540191204956        2.85917550851555
H            4.69933217116606        4.52815462912399        2.39922221241861

          :  Hamiltonian                  GFN2-xTB          :
         :: total energy             -48.889533759298 Eh    ::
         :: gradient norm              0.000700396921 Eh/a0 ::
         :: HOMO-LUMO gap              2.948384410756 eV    ::
         :: SCC energy               -49.758473555177 Eh    ::
         :: -> dispersion             -0.035677882589 Eh    ::
         :: repulsion energy           0.868939795879 Eh    ::

    * Orbital Energies and Occupations

         #    Occupation            Energy/Eh            Energy/eV
      -------------------------------------------------------------
         1        2.0000           -0.8875964             -24.1527
       ...           ...                  ...                  ...
        33        2.0000           -0.6127445             -16.6736
        34        2.0000           -0.6088146             -16.5667
        35        2.0000           -0.6034247             -16.4200
        36        2.0000           -0.6021942             -16.3865
        37        2.0000           -0.5940061             -16.1637
        38        2.0000           -0.5825800             -15.8528
        39        2.0000           -0.5764226             -15.6853
        40        2.0000           -0.5738689             -15.6158
        41        2.0000           -0.5697978             -15.5050
        42        2.0000           -0.5581845             -15.1890
        43        2.0000           -0.5564774             -15.1425
        44        2.0000           -0.5485601             -14.9271
        45        2.0000           -0.5309139             -14.4469 (HOMO)
        46                         -0.4225628             -11.4985 (LUMO)
        47                         -0.3681398             -10.0176
        48                         -0.3617801              -9.8445
        49                         -0.3516298              -9.5683
        50                         -0.3451074              -9.3908
        51                         -0.3158968              -8.5960
        52                         -0.3081098              -8.3841
        53                         -0.2414617              -6.5705
        54                         -0.1902718              -5.1776
        55                         -0.1455916              -3.9617
        56                         -0.0845813              -2.3016
       ...                                ...                  ...
        87                          1.0373136              28.2267
      -------------------------------------------------------------
                  HL-Gap            0.1083511 Eh            2.9484 eV

     #   Z          covCN         q      C6AA      α(0)
     1   7 N        0.911    -0.239    26.251     7.410
     2   6 C        1.896     0.113    28.321     8.595
     3   6 C        3.803    -0.071    21.849     6.655
     4   6 C        3.805    -0.064    21.722     6.635
     5   6 C        3.740    -0.022    21.039     6.545
     6   7 N        2.825     0.039    20.560     6.734
     7   6 C        3.067     0.068    26.403     8.426
     8   7 N        2.827     0.022    20.866     6.784
     9   6 C        3.116     0.040    26.948     8.503
    10   6 C        3.116     0.042    26.902     8.496
    11   6 C        2.909    -0.023    28.568     8.764
    12   6 C        2.926    -0.012    28.319     8.727
    13   6 C        2.926    -0.015    28.382     8.737
    14   6 C        2.908    -0.035    28.868     8.810
    15   6 C        3.751    -0.009    20.793     6.503
    16   6 C        3.804    -0.066    21.757     6.641
    17   6 C        1.902     0.122    28.120     8.564
    18   7 N        0.911    -0.225    25.919     7.363
    19   1 H        0.924     0.095     1.833     2.117
    20   1 H        0.924     0.098     1.807     2.102
    21   1 H        0.924     0.062     2.178     2.308
    22   1 H        0.924     0.079     1.989     2.205
    23   1 H        0.924     0.084     1.940     2.178
    24   1 H        0.924     0.095     1.834     2.118
    25   1 H        0.926     0.107     1.720     2.051
    26   1 H        0.926     0.084     1.936     2.176
    27   1 H        0.926     0.089     1.886     2.148
    28   1 H        0.926     0.084     1.939     2.178
    29   1 H        0.926     0.067     2.115     2.274
    30   1 H        0.924     0.086     1.916     2.164
    31   1 H        0.924     0.096     1.826     2.113
    32   1 H        0.924     0.110     1.697     2.037
    33   1 H        0.924     0.098     1.803     2.100

Wiberg/Mayer (AO) data.
largest (>0.10) Wiberg bond orders for each atom

     #   Z sym  total        # sym  WBO       # sym  WBO       # sym  WBO
 ---------------------------------------------------------------------------
     1   7 N    3.009 --     2 C    2.844
     2   6 C    3.946 --     1 N    2.844     3 C    1.059
     3   6 C    3.991 --     2 C    1.059     4 C    0.980    20 H    0.939
                            19 H    0.926
     4   6 C    3.986 --     5 C    0.994     3 C    0.980    21 H    0.975
                            22 H    0.970
     5   6 C    3.941 --     4 C    0.994     6 N    0.967    24 H    0.963
                            23 H    0.957
     6   7 N    3.690 --     7 C    1.385    10 C    1.124     5 C    0.967
                             8 N    0.104
     7   6 C    3.955 --     6 N    1.385     8 N    1.351    25 H    0.953
     8   7 N    3.668 --     7 C    1.351     9 C    1.119    15 C    0.980
                             6 N    0.104
     9   6 C    3.950 --    14 C    1.339    10 C    1.274     8 N    1.119
    10   6 C    3.952 --    11 C    1.336     9 C    1.274     6 N    1.124
    11   6 C    3.984 --    12 C    1.496    10 C    1.336    26 H    0.958
                            14 C    0.118
    12   6 C    3.983 --    11 C    1.496    13 C    1.375    27 H    0.964
    13   6 C    3.985 --    14 C    1.494    12 C    1.375    28 H    0.965
    14   6 C    3.986 --    13 C    1.494     9 C    1.339    29 H    0.963
                            11 C    0.118
    15   6 C    3.950 --     8 N    0.980    30 H    0.968    16 C    0.962
                            31 H    0.962
    16   6 C    3.988 --    17 C    1.057    15 C    0.962    33 H    0.940
                            32 H    0.937
    17   6 C    3.947 --    18 N    2.844    16 C    1.057
    18   7 N    3.020 --    17 C    2.844
    19   1 H    0.991 --     3 C    0.926
    20   1 H    0.990 --     3 C    0.939
    21   1 H    0.996 --     4 C    0.975
    22   1 H    0.993 --     4 C    0.970
    23   1 H    0.992 --     5 C    0.957
    24   1 H    0.991 --     5 C    0.963
    25   1 H    0.988 --     7 C    0.953
    26   1 H    0.992 --    11 C    0.958
    27   1 H    0.992 --    12 C    0.964
    28   1 H    0.993 --    13 C    0.965
    29   1 H    0.995 --    14 C    0.963
    30   1 H    0.992 --    15 C    0.968
    31   1 H    0.990 --    15 C    0.962
    32   1 H    0.987 --    16 C    0.937
    33   1 H    0.990 --    16 C    0.940
 ---------------------------------------------------------------------------

molecular dipole:
                 x           y           z       tot (Debye)
 q only:        9.074       6.544      -1.495
   full:        9.736       6.672      -1.310      30.184

           -------------------------------------------------
          | TOTAL ENERGY              -48.889533759298 Eh   |
          | GRADIENT NORM               0.000700396921 Eh/α |
          | HOMO-LUMO GAP               2.948384410756 eV   |
           -------------------------------------------------

 * finished run on 2024/12/20 at 07:17:56.991
