   * xtb version 6.7.1 (edcfbbe) compiled by 'conda@3ef47c1a292c' on 2024-11-25

   ID    Z sym.   atoms
    1    6 C      1-4, 6-9
    2    7 N      5
    3    1 H      10-27

          program call               : xtb C1276.xyz --opt --namespace C1276 --charge +1
          :  Hamiltonian                  GFN2-xTB          :
 * total energy  :   -28.8027379 Eh     change       -0.5297451E-10 Eh
 * total energy  :   -28.8089112 Eh     change       -0.6173319E-02 Eh
 * total energy  :   -28.8103655 Eh     change       -0.1454264E-02 Eh
 * total energy  :   -28.8104599 Eh     change       -0.9441885E-04 Eh
 * total energy  :   -28.8105001 Eh     change       -0.4024154E-04 Eh
 * total energy  :   -28.8105298 Eh     change       -0.2969357E-04 Eh
 * total energy  :   -28.8105468 Eh     change       -0.1702213E-04 Eh
 * total energy  :   -28.8105618 Eh     change       -0.1494137E-04 Eh
 * total energy  :   -28.8105665 Eh     change       -0.4726034E-05 Eh
   *** GEOMETRY OPTIMIZATION CONVERGED AFTER 9 ITERATIONS ***

 final structure:
================
27
 xtb: 6.7.1 (edcfbbe)
C            0.96081267840854        0.09308745062130       -0.08591366762116
C            0.48941064740062       -0.14407709316435       -1.47176180138729
C           -0.38525083766045       -1.07796812050913       -1.82307301040355
C           -0.90675395063979       -1.24761418686328       -3.22112496390916
N           -0.37080673255307       -2.52489252265183       -3.86803695589469
C           -0.81258592314173       -3.73222126968352       -3.14899646968949
C           -0.81211504825744       -2.61517465732065       -5.27139660286153
C            1.10326501165225       -2.47317929728995       -3.84652607430787
C           -2.42888649507883       -1.17480370612721       -3.20455379034222
H            0.52475937917435       -0.61329035387283        0.61464066672451
H            0.69810053306394        1.10409844151647        0.22202978815015
H            2.04664724550268        0.02020174424932       -0.04245583784416
H            0.90621992972807        0.51654229949272       -2.22244274245188
H           -0.82863283204647       -1.70958566041580       -1.06647274531278
H           -0.52085085260811       -0.43411534942093       -3.84385840330253
H           -1.89587980718176       -3.81803833039307       -3.17774536099864
H           -0.38498881314883       -4.61628413719179       -3.61881908655331
H           -0.48215620004359       -3.69482646883005       -2.11393858409443
H           -0.55091767387017       -1.70540286386613       -5.80881483490787
H           -0.32381633375319       -3.45837222480759       -5.75715369384336
H           -1.88697145235925       -2.76485730868365       -5.32891244812362
H            1.45731553277590       -1.61170733985669       -4.40887168513405
H            1.45791217154937       -2.38978762216679       -2.82146483430132
H            1.51513585725129       -3.37588994302714       -4.29283695028044
H           -2.70371051555026       -0.21664522115815       -2.76915603884352
H           -2.86551833168805       -1.21388678638615       -4.19779001402484
H           -2.86924718692591       -1.94790947219342       -2.58154385844092

          :  Hamiltonian                  GFN2-xTB          :
         :: total energy             -28.810566514758 Eh    ::
         :: gradient norm              0.000559236752 Eh/a0 ::
         :: HOMO-LUMO gap              4.991275851603 eV    ::
         :: SCC energy               -29.254419174950 Eh    ::
         :: -> dispersion             -0.018611872324 Eh    ::
         :: repulsion energy           0.443852660193 Eh    ::

    * Orbital Energies and Occupations

         #    Occupation            Energy/Eh            Energy/eV
      -------------------------------------------------------------
         1        2.0000           -0.8615439             -23.4438
       ...           ...                  ...                  ...
        15        2.0000           -0.6499410             -17.6858
        16        2.0000           -0.6468457             -17.6016
        17        2.0000           -0.6427208             -17.4893
        18        2.0000           -0.6409507             -17.4412
        19        2.0000           -0.6395136             -17.4021
        20        2.0000           -0.6324116             -17.2088
        21        2.0000           -0.6121770             -16.6582
        22        2.0000           -0.6078588             -16.5407
        23        2.0000           -0.6028318             -16.4039
        24        2.0000           -0.5981321             -16.2760
        25        2.0000           -0.5771868             -15.7061
        26        2.0000           -0.5651426             -15.3783
        27        2.0000           -0.5347458             -14.5512 (HOMO)
        28                         -0.3513198              -9.5599 (LUMO)
        29                         -0.2247653              -6.1162
        30                         -0.1611980              -4.3864
        31                         -0.1415491              -3.8517
        32                         -0.1389967              -3.7823
        33                         -0.0564290              -1.5355
        34                         -0.0545434              -1.4842
        35                         -0.0369742              -1.0061
        36                         -0.0300851              -0.8187
        37                          0.0131688               0.3583
        38                          0.0233851               0.6363
       ...                                ...                  ...
        54                          0.4833120              13.1516
      -------------------------------------------------------------
                  HL-Gap            0.1834260 Eh            4.9913 eV

     #   Z          covCN         q      C6AA      α(0)
     1   6 C        3.757    -0.118    22.816     6.810
     2   6 C        2.888    -0.017    28.439     8.743
     3   6 C        2.895    -0.076    29.893     8.964
     4   6 C        3.802     0.013    20.357     6.424
     5   7 N        3.619     0.129    19.046     6.482
     6   6 C        3.720    -0.093    22.404     6.761
     7   6 C        3.722    -0.094    22.414     6.761
     8   6 C        3.726    -0.095    22.413     6.759
     9   6 C        3.757    -0.128    23.013     6.840
    10   1 H        0.925     0.058     2.217     2.328
    11   1 H        0.925     0.079     1.991     2.207
    12   1 H        0.925     0.072     2.062     2.246
    13   1 H        0.925     0.049     2.331     2.387
    14   1 H        0.926     0.055     2.258     2.350
    15   1 H        0.924     0.073     2.055     2.242
    16   1 H        0.925     0.100     1.783     2.088
    17   1 H        0.925     0.094     1.839     2.120
    18   1 H        0.925     0.101     1.775     2.083
    19   1 H        0.925     0.095     1.830     2.115
    20   1 H        0.925     0.097     1.814     2.106
    21   1 H        0.925     0.101     1.778     2.085
    22   1 H        0.925     0.095     1.832     2.117
    23   1 H        0.925     0.101     1.778     2.085
    24   1 H        0.925     0.096     1.819     2.109
    25   1 H        0.925     0.085     1.930     2.172
    26   1 H        0.925     0.062     2.170     2.304
    27   1 H        0.925     0.066     2.129     2.282

Wiberg/Mayer (AO) data.
largest (>0.10) Wiberg bond orders for each atom

     #   Z sym  total        # sym  WBO       # sym  WBO       # sym  WBO
 ---------------------------------------------------------------------------
     1   6 C    3.991 --     2 C    1.057    10 H    0.983    12 H    0.959
                            11 H    0.955
     2   6 C    3.986 --     3 C    1.895     1 C    1.057    13 H    0.963
     3   6 C    3.973 --     2 C    1.895     4 C    1.009    14 H    0.959
     4   6 C    3.929 --     3 C    1.009     9 C    1.008    15 H    0.958
                             5 N    0.874
     5   7 N    3.806 --     7 C    0.962     6 C    0.961     8 C    0.961
                             4 C    0.874
     6   6 C    3.929 --    17 H    0.975    18 H    0.972    16 H    0.972
                             5 N    0.961
     7   6 C    3.930 --    19 H    0.976    20 H    0.974    21 H    0.972
                             5 N    0.962
     8   6 C    3.929 --    22 H    0.976    24 H    0.974    23 H    0.971
                             5 N    0.961
     9   6 C    3.983 --     4 C    1.008    27 H    0.979    26 H    0.977
                            25 H    0.971
    10   1 H    0.997 --     1 C    0.983
    11   1 H    0.993 --     1 C    0.955
    12   1 H    0.994 --     1 C    0.959
    13   1 H    0.998 --     2 C    0.963
    14   1 H    0.997 --     3 C    0.959
    15   1 H    0.995 --     4 C    0.958
    16   1 H    0.990 --     6 C    0.972
    17   1 H    0.991 --     6 C    0.975
    18   1 H    0.990 --     6 C    0.972
    19   1 H    0.991 --     7 C    0.976
    20   1 H    0.990 --     7 C    0.974
    21   1 H    0.990 --     7 C    0.972
    22   1 H    0.991 --     8 C    0.976
    23   1 H    0.990 --     8 C    0.971
    24   1 H    0.990 --     8 C    0.974
    25   1 H    0.992 --     9 C    0.971
    26   1 H    0.995 --     9 C    0.977
    27   1 H    0.996 --     9 C    0.979
 ---------------------------------------------------------------------------

molecular dipole:
                 x           y           z       tot (Debye)
 q only:       -0.595      -4.241      -6.617
   full:       -0.586      -4.224      -6.704      20.195

           -------------------------------------------------
          | TOTAL ENERGY              -28.810566514758 Eh   |
          | GRADIENT NORM               0.000559236752 Eh/α |
          | HOMO-LUMO GAP               4.991275851603 eV   |
           -------------------------------------------------

 * finished run on 2024/12/20 at 07:18:15.828
