   * xtb version 6.7.1 (edcfbbe) compiled by 'conda@3ef47c1a292c' on 2024-11-25

   ID    Z sym.   atoms
    1    6 C      1-12, 14-37
    2   15 P      13
    3    1 H      38-113

          program call               : xtb C1274.xyz --opt --namespace C1274 --charge +1
          :  Hamiltonian                  GFN2-xTB          :
 * total energy  :  -118.0316398 Eh     change       -0.2557670E-09 Eh
 * total energy  :  -118.0389207 Eh     change       -0.7280959E-02 Eh
 * total energy  :  -118.0407613 Eh     change       -0.1840622E-02 Eh
 * total energy  :  -118.0411191 Eh     change       -0.3577174E-03 Eh
 * total energy  :  -118.0413988 Eh     change       -0.2797253E-03 Eh
 * total energy  :  -118.0416065 Eh     change       -0.2077512E-03 Eh
 * total energy  :  -118.0418506 Eh     change       -0.2441070E-03 Eh
 * total energy  :  -118.0421146 Eh     change       -0.2639393E-03 Eh
 * total energy  :  -118.0423591 Eh     change       -0.2444802E-03 Eh
 * total energy  :  -118.0425949 Eh     change       -0.2358733E-03 Eh
 * total energy  :  -118.0475864 Eh     change       -0.2858904E-04 Eh
 * total energy  :  -118.0476112 Eh     change       -0.2479246E-04 Eh
 * total energy  :  -118.0476406 Eh     change       -0.2944318E-04 Eh
 * total energy  :  -118.0476695 Eh     change       -0.2889102E-04 Eh
 * total energy  :  -118.0476905 Eh     change       -0.2106510E-04 Eh
 * total energy  :  -118.0477001 Eh     change       -0.9541851E-05 Eh
 * total energy  :  -118.0477078 Eh     change       -0.7676831E-05 Eh
 * total energy  :  -118.0477157 Eh     change       -0.7911555E-05 Eh
 * total energy  :  -118.0477195 Eh     change       -0.3817029E-05 Eh
   *** GEOMETRY OPTIMIZATION CONVERGED AFTER 97 ITERATIONS ***

 final structure:
================
113
 xtb: 6.7.1 (edcfbbe)
C            1.75988916400303        0.15218737617981       -0.49871132032894
C            1.75525711268965       -0.02666611836191       -2.01216391696333
C            2.34742073104452       -1.36268899651852       -2.46441690082217
C            1.60981043029605       -2.60329690345295       -1.95501760514414
C            0.12080168156566       -2.65663116319627       -2.30058558676074
C           -0.18891200589228       -2.62093256579404       -3.79773618377953
C            0.32136987878908       -3.82504117763709       -4.59141661412893
C           -0.22835508948622       -5.18389339241955       -4.14442301315203
C           -1.74990139617059       -5.24628267508225       -3.98751785395755
C           -2.51567809332200       -4.95964252057294       -5.28616927995794
C           -2.98295914243380       -6.22156342374457       -6.00990410739681
C           -4.15758756242444       -6.93451222998087       -5.32502331162000
P           -5.82234420159878       -6.32943268693119       -5.79760256220077
C           -5.94376479555856       -6.35340074718888       -7.62737082353251
C           -5.30477641733744       -7.53778599527730       -8.35786195974373
C           -5.95981588934304       -8.89442989269283       -8.10133992194195
C           -7.39605544112262       -9.02761878006033       -8.61384025400422
C           -7.56804570431893       -8.78793081425358      -10.11628103047466
C           -6.70464369388664       -9.67162581964213      -11.01918210426694
C           -6.91826981917067      -11.17607908213319      -10.84430328529315
C           -8.33506952737737      -11.62515188629451      -11.18084134471527
C           -7.15810328760404       -7.39763707259949       -5.11644322491323
C           -6.76206052066466       -8.38171354523488       -4.01358981059850
C           -6.55745946571392       -7.72160014113761       -2.65015261792012
C           -7.85782881027871       -7.31376465109111       -1.95203069429227
C           -8.73965859472226       -8.48014847960459       -1.49919489416767
C           -8.09362079658287       -9.43436723553495       -0.49249593820427
C           -7.61541160909159       -8.77820504077333        0.80383347484405
C           -8.74062800300870       -8.12194585255732        1.59530564528444
C           -6.23140084182110       -4.57788618368465       -5.41412650319843
C           -6.56462429703617       -4.21467628500082       -3.96524092121920
C           -5.34175613879230       -4.04703698936560       -3.06123411515809
C           -4.64055528637639       -2.69657095235521       -3.24187851533909
C           -5.28850432690997       -1.55946163152244       -2.44892927664361
C           -5.07548892865741       -1.63673824574033       -0.93500007061387
C           -3.61657797618895       -1.57383453037322       -0.47664585026950
C           -2.90295578159256       -0.29411187881728       -0.89621941368990
H            1.10343494260630       -0.56686691620907       -0.01474812652018
H            1.41904602578359        1.15130330342487       -0.23670558123156
H            2.76459430194368        0.01976104953272       -0.10391714783778
H            0.73540544732405        0.07636837680278       -2.38810853712806
H            2.34709486781276        0.77394230647673       -2.46212013930488
H            2.37716373651938       -1.38006101548970       -3.55613164673368
H            3.38101654732538       -1.42050594168975       -2.11493827178808
H            2.10828333973157       -3.48692461057191       -2.35957810100289
H            1.70672626491625       -2.65369018935241       -0.86893640520273
H           -0.29844128606900       -3.56484219350692       -1.86092187794474
H           -0.38312707017537       -1.81165198563573       -1.82882969619443
H           -1.27034147582615       -2.53378223067795       -3.93128006916399
H            0.25239100932045       -1.72144013096361       -4.22912462949837
H            0.08310442938856       -3.65992682910679       -5.64547444581970
H            1.40898935598506       -3.86601364388204       -4.52287239619310
H            0.09133762990798       -5.93747039523354       -4.86848334671284
H            0.21827752194504       -5.44921732858565       -3.18500875178641
H           -2.00883760460991       -6.24007445166557       -3.61309127645086
H           -2.04814384771267       -4.53196420903876       -3.22079697592985
H           -3.37587765742188       -4.32591393937127       -5.07819965167695
H           -1.86802154329371       -4.40404797851033       -5.96299924628714
H           -3.24880886925641       -5.96167739119546       -7.03615426232329
H           -2.14616672873008       -6.92107425101644       -6.05872083425254
H           -4.16438202700689       -7.99188021793400       -5.60946931041527
H           -4.05566525540765       -6.88842755753130       -4.23954294785849
H           -7.00829415058438       -6.28839112204178       -7.87030196232280
H           -5.47696145230496       -5.42525912736987       -7.97432352617134
H           -5.34856631225839       -7.32323153131471       -9.42655407553846
H           -4.24893838666662       -7.60961712525411       -8.09280569088609
H           -5.34915060685003       -9.65351552288596       -8.59119460887852
H           -5.93843413486696       -9.11355196146995       -7.02921465274381
H           -7.74381921708524      -10.03329071955321       -8.37375826069629
H           -8.05449127297173       -8.33077071893646       -8.08617888085879
H           -8.61822456501488       -8.95125167494645      -10.36155491616451
H           -7.35050384298173       -7.74231388563127      -10.34826333401658
H           -6.93147992138829       -9.40903803912884      -12.05475157362831
H           -5.64859995808598       -9.44471128789296      -10.85540772371600
H           -6.22046961131919      -11.69189783980502      -11.50734459082317
H           -6.67360101102997      -11.47535325238415       -9.82309980216085
H           -8.60920605319923      -11.29869846221656      -12.18121551680422
H           -8.40210967396733      -12.70958681433438      -11.14619319076344
H           -9.05756169377724      -11.22117985979381      -10.47596764716415
H           -7.94549959257941       -6.73008131542189       -4.75744823954588
H           -7.56616266506203       -7.94834418022197       -5.96642692119584
H           -7.55438897364302       -9.12647343065555       -3.92987136835234
H           -5.85506316335278       -8.91698562618536       -4.30127395757069
H           -6.01911157790997       -8.41392345805701       -2.00326177045475
H           -5.92983692939203       -6.83457215287034       -2.77398070523206
H           -7.60076349989833       -6.70799452895181       -1.08244578289533
H           -8.45625922895248       -6.68186667288005       -2.61441277386397
H           -9.64388440975701       -8.06057596197345       -1.05650409262240
H           -9.05636363740395       -9.06194253871100       -2.36816485518625
H           -8.83233546381260      -10.19819645565041       -0.24057889105230
H           -7.25066821350981       -9.94806988420405       -0.96062767414457
H           -7.15737185720630       -9.55305691895215        1.42216577823778
H           -6.84084121015650       -8.03928417154117        0.58791030735847
H           -9.54108584223815       -8.83471900037529        1.77878680145781
H           -8.36934177118363       -7.77241567752886        2.55536127669176
H           -9.15433903558588       -7.26839193727819        1.06395363397626
H           -5.41750515637142       -3.95468193098066       -5.79176087203004
H           -7.10862617642221       -4.38260594031997       -6.04357347028463
H           -7.11639829697847       -3.27281522829203       -3.97889848643603
H           -7.23103276208151       -4.96679245914889       -3.54174713780618
H           -5.66111015794782       -4.13708823832866       -2.02290233838414
H           -4.63692387311869       -4.85833944795619       -3.25291927625298
H           -3.60026869807530       -2.78649336785584       -2.92996155888158
H           -4.63778190662598       -2.42079505947674       -4.29974711340344
H           -4.88546632598156       -0.61335959655330       -2.81123035634891
H           -6.36360637737964       -1.54655034365193       -2.64436375208330
H           -5.61480769568307       -0.80248950659335       -0.48166399260998
H           -5.52151356744668       -2.55523074195740       -0.54571515845211
H           -3.60920350670598       -1.63826980077747        0.61349837720058
H           -3.06481393757713       -2.43906938190364       -0.85069873839102
H           -3.47540922487848        0.57815178298419       -0.58980344181791
H           -1.92448590085951       -0.23878103641247       -0.42492579938145
H           -2.76165510812589       -0.25371026507431       -1.97376231576014

          :  Hamiltonian                  GFN2-xTB          :
         :: total energy            -118.047719497268 Eh    ::
         :: gradient norm              0.000315450699 Eh/a0 ::
         :: HOMO-LUMO gap              4.705207363932 eV    ::
         :: SCC energy              -119.789658124437 Eh    ::
         :: -> dispersion             -0.107754376096 Eh    ::
         :: repulsion energy           1.741938627169 Eh    ::

    * Orbital Energies and Occupations

         #    Occupation            Energy/Eh            Energy/eV
      -------------------------------------------------------------
         1        2.0000           -0.8353550             -22.7312
       ...           ...                  ...                  ...
       100        2.0000           -0.4979073             -13.5487
       101        2.0000           -0.4977646             -13.5449
       102        2.0000           -0.4956919             -13.4885
       103        2.0000           -0.4944908             -13.4558
       104        2.0000           -0.4935930             -13.4313
       105        2.0000           -0.4935089             -13.4291
       106        2.0000           -0.4920685             -13.3899
       107        2.0000           -0.4912305             -13.3671
       108        2.0000           -0.4907141             -13.3530
       109        2.0000           -0.4878613             -13.2754
       110        2.0000           -0.4731344             -12.8746
       111        2.0000           -0.4695723             -12.7777
       112        2.0000           -0.4678943             -12.7321 (HOMO)
       113                         -0.2949812              -8.0268 (LUMO)
       114                         -0.2769325              -7.5357
       115                         -0.2595573              -7.0629
       116                         -0.1898955              -5.1673
       117                         -0.1114392              -3.0324
       118                         -0.0708449              -1.9278
       119                         -0.0513128              -1.3963
       120                         -0.0472749              -1.2864
       121                         -0.0444941              -1.2107
       122                         -0.0398281              -1.0838
       123                         -0.0342600              -0.9323
       ...                                ...                  ...
       229                          0.8110619              22.0701
      -------------------------------------------------------------
                  HL-Gap            0.1729132 Eh            4.7052 eV

     #   Z          covCN         q      C6AA      α(0)
     1   6 C        3.751    -0.102    22.505     6.765
     2   6 C        3.799    -0.052    21.515     6.604
     3   6 C        3.800    -0.058    21.620     6.620
     4   6 C        3.800    -0.058    21.616     6.620
     5   6 C        3.800    -0.057    21.601     6.617
     6   6 C        3.800    -0.058    21.609     6.619
     7   6 C        3.800    -0.059    21.635     6.623
     8   6 C        3.800    -0.060    21.657     6.626
     9   6 C        3.800    -0.060    21.664     6.627
    10   6 C        3.801    -0.070    21.837     6.653
    11   6 C        3.845    -0.062    21.666     6.621
    12   6 C        3.749    -0.066    21.829     6.663
    13  15 P        3.876     0.181   152.438    22.179
    14   6 C        3.749    -0.078    22.058     6.698
    15   6 C        3.835    -0.065    21.714     6.630
    16   6 C        3.800    -0.064    21.728     6.637
    17   6 C        3.799    -0.059    21.632     6.622
    18   6 C        3.800    -0.060    21.662     6.627
    19   6 C        3.800    -0.061    21.665     6.627
    20   6 C        3.799    -0.054    21.546     6.609
    21   6 C        3.751    -0.105    22.565     6.774
    22   6 C        3.750    -0.077    22.032     6.694
    23   6 C        3.835    -0.063    21.679     6.624
    24   6 C        3.800    -0.065    21.756     6.641
    25   6 C        3.800    -0.059    21.632     6.622
    26   6 C        3.800    -0.061    21.671     6.628
    27   6 C        3.800    -0.061    21.664     6.627
    28   6 C        3.799    -0.054    21.545     6.609
    29   6 C        3.751    -0.105    22.565     6.774
    30   6 C        3.749    -0.073    21.961     6.684
    31   6 C        3.830    -0.064    21.706     6.629
    32   6 C        3.801    -0.064    21.724     6.636
    33   6 C        3.800    -0.059    21.645     6.624
    34   6 C        3.800    -0.061    21.682     6.630
    35   6 C        3.800    -0.060    21.655     6.626
    36   6 C        3.799    -0.053    21.532     6.607
    37   6 C        3.751    -0.103    22.526     6.768
    38   1 H        0.925     0.032     2.561     2.503
    39   1 H        0.925     0.032     2.552     2.498
    40   1 H        0.925     0.036     2.500     2.472
    41   1 H        0.924     0.028     2.610     2.526
    42   1 H        0.924     0.029     2.596     2.520
    43   1 H        0.924     0.027     2.623     2.533
    44   1 H        0.924     0.032     2.553     2.499
    45   1 H        0.924     0.028     2.616     2.530
    46   1 H        0.924     0.034     2.533     2.489
    47   1 H        0.924     0.023     2.690     2.565
    48   1 H        0.924     0.037     2.495     2.470
    49   1 H        0.924     0.021     2.722     2.580
    50   1 H        0.924     0.038     2.478     2.462
    51   1 H        0.924     0.023     2.695     2.567
    52   1 H        0.924     0.042     2.428     2.437
    53   1 H        0.924     0.028     2.609     2.526
    54   1 H        0.924     0.040     2.443     2.444
    55   1 H        0.924     0.024     2.668     2.555
    56   1 H        0.925     0.041     2.430     2.438
    57   1 H        0.925     0.037     2.486     2.465
    58   1 H        0.925     0.057     2.230     2.335
    59   1 H        0.924     0.047     2.360     2.403
    60   1 H        0.924     0.064     2.157     2.297
    61   1 H        0.929     0.088     1.899     2.155
    62   1 H        0.926     0.094     1.838     2.120
    63   1 H        0.927     0.085     1.926     2.170
    64   1 H        0.927     0.078     1.996     2.209
    65   1 H        0.924     0.067     2.115     2.274
    66   1 H        0.924     0.049     2.338     2.391
    67   1 H        0.924     0.057     2.232     2.336
    68   1 H        0.924     0.027     2.629     2.536
    69   1 H        0.924     0.046     2.367     2.406
    70   1 H        0.924     0.016     2.794     2.614
    71   1 H        0.924     0.044     2.392     2.418
    72   1 H        0.924     0.025     2.659     2.550
    73   1 H        0.924     0.039     2.459     2.452
    74   1 H        0.924     0.026     2.639     2.541
    75   1 H        0.924     0.035     2.518     2.481
    76   1 H        0.924     0.027     2.622     2.532
    77   1 H        0.925     0.039     2.457     2.451
    78   1 H        0.925     0.039     2.467     2.456
    79   1 H        0.925     0.033     2.547     2.496
    80   1 H        0.926     0.088     1.898     2.154
    81   1 H        0.927     0.090     1.875     2.141
    82   1 H        0.924     0.068     2.109     2.271
    83   1 H        0.924     0.043     2.413     2.429
    84   1 H        0.925     0.055     2.256     2.349
    85   1 H        0.924     0.032     2.553     2.499
    86   1 H        0.924     0.046     2.375     2.410
    87   1 H        0.924     0.020     2.738     2.588
    88   1 H        0.924     0.044     2.392     2.419
    89   1 H        0.924     0.026     2.640     2.541
    90   1 H        0.924     0.039     2.459     2.452
    91   1 H        0.924     0.026     2.640     2.541
    92   1 H        0.924     0.035     2.522     2.484
    93   1 H        0.924     0.027     2.632     2.537
    94   1 H        0.925     0.039     2.457     2.451
    95   1 H        0.925     0.038     2.477     2.461
    96   1 H        0.925     0.033     2.547     2.496
    97   1 H        0.926     0.089     1.893     2.151
    98   1 H        0.929     0.081     1.973     2.196
    99   1 H        0.924     0.064     2.153     2.294
   100   1 H        0.924     0.051     2.310     2.377
   101   1 H        0.925     0.053     2.284     2.363
   102   1 H        0.924     0.032     2.557     2.501
   103   1 H        0.925     0.045     2.381     2.413
   104   1 H        0.924     0.022     2.698     2.569
   105   1 H        0.924     0.044     2.401     2.423
   106   1 H        0.924     0.028     2.619     2.531
   107   1 H        0.924     0.039     2.467     2.456
   108   1 H        0.924     0.025     2.652     2.547
   109   1 H        0.924     0.034     2.526     2.485
   110   1 H        0.924     0.027     2.637     2.539
   111   1 H        0.925     0.038     2.469     2.457
   112   1 H        0.925     0.038     2.480     2.463
   113   1 H        0.925     0.032     2.556     2.500

Wiberg/Mayer (AO) data.
largest (>0.10) Wiberg bond orders for each atom

     #   Z sym  total        # sym  WBO       # sym  WBO       # sym  WBO
 ---------------------------------------------------------------------------
     1   6 C    3.997 --     2 C    1.020    40 H    0.987    39 H    0.987
                            38 H    0.986
     2   6 C    3.998 --     1 C    1.020     3 C    1.008    42 H    0.978
                            41 H    0.976
     3   6 C    3.997 --     2 C    1.008     4 C    1.007    44 H    0.977
                            43 H    0.976
     4   6 C    3.997 --     5 C    1.008     3 C    1.007    46 H    0.976
                            45 H    0.975
     5   6 C    3.998 --     6 C    1.008     4 C    1.008    47 H    0.975
                            48 H    0.973
     6   6 C    3.997 --     7 C    1.008     5 C    1.008    49 H    0.974
                            50 H    0.973
     7   6 C    3.996 --     6 C    1.008     8 C    1.007    52 H    0.974
                            51 H    0.973
     8   6 C    3.996 --     9 C    1.007     7 C    1.007    53 H    0.978
                            54 H    0.975
     9   6 C    3.996 --     8 C    1.007    10 C    1.004    55 H    0.974
                            56 H    0.972
    10   6 C    3.992 --    11 C    1.007     9 C    1.004    58 H    0.968
                            57 H    0.965
    11   6 C    3.987 --    10 C    1.007    12 C    0.983    60 H    0.969
                            59 H    0.964
    12   6 C    3.984 --    13 P    0.999    11 C    0.983    62 H    0.930
                            61 H    0.926
    13  15 P    4.542 --    14 C    1.010    30 C    1.000    12 C    0.999
                            22 C    0.993
    14   6 C    3.989 --    13 P    1.010    15 C    0.990    64 H    0.936
                            63 H    0.933
    15   6 C    3.986 --    16 C    1.008    14 C    0.990    66 H    0.968
                            65 H    0.965
    16   6 C    3.994 --    15 C    1.008    17 C    1.007    67 H    0.971
                            68 H    0.964
    17   6 C    3.996 --    16 C    1.007    18 C    1.006    69 H    0.974
                            70 H    0.970
    18   6 C    3.996 --    19 C    1.008    17 C    1.006    72 H    0.975
                            71 H    0.974
    19   6 C    3.996 --    20 C    1.008    18 C    1.008    73 H    0.976
                            74 H    0.976
    20   6 C    3.998 --    21 C    1.020    19 C    1.008    75 H    0.978
                            76 H    0.976
    21   6 C    3.996 --    20 C    1.020    77 H    0.987    78 H    0.987
                            79 H    0.986
    22   6 C    3.985 --    13 P    0.993    23 C    0.991    81 H    0.931
                            80 H    0.930
    23   6 C    3.988 --    24 C    1.007    22 C    0.991    83 H    0.968
                            82 H    0.964
    24   6 C    3.994 --    23 C    1.007    25 C    1.007    84 H    0.971
                            85 H    0.962
    25   6 C    3.996 --    24 C    1.007    26 C    1.007    86 H    0.973
                            87 H    0.970
    26   6 C    3.995 --    27 C    1.008    25 C    1.007    88 H    0.974
                            89 H    0.973
    27   6 C    3.997 --    28 C    1.008    26 C    1.008    90 H    0.976
                            91 H    0.975
    28   6 C    3.998 --    29 C    1.020    27 C    1.008    92 H    0.978
                            93 H    0.976
    29   6 C    3.996 --    28 C    1.020    94 H    0.987    95 H    0.987
                            96 H    0.986
    30   6 C    3.986 --    13 P    1.000    31 C    0.992    97 H    0.931
                            98 H    0.929
    31   6 C    3.985 --    32 C    1.007    30 C    0.992    99 H    0.966
                           100 H    0.962
    32   6 C    3.994 --    31 C    1.007    33 C    1.006   101 H    0.970
                           102 H    0.964
    33   6 C    3.995 --    34 C    1.007    32 C    1.006   104 H    0.973
                           103 H    0.968
    34   6 C    3.996 --    35 C    1.008    33 C    1.007   106 H    0.975
                           105 H    0.974
    35   6 C    3.996 --    34 C    1.008    36 C    1.008   107 H    0.976
                           108 H    0.974
    36   6 C    3.998 --    37 C    1.020    35 C    1.008   109 H    0.978
                           110 H    0.975
    37   6 C    3.996 --    36 C    1.020   111 H    0.987   113 H    0.986
                           112 H    0.986
    38   1 H    0.999 --     1 C    0.986
    39   1 H    0.999 --     1 C    0.987
    40   1 H    0.999 --     1 C    0.987
    41   1 H    0.999 --     2 C    0.976
    42   1 H    0.999 --     2 C    0.978
    43   1 H    0.999 --     3 C    0.976
    44   1 H    0.999 --     3 C    0.977
    45   1 H    0.999 --     4 C    0.975
    46   1 H    0.999 --     4 C    0.976
    47   1 H    0.999 --     5 C    0.975
    48   1 H    0.999 --     5 C    0.973
    49   1 H    1.000 --     6 C    0.974
    50   1 H    0.999 --     6 C    0.973
    51   1 H    0.999 --     7 C    0.973
    52   1 H    0.998 --     7 C    0.974
    53   1 H    0.999 --     8 C    0.978
    54   1 H    0.998 --     8 C    0.975
    55   1 H    0.999 --     9 C    0.974
    56   1 H    0.998 --     9 C    0.972
    57   1 H    0.999 --    10 C    0.965
    58   1 H    0.996 --    10 C    0.968
    59   1 H    0.998 --    11 C    0.964
    60   1 H    0.996 --    11 C    0.969
    61   1 H    0.992 --    12 C    0.926
    62   1 H    0.991 --    12 C    0.930
    63   1 H    0.993 --    14 C    0.933
    64   1 H    0.994 --    14 C    0.936
    65   1 H    0.995 --    15 C    0.965
    66   1 H    0.998 --    15 C    0.968
    67   1 H    0.997 --    16 C    0.971
    68   1 H    0.999 --    16 C    0.964
    69   1 H    0.998 --    17 C    0.974
    70   1 H    1.000 --    17 C    0.970
    71   1 H    0.998 --    18 C    0.974
    72   1 H    0.999 --    18 C    0.975
    73   1 H    0.998 --    19 C    0.976
    74   1 H    0.999 --    19 C    0.976
    75   1 H    0.999 --    20 C    0.978
    76   1 H    0.999 --    20 C    0.976
    77   1 H    0.998 --    21 C    0.987
    78   1 H    0.998 --    21 C    0.987
    79   1 H    0.999 --    21 C    0.986
    80   1 H    0.992 --    22 C    0.930
    81   1 H    0.992 --    22 C    0.931
    82   1 H    0.995 --    23 C    0.964
    83   1 H    0.998 --    23 C    0.968
    84   1 H    0.997 --    24 C    0.971
    85   1 H    0.999 --    24 C    0.962
    86   1 H    0.998 --    25 C    0.973
    87   1 H    1.000 --    25 C    0.970
    88   1 H    0.998 --    26 C    0.974
    89   1 H    0.999 --    26 C    0.973
    90   1 H    0.998 --    27 C    0.976
    91   1 H    0.999 --    27 C    0.975
    92   1 H    0.999 --    28 C    0.978
    93   1 H    0.999 --    28 C    0.976
    94   1 H    0.998 --    29 C    0.987
    95   1 H    0.999 --    29 C    0.987
    96   1 H    0.999 --    29 C    0.986
    97   1 H    0.992 --    30 C    0.931
    98   1 H    0.993 --    30 C    0.929
    99   1 H    0.995 --    31 C    0.966
   100   1 H    0.997 --    31 C    0.962
   101   1 H    0.997 --    32 C    0.970
   102   1 H    0.999 --    32 C    0.964
   103   1 H    0.998 --    33 C    0.968
   104   1 H    0.999 --    33 C    0.973
   105   1 H    0.998 --    34 C    0.974
   106   1 H    0.999 --    34 C    0.975
   107   1 H    0.998 --    35 C    0.976
   108   1 H    0.999 --    35 C    0.974
   109   1 H    0.999 --    36 C    0.978
   110   1 H    0.999 --    36 C    0.975
   111   1 H    0.999 --    37 C    0.987
   112   1 H    0.999 --    37 C    0.986
   113   1 H    0.999 --    37 C    0.986
 ---------------------------------------------------------------------------

molecular dipole:
                 x           y           z       tot (Debye)
 q only:      -10.590     -11.930     -10.309
   full:      -10.708     -11.932     -10.496      48.705

           -------------------------------------------------
          | TOTAL ENERGY             -118.047719497268 Eh   |
          | GRADIENT NORM               0.000315450699 Eh/α |
          | HOMO-LUMO GAP               4.705207363932 eV   |
           -------------------------------------------------

 * finished run on 2024/12/20 at 07:18:14.236
