   * xtb version 6.7.1 (edcfbbe) compiled by 'conda@3ef47c1a292c' on 2024-11-25

   ID    Z sym.   atoms
    1    6 C      1-6, 8-16
    2    7 N      7
    3    1 H      17-36

          program call               : xtb C1272.xyz --opt --namespace C1272 --charge +1
          :  Hamiltonian                  GFN2-xTB          :
 * total energy  :   -44.8496065 Eh     change       -0.2081762E-08 Eh
 * total energy  :   -44.8537331 Eh     change       -0.4126599E-02 Eh
 * total energy  :   -44.8545175 Eh     change       -0.7843842E-03 Eh
 * total energy  :   -44.8546002 Eh     change       -0.8276598E-04 Eh
 * total energy  :   -44.8546563 Eh     change       -0.5608983E-04 Eh
 * total energy  :   -44.8546865 Eh     change       -0.3013612E-04 Eh
 * total energy  :   -44.8547126 Eh     change       -0.2616893E-04 Eh
 * total energy  :   -44.8547606 Eh     change       -0.4799036E-04 Eh
 * total energy  :   -44.8547895 Eh     change       -0.2888590E-04 Eh
 * total energy  :   -44.8548315 Eh     change       -0.4201644E-04 Eh
 * total energy  :   -44.8548956 Eh     change       -0.7579887E-05 Eh
 * total energy  :   -44.8549014 Eh     change       -0.5773721E-05 Eh
 * total energy  :   -44.8549067 Eh     change       -0.5308797E-05 Eh
 * total energy  :   -44.8549137 Eh     change       -0.7025777E-05 Eh
 * total energy  :   -44.8549238 Eh     change       -0.1006574E-04 Eh
 * total energy  :   -44.8549386 Eh     change       -0.1479888E-04 Eh
 * total energy  :   -44.8549466 Eh     change       -0.8016603E-05 Eh
 * total energy  :   -44.8549524 Eh     change       -0.5776142E-05 Eh
 * total energy  :   -44.8549566 Eh     change       -0.4259104E-05 Eh
   *** GEOMETRY OPTIMIZATION CONVERGED AFTER 24 ITERATIONS ***

 final structure:
================
36
 xtb: 6.7.1 (edcfbbe)
C            1.12602906796455       -0.05275708454896        0.11096962392627
C            0.55458710861735        0.26349151802109       -1.26538955036509
C            0.98080697894711       -0.73573622619100       -2.34308552029527
C            0.58400960418891       -2.18993997953588       -2.07455959712062
C           -0.91360131243203       -2.43502888055589       -1.88587135412652
C           -1.75183893544092       -2.27624060075545       -3.16317528582899
N           -1.38878601430775       -3.28680717269889       -4.15012832713793
C           -1.76432110492620       -4.53115708504900       -3.87663313471793
C           -1.38601425478753       -5.62058734247186       -4.64627180495126
C           -0.56930946663924       -5.41174218288235       -5.73213283604976
C           -0.18224592644690       -4.10309342663579       -6.06633704000068
C           -0.63094902976132       -3.01054475952992       -5.25967687924000
C           -0.28827026925127       -1.70703978508076       -5.66158176594592
C            0.49461562386785       -1.49853533399768       -6.76854611632232
C            0.97471607385577       -2.57158597287571       -7.53282185139008
C            0.63255442022454       -3.84961256594871       -7.19215444474546
H            0.70662917003799       -0.96977564259191        0.51718222604726
H            0.89812759036464        0.75410251959929        0.80215360920769
H            2.20667638703681       -0.15948520587089        0.05814875500199
H           -0.53459420946902        0.31846126881752       -1.20673025081950
H            0.90670974603461        1.25002377000499       -1.57282245113420
H            0.57986156777090       -0.40592279629538       -3.30326887766292
H            2.06865869768420       -0.70634834128681       -2.42877630694853
H            0.96110783214850       -2.81371948240856       -2.89089793456352
H            1.08828593701031       -2.52024719609732       -1.16645846667466
H           -1.05562111623984       -3.44267310763422       -1.48935292340213
H           -1.30591654561963       -1.73664427591845       -1.14769574318464
H           -2.80890922512197       -2.40536176853671       -2.91816006233274
H           -1.62048868231870       -1.27766176367335       -3.56714953243182
H           -2.38571392162374       -4.67076854746624       -3.00392914439438
H           -1.72531277746007       -6.60616628054937       -4.37398790519600
H           -0.22797995741181       -6.23615101927331       -6.33911383134219
H           -0.64568954456153       -0.84468644257038       -5.12580021907263
H            0.74052386066769       -0.48921321982299       -7.05965256855094
H            1.59700401816615       -2.37919810383032       -8.39200857090431
H            0.96912860923337       -4.68973748385983       -7.77922391732996

          :  Hamiltonian                  GFN2-xTB          :
         :: total energy             -44.854956650265 Eh    ::
         :: gradient norm              0.000404732895 Eh/a0 ::
         :: HOMO-LUMO gap              1.612128712166 eV    ::
         :: SCC energy               -45.623292121757 Eh    ::
         :: -> dispersion             -0.033402453806 Eh    ::
         :: repulsion energy           0.768335471492 Eh    ::

    * Orbital Energies and Occupations

         #    Occupation            Energy/Eh            Energy/eV
      -------------------------------------------------------------
         1        2.0000           -0.8591504             -23.3787
       ...           ...                  ...                  ...
        30        2.0000           -0.6048719             -16.4594
        31        2.0000           -0.5922010             -16.1146
        32        2.0000           -0.5863296             -15.9548
        33        2.0000           -0.5851852             -15.9237
        34        2.0000           -0.5780455             -15.7294
        35        2.0000           -0.5764117             -15.6850
        36        2.0000           -0.5665293             -15.4160
        37        2.0000           -0.5608442             -15.2613
        38        2.0000           -0.5550477             -15.1036
        39        2.0000           -0.5510387             -14.9945
        40        2.0000           -0.5295827             -14.4107
        41        2.0000           -0.5230409             -14.2327
        42        2.0000           -0.5178523             -14.0915 (HOMO)
        43                         -0.4586077             -12.4793 (LUMO)
        44                         -0.4059365             -11.0461
        45                         -0.3728517             -10.1458
        46                         -0.3219059              -8.7595
        47                         -0.2387992              -6.4981
        48                         -0.1679411              -4.5699
        49                         -0.0761462              -2.0720
        50                         -0.0696333              -1.8948
        51                         -0.0519668              -1.4141
        52                         -0.0312579              -0.8506
        53                         -0.0267722              -0.7285
       ...                                ...                  ...
        84                          0.5220843              14.2066
      -------------------------------------------------------------
                  HL-Gap            0.0592446 Eh            1.6121 eV

     #   Z          covCN         q      C6AA      α(0)
     1   6 C        3.752    -0.109    22.645     6.786
     2   6 C        3.799    -0.057    21.594     6.616
     3   6 C        3.800    -0.063    21.708     6.634
     4   6 C        3.800    -0.063    21.714     6.635
     5   6 C        3.801    -0.069    21.818     6.650
     6   6 C        3.762    -0.031    21.178     6.560
     7   7 N        2.745     0.081    19.844     6.616
     8   6 C        2.897     0.039    27.130     8.540
     9   6 C        2.910    -0.024    28.611     8.771
    10   6 C        2.925     0.004    27.938     8.668
    11   6 C        2.986     0.027    27.394     8.586
    12   6 C        2.936     0.070    26.433     8.432
    13   6 C        2.913    -0.034    28.857     8.809
    14   6 C        2.918    -0.004    28.115     8.695
    15   6 C        2.913    -0.009    28.253     8.716
    16   6 C        2.920    -0.019    28.478     8.751
    17   1 H        0.925     0.035     2.516     2.480
    18   1 H        0.925     0.046     2.368     2.406
    19   1 H        0.925     0.043     2.410     2.428
    20   1 H        0.924     0.029     2.608     2.525
    21   1 H        0.924     0.042     2.419     2.432
    22   1 H        0.924     0.021     2.722     2.580
    23   1 H        0.924     0.046     2.373     2.409
    24   1 H        0.924     0.020     2.728     2.583
    25   1 H        0.925     0.062     2.176     2.307
    26   1 H        0.924     0.048     2.350     2.397
    27   1 H        0.925     0.080     1.977     2.199
    28   1 H        0.924     0.082     1.963     2.191
    29   1 H        0.925     0.091     1.866     2.136
    30   1 H        0.926     0.101     1.774     2.083
    31   1 H        0.926     0.097     1.814     2.106
    32   1 H        0.926     0.095     1.828     2.114
    33   1 H        0.926     0.073     2.049     2.239
    34   1 H        0.926     0.085     1.930     2.172
    35   1 H        0.926     0.085     1.926     2.170
    36   1 H        0.926     0.081     1.968     2.194

Wiberg/Mayer (AO) data.
largest (>0.10) Wiberg bond orders for each atom

     #   Z sym  total        # sym  WBO       # sym  WBO       # sym  WBO
 ---------------------------------------------------------------------------
     1   6 C    3.995 --     2 C    1.021    19 H    0.987    17 H    0.986
                            18 H    0.986
     2   6 C    3.997 --     1 C    1.021     3 C    1.007    21 H    0.977
                            20 H    0.975
     3   6 C    3.995 --     2 C    1.007     4 C    1.006    23 H    0.975
                            22 H    0.972
     4   6 C    3.993 --     5 C    1.008     3 C    1.006    24 H    0.976
                            25 H    0.970
     5   6 C    3.982 --     4 C    1.008     6 C    0.978    26 H    0.972
                            27 H    0.962
     6   6 C    3.937 --     5 C    0.978     7 N    0.962    28 H    0.961
                            29 H    0.957
     7   7 N    3.741 --     8 C    1.385    12 C    1.191     6 C    0.962
     8   6 C    3.960 --     9 C    1.393     7 N    1.385    30 H    0.954
     9   6 C    3.985 --    10 C    1.484     8 C    1.393    31 H    0.961
    10   6 C    3.973 --     9 C    1.484    11 C    1.313    32 H    0.961
    11   6 C    3.990 --    10 C    1.313    16 C    1.271    12 C    1.221
    12   6 C    3.963 --    13 C    1.306    11 C    1.221     7 N    1.191
    13   6 C    3.988 --    14 C    1.531    12 C    1.306    33 H    0.950
                            16 C    0.112
    14   6 C    3.982 --    13 C    1.531    15 C    1.322    34 H    0.965
    15   6 C    3.984 --    16 C    1.555    14 C    1.322    35 H    0.964
    16   6 C    3.985 --    15 C    1.555    11 C    1.271    36 H    0.963
                            13 C    0.112
    17   1 H    0.999 --     1 C    0.986
    18   1 H    0.998 --     1 C    0.986
    19   1 H    0.998 --     1 C    0.987
    20   1 H    0.999 --     2 C    0.975
    21   1 H    0.998 --     2 C    0.977
    22   1 H    1.000 --     3 C    0.972
    23   1 H    0.998 --     3 C    0.975
    24   1 H    1.000 --     4 C    0.976
    25   1 H    0.995 --     4 C    0.970
    26   1 H    0.998 --     5 C    0.972
    27   1 H    0.992 --     5 C    0.962
    28   1 H    0.993 --     6 C    0.961
    29   1 H    0.991 --     6 C    0.957
    30   1 H    0.989 --     8 C    0.954
    31   1 H    0.990 --     9 C    0.961
    32   1 H    0.990 --    10 C    0.961
    33   1 H    0.994 --    13 C    0.950
    34   1 H    0.992 --    14 C    0.965
    35   1 H    0.992 --    15 C    0.964
    36   1 H    0.993 --    16 C    0.963
 ---------------------------------------------------------------------------

molecular dipole:
                 x           y           z       tot (Debye)
 q only:       -1.323      -6.195      -8.817
   full:       -1.434      -6.290      -8.836      27.808

           -------------------------------------------------
          | TOTAL ENERGY              -44.854956650265 Eh   |
          | GRADIENT NORM               0.000404732895 Eh/α |
          | HOMO-LUMO GAP               1.612128712166 eV   |
           -------------------------------------------------

 * finished run on 2024/12/20 at 07:17:58.063
