   * xtb version 6.7.1 (edcfbbe) compiled by 'conda@3ef47c1a292c' on 2024-11-25

   ID    Z sym.   atoms
    1    6 C      1-8, 10, 11, 13, 14
    2    7 N      9, 12
    3    1 H      15-37

          program call               : xtb C1275.xyz --opt --namespace C1275 --charge +1
          :  Hamiltonian                  GFN2-xTB          :
 * total energy  :   -42.9111181 Eh     change       -0.5204726E-10 Eh
 * total energy  :   -42.9144722 Eh     change       -0.3354139E-02 Eh
 * total energy  :   -42.9152485 Eh     change       -0.7763196E-03 Eh
 * total energy  :   -42.9154091 Eh     change       -0.1605250E-03 Eh
 * total energy  :   -42.9155277 Eh     change       -0.1185810E-03 Eh
 * total energy  :   -42.9155729 Eh     change       -0.4525114E-04 Eh
 * total energy  :   -42.9156263 Eh     change       -0.5343316E-04 Eh
 * total energy  :   -42.9156989 Eh     change       -0.7256258E-04 Eh
 * total energy  :   -42.9157569 Eh     change       -0.5802186E-04 Eh
 * total energy  :   -42.9157827 Eh     change       -0.2575257E-04 Eh
 * total energy  :   -42.9160373 Eh     change       -0.5280644E-05 Eh
 * total energy  :   -42.9160422 Eh     change       -0.4880765E-05 Eh
 * total energy  :   -42.9160521 Eh     change       -0.9933662E-05 Eh
 * total energy  :   -42.9160616 Eh     change       -0.9446198E-05 Eh
 * total energy  :   -42.9160676 Eh     change       -0.5994277E-05 Eh
 * total energy  :   -42.9160729 Eh     change       -0.5338696E-05 Eh
 * total energy  :   -42.9160744 Eh     change       -0.1483912E-05 Eh
 * total energy  :   -42.9160795 Eh     change       -0.5135777E-05 Eh
 * total energy  :   -42.9160819 Eh     change       -0.2343155E-05 Eh
   *** GEOMETRY OPTIMIZATION CONVERGED AFTER 37 ITERATIONS ***

 final structure:
================
37
 xtb: 6.7.1 (edcfbbe)
C            1.18134766857509       -0.11034900884590        0.29702001978605
C            0.71968038993865        1.22548204806702        0.86700462651565
C            1.13482311729996        2.42302227387194        0.01055901474013
C            0.54710311304310        2.44059362571649       -1.40233144296164
C           -0.98212432537549        2.43018184352810       -1.46766085661148
C           -1.66910303326789        3.57716414649464       -0.72163823715570
C           -1.26570001280095        4.97850997558656       -1.18166611342380
C           -1.64742159805027        5.29249359934581       -2.63364147966491
N           -3.08215901270185        5.31532301916865       -2.80453264546537
C           -3.86227444573916        4.26586561667973       -3.17938322583307
C           -5.15705562914834        4.68847827579680       -3.14698012451969
N           -5.14712211892841        5.98985581363747       -2.74639657643860
C           -3.88167929882938        6.34591158885198       -2.54307838281505
C           -6.30837894002783        6.82506529214351       -2.59857743817840
H            0.68646839881316       -0.33307261615731       -0.64504725935672
H            0.95371867772495       -0.91305307724969        0.99379992047952
H            2.25552011861356       -0.10020837427676        0.12848427711675
H           -0.36448586567793        1.21197535229251        0.99597856904012
H            1.16007723946899        1.35448159724248        1.85795280140546
H            0.86153030070804        3.34197039187196        0.53441013323193
H            2.22289600317782        2.41907818500688       -0.08292068632799
H            0.93307236514768        3.31906136698772       -1.92562926205419
H            0.90948933898959        1.56732417759716       -1.94599760142420
H           -1.27737458777658        2.43285477249301       -2.52063573983870
H           -1.34749444608880        1.49451576765591       -1.04336139449973
H           -2.75313468453492        3.45705802824858       -0.81054110792433
H           -1.42861330484531        3.49586753043419        0.33810330889697
H           -1.72966267861872        5.71827791838114       -0.52532661581939
H           -0.18638262893512        5.09241977862891       -1.09385009185448
H           -1.24996005506099        6.26939993054589       -2.91612536529701
H           -1.23381535675884        4.53687277589657       -3.30191261705786
H           -3.45761315913883        3.31066848859045       -3.44491712851749
H           -6.06157669442237        4.16295200772130       -3.37603073758926
H           -3.55426622319222        7.31682926543874       -2.22494041050415
H           -6.02999911748739        7.77032427353698       -2.13849562712135
H           -6.75616344418374        7.02293127621903       -3.57378633134306
H           -7.04933606990811        6.32659307285115       -1.97366817161262

          :  Hamiltonian                  GFN2-xTB          :
         :: total energy             -42.916081876661 Eh    ::
         :: gradient norm              0.000268346134 Eh/a0 ::
         :: HOMO-LUMO gap              2.391608422109 eV    ::
         :: SCC energy               -43.566654767574 Eh    ::
         :: -> dispersion             -0.028713826407 Eh    ::
         :: repulsion energy           0.650572890913 Eh    ::

    * Orbital Energies and Occupations

         #    Occupation            Energy/Eh            Energy/eV
      -------------------------------------------------------------
         1        2.0000           -0.8969862             -24.4082
       ...           ...                  ...                  ...
        28        2.0000           -0.5901384             -16.0585
        29        2.0000           -0.5872723             -15.9805
        30        2.0000           -0.5850816             -15.9209
        31        2.0000           -0.5725375             -15.5795
        32        2.0000           -0.5660344             -15.4026
        33        2.0000           -0.5553421             -15.1116
        34        2.0000           -0.5507468             -14.9866
        35        2.0000           -0.5354213             -14.5696
        36        2.0000           -0.5287286             -14.3874
        37        2.0000           -0.5240370             -14.2598
        38        2.0000           -0.5031242             -13.6907
        39        2.0000           -0.4993580             -13.5882
        40        2.0000           -0.4950036             -13.4697 (HOMO)
        41                         -0.4071136             -11.0781 (LUMO)
        42                         -0.3709298             -10.0935
        43                         -0.1836480              -4.9973
        44                         -0.1285367              -3.4977
        45                         -0.0626493              -1.7048
        46                         -0.0514765              -1.4007
        47                         -0.0479046              -1.3035
        48                         -0.0318156              -0.8657
        49                         -0.0194821              -0.5301
        50                         -0.0102165              -0.2780
        51                         -0.0062874              -0.1711
       ...                                ...                  ...
        79                          0.4633754              12.6091
      -------------------------------------------------------------
                  HL-Gap            0.0878900 Eh            2.3916 eV

     #   Z          covCN         q      C6AA      α(0)
     1   6 C        3.751    -0.105    22.571     6.775
     2   6 C        3.799    -0.054    21.551     6.610
     3   6 C        3.800    -0.061    21.676     6.629
     4   6 C        3.800    -0.062    21.691     6.631
     5   6 C        3.800    -0.061    21.682     6.630
     6   6 C        3.800    -0.065    21.751     6.640
     7   6 C        3.801    -0.070    21.832     6.652
     8   6 C        3.742    -0.028    21.155     6.562
     9   7 N        2.868     0.073    19.977     6.638
    10   6 C        3.075    -0.004    28.035     8.681
    11   6 C        3.073    -0.010    28.197     8.706
    12   7 N        2.867     0.077    19.899     6.625
    13   6 C        3.102     0.044    26.887     8.497
    14   6 C        3.692    -0.086    22.338     6.763
    15   1 H        0.925     0.033     2.544     2.494
    16   1 H        0.925     0.039     2.462     2.454
    17   1 H        0.925     0.040     2.452     2.449
    18   1 H        0.924     0.028     2.621     2.532
    19   1 H        0.924     0.035     2.511     2.478
    20   1 H        0.924     0.026     2.644     2.543
    21   1 H        0.924     0.040     2.445     2.445
    22   1 H        0.924     0.025     2.661     2.551
    23   1 H        0.924     0.046     2.366     2.406
    24   1 H        0.924     0.018     2.767     2.601
    25   1 H        0.924     0.050     2.317     2.381
    26   1 H        0.924     0.023     2.690     2.565
    27   1 H        0.925     0.062     2.172     2.304
    28   1 H        0.924     0.046     2.367     2.406
    29   1 H        0.925     0.080     1.981     2.201
    30   1 H        0.924     0.080     1.974     2.197
    31   1 H        0.924     0.096     1.820     2.110
    32   1 H        0.926     0.111     1.689     2.032
    33   1 H        0.926     0.109     1.705     2.042
    34   1 H        0.926     0.112     1.681     2.027
    35   1 H        0.925     0.099     1.790     2.092
    36   1 H        0.924     0.107     1.723     2.053
    37   1 H        0.925     0.108     1.718     2.050

Wiberg/Mayer (AO) data.
largest (>0.10) Wiberg bond orders for each atom

     #   Z sym  total        # sym  WBO       # sym  WBO       # sym  WBO
 ---------------------------------------------------------------------------
     1   6 C    3.996 --     2 C    1.020    17 H    0.987    16 H    0.987
                            15 H    0.986
     2   6 C    3.998 --     1 C    1.020     3 C    1.008    19 H    0.978
                            18 H    0.976
     3   6 C    3.997 --     2 C    1.008     4 C    1.007    21 H    0.976
                            20 H    0.976
     4   6 C    3.996 --     3 C    1.007     5 C    1.007    22 H    0.975
                            23 H    0.974
     5   6 C    3.995 --     4 C    1.007     6 C    1.007    24 H    0.974
                            25 H    0.973
     6   6 C    3.993 --     7 C    1.008     5 C    1.007    26 H    0.975
                            27 H    0.969
     7   6 C    3.983 --     6 C    1.008     8 C    0.980    28 H    0.975
                            29 H    0.963
     8   6 C    3.933 --     7 C    0.980     9 N    0.967    30 H    0.965
                            31 H    0.960
     9   7 N    3.721 --    13 C    1.362    10 C    1.233     8 C    0.967
    10   6 C    3.950 --    11 C    1.587     9 N    1.233    32 H    0.959
    11   6 C    3.947 --    10 C    1.587    12 N    1.228    33 H    0.961
    12   7 N    3.721 --    13 C    1.360    11 C    1.228    14 C    0.991
    13   6 C    3.947 --     9 N    1.362    12 N    1.360    34 H    0.954
    14   6 C    3.934 --    12 N    0.991    35 H    0.975    37 H    0.965
                            36 H    0.960
    15   1 H    0.999 --     1 C    0.986
    16   1 H    0.998 --     1 C    0.987
    17   1 H    0.998 --     1 C    0.987
    18   1 H    0.999 --     2 C    0.976
    19   1 H    0.999 --     2 C    0.978
    20   1 H    0.999 --     3 C    0.976
    21   1 H    0.998 --     3 C    0.976
    22   1 H    0.999 --     4 C    0.975
    23   1 H    0.998 --     4 C    0.974
    24   1 H    1.000 --     5 C    0.974
    25   1 H    0.997 --     5 C    0.973
    26   1 H    0.999 --     6 C    0.975
    27   1 H    0.996 --     6 C    0.969
    28   1 H    0.998 --     7 C    0.975
    29   1 H    0.993 --     7 C    0.963
    30   1 H    0.993 --     8 C    0.965
    31   1 H    0.990 --     8 C    0.960
    32   1 H    0.987 --    10 C    0.959
    33   1 H    0.988 --    11 C    0.961
    34   1 H    0.987 --    13 C    0.954
    35   1 H    0.990 --    14 C    0.975
    36   1 H    0.988 --    14 C    0.960
    37   1 H    0.988 --    14 C    0.965
 ---------------------------------------------------------------------------

molecular dipole:
                 x           y           z       tot (Debye)
 q only:       -7.299      10.357      -4.785
   full:       -7.354      10.492      -4.840      34.812

           -------------------------------------------------
          | TOTAL ENERGY              -42.916081876661 Eh   |
          | GRADIENT NORM               0.000268346134 Eh/α |
          | HOMO-LUMO GAP               2.391608422109 eV   |
           -------------------------------------------------

 * finished run on 2024/12/20 at 07:18:15.386
