   * xtb version 6.7.1 (edcfbbe) compiled by 'conda@3ef47c1a292c' on 2024-11-25

   ID    Z sym.   atoms
    1    7 N      1-3, 6, 8, 10-13
    2    6 C      4, 5, 7, 9
    3    1 H      14-19

          program call               : xtb C1279.xyz --opt --namespace C1279 --charge +1
          :  Hamiltonian                  GFN2-xTB          :
 * total energy  :   -37.2594237 Eh     change       -0.7086243E-10 Eh
 * total energy  :   -37.2949254 Eh     change       -0.3550166E-01 Eh
 * total energy  :   -37.3054065 Eh     change       -0.1048112E-01 Eh
 * total energy  :   -37.3104319 Eh     change       -0.5025384E-02 Eh
 * total energy  :   -37.3141913 Eh     change       -0.3759459E-02 Eh
 * total energy  :   -37.3078213 Eh     change        0.6370047E-02 Eh
 * total energy  :   -37.3167525 Eh     change       -0.8931177E-02 Eh
 * total energy  :   -37.3169773 Eh     change       -0.2248420E-03 Eh
 * total energy  :   -37.3185089 Eh     change       -0.1531572E-02 Eh
 * total energy  :   -37.3197844 Eh     change       -0.1275546E-02 Eh
 * total energy  :   -37.3330899 Eh     change       -0.8373950E-05 Eh
 * total energy  :   -37.3330996 Eh     change       -0.9711623E-05 Eh
 * total energy  :   -37.3331095 Eh     change       -0.9936705E-05 Eh
 * total energy  :   -37.3331213 Eh     change       -0.1179413E-04 Eh
 * total energy  :   -37.3331270 Eh     change       -0.5708582E-05 Eh
 * total energy  :   -37.3331360 Eh     change       -0.8974501E-05 Eh
 * total energy  :   -37.3331377 Eh     change       -0.1770209E-05 Eh
 * total energy  :   -37.3331390 Eh     change       -0.1201623E-05 Eh
 * total energy  :   -37.3331397 Eh     change       -0.7979459E-06 Eh
   *** GEOMETRY OPTIMIZATION CONVERGED AFTER 66 ITERATIONS ***

 final structure:
================
19
 xtb: 6.7.1 (edcfbbe)
N            3.56917061442765       -2.11425601250206       -0.20536058838415
N            3.47616650224156       -1.01847811713191       -0.01861499364292
N            3.14657768763665        0.11649399565502        0.17925249944500
C            4.02620673539704        1.23360117305866        0.38250516877761
C            3.38065706560460        2.49583718581722       -0.17966125016608
N            2.08789066460136        2.80380581972011        0.50773085884777
C            0.92762268468116        1.97236724886886        0.04995496999262
N            0.02315385479945        2.70372880698188       -0.40109844048227
C            0.48765088924647        4.04544148098359       -0.26471720053448
N            1.66884706948633        4.12028486548841        0.26484002361473
N           -0.22809438980526        5.08435723474736       -0.64144841632742
N           -1.32576990661887        5.17221075663691       -1.12605631976785
N           -2.30135372922370        5.46195893804676       -1.56922066679622
H            4.22742919680887        1.35928604302859        1.45627816975324
H            4.98708318764224        1.09222588517015       -0.12649936504098
H            4.03229251783773        3.35966892021212       -0.03038667929186
H            3.16935297564051        2.38892622256840       -1.24654506198984
H            2.24516996460513        2.67339401324121        1.52079117275387
H            0.96988641498979        0.90085553941136        0.10544611923239

          :  Hamiltonian                  GFN2-xTB          :
         :: total energy             -37.333139750151 Eh    ::
         :: gradient norm              0.000429523878 Eh/a0 ::
         :: HOMO-LUMO gap              1.371326554155 eV    ::
         :: SCC energy               -37.841601044840 Eh    ::
         :: -> dispersion             -0.015425244440 Eh    ::
         :: repulsion energy           0.508461294689 Eh    ::

    * Orbital Energies and Occupations

         #    Occupation            Energy/Eh            Energy/eV
      -------------------------------------------------------------
         1        2.0000           -0.9350092             -25.4429
       ...           ...                  ...                  ...
        21        2.0000           -0.7145955             -19.4451
        22        2.0000           -0.6867655             -18.6878
        23        2.0000           -0.6785427             -18.4641
        24        2.0000           -0.6689691             -18.2036
        25        2.0000           -0.6587540             -17.9256
        26        2.0000           -0.6447195             -17.5437
        27        2.0000           -0.6293132             -17.1245
        28        2.0000           -0.6157847             -16.7564
        29        2.0000           -0.6034934             -16.4219
        30        2.0000           -0.6021428             -16.3851
        31        2.0000           -0.5960917             -16.2205
        32        2.0000           -0.5730479             -15.5934
        33        2.0000           -0.5449823             -14.8297 (HOMO)
        34                         -0.4945870             -13.4584 (LUMO)
        35                         -0.4328708             -11.7790
        36                         -0.4235057             -11.5242
        37                         -0.3941905             -10.7265
        38                         -0.3553301              -9.6690
        39                         -0.3409842              -9.2787
        40                         -0.2711372              -7.3780
        41                         -0.2355393              -6.4093
        42                         -0.1740802              -4.7370
        43                         -0.1425947              -3.8802
        44                         -0.1192989              -3.2463
       ...                                ...                  ...
        58                          0.9566862              26.0328
      -------------------------------------------------------------
                  HL-Gap            0.0503953 Eh            1.3713 eV

     #   Z          covCN         q      C6AA      α(0)
     1   7 N        0.992    -0.153    23.887     7.026
     2   7 N        1.974     0.317    16.784     6.076
     3   7 N        1.904    -0.238    27.074     7.714
     4   6 C        3.744     0.007    20.529     6.464
     5   6 C        3.741    -0.034    21.266     6.579
     6   7 N        3.770     0.139    18.882     6.454
     7   6 C        2.995     0.109    25.584     8.297
     8   7 N        1.858    -0.175    25.596     7.499
     9   6 C        3.078     0.249    22.775     7.824
    10   7 N        1.951    -0.225    26.732     7.667
    11   7 N        1.913    -0.090    23.750     7.226
    12   7 N        1.986     0.364    16.136     5.957
    13   7 N        0.992    -0.059    21.995     6.742
    14   1 H        0.923     0.071     2.077     2.254
    15   1 H        0.924     0.091     1.872     2.139
    16   1 H        0.924     0.127     1.556     1.951
    17   1 H        0.924     0.110     1.699     2.038
    18   1 H        0.859     0.244     0.906     1.491
    19   1 H        0.926     0.147     1.409     1.856

Wiberg/Mayer (AO) data.
largest (>0.10) Wiberg bond orders for each atom

     #   Z sym  total        # sym  WBO       # sym  WBO       # sym  WBO
 ---------------------------------------------------------------------------
     1   7 N    2.968 --     2 N    2.273     3 N    0.609
     2   7 N    3.836 --     1 N    2.273     3 N    1.532
     3   7 N    3.168 --     2 N    1.532     4 C    0.984     1 N    0.609
     4   6 C    3.972 --     5 C    1.003     3 N    0.984    14 H    0.954
                            15 H    0.951
     5   6 C    3.899 --     4 C    1.003    17 H    0.965    16 H    0.957
                             6 N    0.894
     6   7 N    3.804 --    10 N    1.015     7 C    0.898     5 C    0.894
                            18 H    0.879
     7   6 C    3.930 --     8 N    1.919    19 H    0.936     6 N    0.898
                            10 N    0.101
     8   7 N    3.114 --     7 C    1.919     9 C    1.009
     9   6 C    3.964 --    10 N    1.558    11 N    1.253     8 N    1.009
    10   7 N    2.948 --     9 C    1.558     6 N    1.015     7 C    0.101
    11   7 N    3.367 --    12 N    1.480     9 C    1.253    13 N    0.481
    12   7 N    3.854 --    13 N    2.333    11 N    1.480
    13   7 N    3.000 --    12 N    2.333    11 N    0.481
    14   1 H    0.995 --     4 C    0.954
    15   1 H    0.991 --     4 C    0.951
    16   1 H    0.983 --     5 C    0.957
    17   1 H    0.988 --     5 C    0.965
    18   1 H    0.936 --     6 N    0.879
    19   1 H    0.977 --     7 C    0.936
 ---------------------------------------------------------------------------

molecular dipole:
                 x           y           z       tot (Debye)
 q only:        3.456       5.442       0.173
   full:        3.954       5.239       0.557      16.743

           -------------------------------------------------
          | TOTAL ENERGY              -37.333139750151 Eh   |
          | GRADIENT NORM               0.000429523878 Eh/α |
          | HOMO-LUMO GAP               1.371326554155 eV   |
           -------------------------------------------------

 * finished run on 2024/12/20 at 07:18:18.436
