   * xtb version 6.7.1 (edcfbbe) compiled by 'conda@3ef47c1a292c' on 2024-11-25

   ID    Z sym.   atoms
    1    6 C      1-5, 7-11
    2    7 N      6
    3    1 H      12-27

          program call               : xtb C1278.xyz --opt --namespace C1278 --charge +1
          :  Hamiltonian                  GFN2-xTB          :
 * total energy  :   -32.1234503 Eh     change       -0.4015632E-09 Eh
 * total energy  :   -32.1282870 Eh     change       -0.4836669E-02 Eh
 * total energy  :   -32.1288931 Eh     change       -0.6061200E-03 Eh
 * total energy  :   -32.1289547 Eh     change       -0.6158522E-04 Eh
 * total energy  :   -32.1290266 Eh     change       -0.7187730E-04 Eh
 * total energy  :   -32.1290451 Eh     change       -0.1854934E-04 Eh
 * total energy  :   -32.1290669 Eh     change       -0.2182573E-04 Eh
 * total energy  :   -32.1290724 Eh     change       -0.5433510E-05 Eh
 * total energy  :   -32.1290801 Eh     change       -0.7784396E-05 Eh
 * total energy  :   -32.1290894 Eh     change       -0.9231352E-05 Eh
 * total energy  :   -32.1290963 Eh     change       -0.6950006E-05 Eh
 * total energy  :   -32.1290987 Eh     change       -0.2344937E-05 Eh
   *** GEOMETRY OPTIMIZATION CONVERGED AFTER 12 ITERATIONS ***

 final structure:
================
27
 xtb: 6.7.1 (edcfbbe)
C            0.99659152399605        0.12334363861200        0.00555121192865
C            0.48136645077771        1.50182409101230        0.21264009003935
C            1.30573079340635        2.59293151713913       -0.03762652769922
C            0.86417903929526        3.89105709956200        0.11753389114431
C            1.77261017484924        5.03654215020047       -0.16303130739010
N           -0.40094285834301        4.10601130419441        0.54317988151842
C           -1.21761801244237        3.07565933131723        0.87869940150352
C           -0.81856196406509        1.75607399836814        0.67972875303921
C           -1.76042844186088        0.63052003791989        0.97097392453510
C           -2.54261028372126        3.39412145243546        1.48456090051045
C           -0.89388400622992        5.46664987073015        0.64484354771587
H            0.43838789695280       -0.37858446435946       -0.78438862290724
H            0.88953648155758       -0.46795514410761        0.91344011942695
H            2.04490706718095        0.14111123204624       -0.27723983798370
H            2.31741466355260        2.42750803587061       -0.37171579306343
H            1.46164040375298        5.58286035940304       -1.05407233110915
H            1.80474726124602        5.73324262995888        0.67289103825798
H            2.77931438172837        4.66971580035629       -0.34026071770327
H           -1.82326381745632        0.45302129858175        2.04460945449619
H           -2.75862185321251        0.85025569527915        0.60148125090369
H           -1.42477416006960       -0.28773968745556        0.50291331371349
H           -2.46712849832554        4.21893842267956        2.18882224223254
H           -3.27231076680789        3.66178835125994        0.71895405795283
H           -2.93012808917010        2.53545253036393        2.02173615761587
H           -0.74055116539941        5.85844882275356        1.65250325917296
H           -0.37211724722361        6.10841506905315       -0.05896682859835
H           -1.95412497396839        5.50405655682537        0.40785947074711

          :  Hamiltonian                  GFN2-xTB          :
         :: total energy             -32.129098674424 Eh    ::
         :: gradient norm              0.000357886699 Eh/a0 ::
         :: HOMO-LUMO gap              3.534155560590 eV    ::
         :: SCC energy               -32.665899794871 Eh    ::
         :: -> dispersion             -0.021064220593 Eh    ::
         :: repulsion energy           0.536801120446 Eh    ::

    * Orbital Energies and Occupations

         #    Occupation            Energy/Eh            Energy/eV
      -------------------------------------------------------------
         1        2.0000           -0.8521334             -23.1877
       ...           ...                  ...                  ...
        18        2.0000           -0.6409953             -17.4424
        19        2.0000           -0.6351434             -17.2831
        20        2.0000           -0.6302096             -17.1489
        21        2.0000           -0.6264043             -17.0453
        22        2.0000           -0.6134198             -16.6920
        23        2.0000           -0.6130999             -16.6833
        24        2.0000           -0.6125554             -16.6685
        25        2.0000           -0.6073014             -16.5255
        26        2.0000           -0.5953560             -16.2005
        27        2.0000           -0.5840588             -15.8930
        28        2.0000           -0.5826835             -15.8556
        29        2.0000           -0.5706768             -15.5289
        30        2.0000           -0.5536171             -15.0647 (HOMO)
        31                         -0.4237393             -11.5305 (LUMO)
        32                         -0.3922172             -10.6728
        33                         -0.2812439              -7.6530
        34                         -0.1596515              -4.3443
        35                         -0.0830012              -2.2586
        36                         -0.0422769              -1.1504
        37                         -0.0385845              -1.0499
        38                         -0.0332008              -0.9034
        39                         -0.0258973              -0.7047
        40                         -0.0169194              -0.4604
        41                          0.0103225               0.2809
       ...                                ...                  ...
        60                          0.4545971              12.3702
      -------------------------------------------------------------
                  HL-Gap            0.1298778 Eh            3.5342 eV

     #   Z          covCN         q      C6AA      α(0)
     1   6 C        3.759    -0.128    22.999     6.837
     2   6 C        2.968     0.048    26.920     8.511
     3   6 C        2.926    -0.051    29.271     8.872
     4   6 C        2.920     0.077    26.274     8.406
     5   6 C        3.758    -0.135    23.154     6.860
     6   7 N        2.751     0.057    20.246     6.683
     7   6 C        2.925     0.069    26.459     8.435
     8   6 C        2.968     0.013    27.729     8.637
     9   6 C        3.758    -0.131    23.059     6.846
    10   6 C        3.758    -0.139    23.226     6.871
    11   6 C        3.706    -0.088    22.330     6.755
    12   1 H        0.925     0.088     1.895     2.153
    13   1 H        0.925     0.089     1.893     2.152
    14   1 H        0.925     0.075     2.031     2.229
    15   1 H        0.926     0.087     1.911     2.162
    16   1 H        0.924     0.090     1.882     2.145
    17   1 H        0.925     0.088     1.895     2.153
    18   1 H        0.925     0.089     1.886     2.148
    19   1 H        0.925     0.080     1.983     2.202
    20   1 H        0.925     0.076     2.020     2.222
    21   1 H        0.925     0.081     1.967     2.193
    22   1 H        0.925     0.085     1.933     2.174
    23   1 H        0.924     0.089     1.885     2.147
    24   1 H        0.925     0.095     1.834     2.118
    25   1 H        0.924     0.095     1.833     2.117
    26   1 H        0.925     0.101     1.775     2.083
    27   1 H        0.925     0.100     1.783     2.088

Wiberg/Mayer (AO) data.
largest (>0.10) Wiberg bond orders for each atom

     #   Z sym  total        # sym  WBO       # sym  WBO       # sym  WBO
 ---------------------------------------------------------------------------
     1   6 C    3.986 --     2 C    1.052    14 H    0.979    13 H    0.953
                            12 H    0.946
     2   6 C    3.979 --     3 C    1.390     8 C    1.338     1 C    1.052
     3   6 C    3.986 --     4 C    1.437     2 C    1.390    15 H    0.959
     4   6 C    3.962 --     3 C    1.437     6 N    1.270     5 C    1.043
     5   6 C    3.982 --     4 C    1.043    18 H    0.974    17 H    0.959
                            16 H    0.947
     6   7 N    3.717 --     4 C    1.270     7 C    1.263    11 C    0.988
     7   6 C    3.960 --     8 C    1.410     6 N    1.263    10 C    1.044
     8   6 C    3.986 --     7 C    1.410     2 C    1.338     9 C    1.036
     9   6 C    3.985 --     8 C    1.036    21 H    0.973    20 H    0.968
                            19 H    0.953
    10   6 C    3.982 --     7 C    1.044    24 H    0.967    22 H    0.963
                            23 H    0.945
    11   6 C    3.939 --     6 N    0.988    27 H    0.967    26 H    0.965
                            25 H    0.958
    12   1 H    0.991 --     1 C    0.946
    13   1 H    0.991 --     1 C    0.953
    14   1 H    0.994 --     1 C    0.979
    15   1 H    0.992 --     3 C    0.959
    16   1 H    0.991 --     5 C    0.947
    17   1 H    0.991 --     5 C    0.959
    18   1 H    0.992 --     5 C    0.974
    19   1 H    0.993 --     9 C    0.953
    20   1 H    0.994 --     9 C    0.968
    21   1 H    0.993 --     9 C    0.973
    22   1 H    0.992 --    10 C    0.963
    23   1 H    0.991 --    10 C    0.945
    24   1 H    0.991 --    10 C    0.967
    25   1 H    0.990 --    11 C    0.958
    26   1 H    0.989 --    11 C    0.965
    27   1 H    0.989 --    11 C    0.967
 ---------------------------------------------------------------------------

molecular dipole:
                 x           y           z       tot (Debye)
 q only:       -0.646       6.186       0.998
   full:       -0.641       6.255       0.993      16.180

           -------------------------------------------------
          | TOTAL ENERGY              -32.129098674424 Eh   |
          | GRADIENT NORM               0.000357886699 Eh/α |
          | HOMO-LUMO GAP               3.534155560590 eV   |
           -------------------------------------------------

 * finished run on 2024/12/20 at 07:18:17.672
