   * xtb version 6.7.1 (edcfbbe) compiled by 'conda@3ef47c1a292c' on 2024-11-25

   ID    Z sym.   atoms
    1    6 C      1-18, 20-22, 24, 26, 27, 29, 30, 32-49
    2    8 O      19, 23, 31
    3    7 N      25, 28
    4    1 H      50-136

          program call               : xtb C1270.xyz --opt --namespace C1270 --charge +1
          :  Hamiltonian                  GFN2-xTB          :
 * total energy  :  -156.3095529 Eh     change       -0.7602523E-09 Eh
 * total energy  :  -156.3179845 Eh     change       -0.8431589E-02 Eh
 * total energy  :  -156.3197113 Eh     change       -0.1726817E-02 Eh
 * total energy  :  -156.3202783 Eh     change       -0.5669942E-03 Eh
 * total energy  :  -156.3210008 Eh     change       -0.7225399E-03 Eh
 * total energy  :  -156.3215657 Eh     change       -0.5648834E-03 Eh
 * total energy  :  -156.3221789 Eh     change       -0.6131507E-03 Eh
 * total energy  :  -156.3228569 Eh     change       -0.6780849E-03 Eh
 * total energy  :  -156.3234835 Eh     change       -0.6265844E-03 Eh
 * total energy  :  -156.3239881 Eh     change       -0.5045969E-03 Eh
 * total energy  :  -156.3415403 Eh     change       -0.1476230E-04 Eh
 * total energy  :  -156.3415551 Eh     change       -0.1475839E-04 Eh
 * total energy  :  -156.3415678 Eh     change       -0.1271716E-04 Eh
 * total energy  :  -156.3415787 Eh     change       -0.1090791E-04 Eh
 * total energy  :  -156.3415875 Eh     change       -0.8833560E-05 Eh
 * total energy  :  -156.3415951 Eh     change       -0.7530501E-05 Eh
 * total energy  :  -156.3416013 Eh     change       -0.6249247E-05 Eh
 * total energy  :  -156.3416064 Eh     change       -0.5070676E-05 Eh
 * total energy  :  -156.3416108 Eh     change       -0.4377184E-05 Eh
   *** GEOMETRY OPTIMIZATION CONVERGED AFTER 247 ITERATIONS ***

 final structure:
================
136
 xtb: 6.7.1 (edcfbbe)
C           -4.22408136109899        0.90823924339700        0.06351111956816
C           -3.31171087677004        2.12735547955617       -0.00375450967285
C           -2.01903880964981        1.87170167191952       -0.78031752151726
C           -2.20997074877434        1.51395822390691       -2.25555232479805
C           -2.92937009143929        2.57321016676576       -3.09260660315737
C           -2.25474023887641        3.94643160575681       -3.11428988273182
C           -0.81110909209695        3.95092055911553       -3.62241111178202
C           -0.61587581503448        3.38275668604957       -5.02981265521101
C           -1.45579278921078        4.05420632203580       -6.11677767410217
C           -1.19765688196696        5.55102620583533       -6.29654755144703
C            0.21046383080576        5.91009939858767       -6.77309020772149
C            0.60605169649054        5.32037593063143       -8.12925985060054
C           -0.34253015571205        5.65539257484000       -9.28256124967825
C           -0.48931197480861        7.15740088124217       -9.51796081111561
C           -1.21242697981181        7.49878209847499      -10.82191467069049
C           -2.64094930380496        6.95885360278923      -10.93371278322722
C           -3.57862873647827        7.36035898152712       -9.79500140264971
C           -3.73098803885827        8.86906589760597       -9.64248289467125
O           -4.75381116391005        9.11904261986265       -8.69300008780919
C           -4.82219796349301       10.46359481710866       -8.29137071725635
C           -5.95916926010859       10.63173492649071       -7.26041461668100
C           -7.31957139702438       10.86378169700731       -7.94166078175018
O           -7.55210707936494       10.05694170684570       -9.08689486590050
C           -7.61398702273474        8.69979234211733       -8.85327697360582
N           -8.98213696978509        8.30572545804051       -8.47958848683716
C           -9.34109936751237        7.21199808315231       -7.75494917252194
C          -10.69934975841885        7.22107169944487       -7.65825681320221
N          -11.14631134924735        8.32388449868148       -8.32301861104470
C          -10.08844857070663        8.96306245434293       -8.81327852082988
C          -12.52381657807778        8.71317412917897       -8.46052207512476
O           -6.09909457533503        9.52115288284647       -6.40511218345500
C           -5.02758319425406        9.34275232494458       -5.48614571480676
C           -5.34704737087130        8.16984389335942       -4.56134702937972
C           -4.92069748515294        6.81080899578697       -5.11793963623526
C           -5.60403164222740        6.47671958160799       -6.44097771330171
C           -5.23249001871306        5.09819772330790       -6.98934603266210
C           -5.78442244807337        3.91389414361537       -6.19321023067896
C           -7.31034787313677        3.80030843325607       -6.18016803923185
C           -7.95807982573100        3.66165459534674       -7.56027958022136
C           -7.50838541515252        2.43709469571752       -8.36047575652929
C           -7.78207562390039        1.09006806463102       -7.69053096965311
C           -9.25242818181025        0.81343433537674       -7.37179075854491
C          -10.19478884339072        0.85997513729511       -8.57641555263349
C           -9.84186689328066       -0.10573971068839       -9.70944296794280
C           -9.80075811667371       -1.58158733391624       -9.30984690145759
C          -11.10755732620480       -2.13303388342023       -8.73687435680954
C          -12.32168118921427       -2.01311593326895       -9.66055227433204
C          -12.17153028378412       -2.70390765329358      -11.01689644877665
C          -11.96580506282895       -4.20968380833823      -10.90507423248568
H           -4.60226441888455        0.64544520938836       -0.92128280038391
H           -5.07558777596232        1.10892987315683        0.71013152591331
H           -3.68488613958500        0.05295398874956        0.46458569060427
H           -3.85360060052466        2.96430425871750       -0.44867627962769
H           -3.04200052556655        2.42070613150332        1.01386024019293
H           -1.38446337393416        2.75674617276355       -0.70248825311867
H           -1.48417784577999        1.04820920655495       -0.30059531907233
H           -1.22617971296402        1.32265161701487       -2.68837417280341
H           -2.77454122925434        0.58212266754832       -2.32722004723088
H           -3.01520139665920        2.19797761647294       -4.11504439584101
H           -3.94666147414933        2.69897288576045       -2.71381093995000
H           -2.85727443167421        4.61368333746109       -3.73581979020349
H           -2.25996996648065        4.36318169620232       -2.10493608185079
H           -0.44375923760808        4.97941286360430       -3.59409990007466
H           -0.18821805715698        3.37504733616473       -2.93579603405094
H            0.44188032938598        3.46395309333398       -5.28748101281731
H           -0.86074710191204        2.31873701394740       -5.02332524176704
H           -1.26842902158756        3.54168162722771       -7.06249943825908
H           -2.51242100527137        3.91131122294517       -5.87997841702001
H           -1.92483865838299        5.94281343635341       -7.01277592760166
H           -1.37695287145639        6.06158375560977       -5.34759158138661
H            0.28813468087018        6.99877140256655       -6.82120356981312
H            0.93629416602985        5.57346095889129       -6.03092259963022
H            1.60400754347272        5.68997098600953       -8.37740271417817
H            0.67769268725720        4.23451896227487       -8.04343750605317
H            0.05316145800849        5.19496488804400      -10.19124953663679
H           -1.31975447895194        5.21040270421650       -9.09107379542658
H           -1.01488385591102        7.61422177244307       -8.67867864544119
H            0.50746570552955        7.60310498233309       -9.55928215219899
H           -0.63793366426509        7.09233211268042      -11.65738141734967
H           -1.22789915756004        8.58452098024964      -10.94052168439525
H           -3.06331777641922        7.31004225817083      -11.87846187156292
H           -2.60911842759358        5.86917910760953      -10.97655930040489
H           -4.56797148487257        6.93751449239946       -9.98511878068775
H           -3.22448230759603        6.94754425054504       -8.85055395127437
H           -2.79141870282982        9.31898674796499       -9.29572332310580
H           -3.99866160952845        9.33330570835135      -10.60344696922151
H           -3.86484548832895       10.77193483614436       -7.84475894911277
H           -5.02112044963977       11.11913545477495       -9.15153778472656
H           -5.73953964265150       11.53109720067199       -6.65983707596386
H           -8.10632537198953       10.70923041435047       -7.19193307820640
H           -7.37017563706319       11.88734735314150       -8.31448957793579
H           -7.35635914972675        8.19409038057624       -9.79104357268351
H           -6.93567063479657        8.37657694964501       -8.05555306600063
H           -8.62384690185059        6.51496841932741       -7.37086667055526
H          -11.36189318612844        6.53526398004067       -7.17084450284224
H          -10.10413263931473        9.86913218277275       -9.38773252972063
H          -12.59420732603772        9.62041006389715       -9.05601500445749
H          -13.08942072843870        7.91979157889699       -8.95036196455050
H          -12.96287406015140        8.89511850577033       -7.47881920947183
H           -4.09254567536539        9.15266567669499       -6.02457563447174
H           -4.91190996119196       10.26829259161278       -4.90332923115517
H           -4.83526906293155        8.33421934789921       -3.61230966579852
H           -6.42180861361508        8.17429887159334       -4.36936651563384
H           -3.83854596727945        6.80452130851478       -5.26072190700726
H           -5.16220479208541        6.05035193314840       -4.37351419492651
H           -6.68480762746121        6.54410021722299       -6.29626156163655
H           -5.31364918207719        7.22579639353440       -7.17893023493133
H           -5.57359741810882        5.02469643786253       -8.02432318211962
H           -4.14474636861878        5.01769493516661       -7.00852957731352
H           -5.36445222180522        2.99747029193687       -6.61022036779459
H           -5.43828597572243        3.97940423545734       -5.16016792940468
H           -7.58083739358754        2.93384630828676       -5.57548716106165
H           -7.73494573399603        4.67507356358738       -5.67879430818239
H           -9.04241776291406        3.62436472341341       -7.42905748555945
H           -7.73607246099824        4.54933583878868       -8.16079557648445
H           -8.01063220986981        2.46306553779159       -9.32987912973963
H           -6.43694639698577        2.51194656320335       -8.55561211561106
H           -7.40562761846072        0.30501135577530       -8.34825364227263
H           -7.21191466838146        1.02558494294179       -6.76166451283692
H           -9.31756458375472       -0.17171030887318       -6.90725462232154
H           -9.60525331311787        1.53580187197879       -6.63130370526393
H          -11.20560279544554        0.64352762269486       -8.22471937588322
H          -10.21069875181969        1.87417290033012       -8.98503774495278
H          -10.57321167219396        0.02773627242630      -10.50937775807050
H           -8.86706816411066        0.16385520946290      -10.12198590160642
H           -9.52295134978866       -2.16290541325433      -10.19104933310074
H           -9.01253205103430       -1.73306411029457       -8.56933550543302
H          -10.95203050137683       -3.18441394821746       -8.48860106201919
H          -11.33819385790914       -1.61770437261381       -7.80169902483683
H          -13.18211609959002       -2.44631148508729       -9.14385606754574
H          -12.54530149809576       -0.95717218045369       -9.82943303281897
H          -13.07963172054415       -2.51464531328013      -11.59514329294794
H          -11.33914666583257       -2.26317180569213      -11.56846000052871
H          -12.76594484442336       -4.66069339046342      -10.32214059317005
H          -11.96486766071417       -4.66384311911658      -11.89332354024975
H          -11.01789218900082       -4.44186059586896      -10.42671583652828

          :  Hamiltonian                  GFN2-xTB          :
         :: total energy            -156.341610751275 Eh    ::
         :: gradient norm              0.000322342507 Eh/a0 ::
         :: HOMO-LUMO gap              1.598152404538 eV    ::
         :: SCC energy              -158.478334930912 Eh    ::
         :: -> dispersion             -0.130182012255 Eh    ::
         :: repulsion energy           2.136724179638 Eh    ::

    * Orbital Energies and Occupations

         #    Occupation            Energy/Eh            Energy/eV
      -------------------------------------------------------------
         1        2.0000           -0.8855276             -24.0964
       ...           ...                  ...                  ...
       133        2.0000           -0.4747358             -12.9182
       134        2.0000           -0.4744798             -12.9113
       135        2.0000           -0.4725124             -12.8577
       136        2.0000           -0.4714561             -12.8290
       137        2.0000           -0.4681456             -12.7389
       138        2.0000           -0.4651853             -12.6583
       139        2.0000           -0.4636578             -12.6168
       140        2.0000           -0.4633925             -12.6096
       141        2.0000           -0.4606135             -12.5339
       142        2.0000           -0.4582576             -12.4698
       143        2.0000           -0.4570626             -12.4373
       144        2.0000           -0.4542261             -12.3601
       145        2.0000           -0.4533183             -12.3354 (HOMO)
       146                         -0.3945873             -10.7373 (LUMO)
       147                         -0.3597947              -9.7905
       148                         -0.1808424              -4.9210
       149                         -0.1276519              -3.4736
       150                         -0.1158700              -3.1530
       151                         -0.0923169              -2.5121
       152                         -0.0670253              -1.8239
       153                         -0.0457400              -1.2447
       154                         -0.0404789              -1.1015
       155                         -0.0350752              -0.9544
       156                         -0.0209894              -0.5711
       ...                                ...                  ...
       283                          0.4801358              13.0652
      -------------------------------------------------------------
                  HL-Gap            0.0587310 Eh            1.5982 eV

     #   Z          covCN         q      C6AA      α(0)
     1   6 C        3.751    -0.101    22.498     6.764
     2   6 C        3.799    -0.051    21.497     6.602
     3   6 C        3.801    -0.058    21.611     6.619
     4   6 C        3.800    -0.057    21.606     6.618
     5   6 C        3.800    -0.054    21.552     6.610
     6   6 C        3.800    -0.055    21.566     6.612
     7   6 C        3.800    -0.057    21.595     6.616
     8   6 C        3.800    -0.057    21.604     6.618
     9   6 C        3.800    -0.056    21.587     6.615
    10   6 C        3.800    -0.051    21.489     6.600
    11   6 C        3.800    -0.058    21.611     6.619
    12   6 C        3.800    -0.059    21.630     6.622
    13   6 C        3.801    -0.058    21.618     6.620
    14   6 C        3.801    -0.059    21.628     6.621
    15   6 C        3.800    -0.062    21.688     6.631
    16   6 C        3.801    -0.063    21.704     6.633
    17   6 C        3.800    -0.061    21.668     6.628
    18   6 C        3.701     0.084    19.328     6.287
    19   8 O        1.701    -0.326    19.447     5.954
    20   6 C        3.700     0.079    19.416     6.301
    21   6 C        3.741     0.102    18.978     6.215
    22   6 C        3.699     0.057    19.773     6.360
    23   8 O        1.702    -0.278    18.605     5.824
    24   6 C        3.638     0.108    19.155     6.295
    25   7 N        2.870     0.040    20.538     6.731
    26   6 C        3.068    -0.005    28.082     8.689
    27   6 C        3.075    -0.009    28.169     8.702
    28   7 N        2.868     0.075    19.938     6.632
    29   6 C        3.096     0.054    26.671     8.464
    30   6 C        3.692    -0.086    22.328     6.761
    31   8 O        1.700    -0.323    19.392     5.945
    32   6 C        3.693     0.081    19.403     6.303
    33   6 C        3.801    -0.065    21.753     6.640
    34   6 C        3.801    -0.059    21.642     6.623
    35   6 C        3.801    -0.061    21.672     6.628
    36   6 C        3.801    -0.061    21.665     6.627
    37   6 C        3.800    -0.060    21.647     6.624
    38   6 C        3.800    -0.057    21.606     6.618
    39   6 C        3.799    -0.054    21.543     6.609
    40   6 C        3.800    -0.057    21.601     6.617
    41   6 C        3.800    -0.058    21.626     6.621
    42   6 C        3.800    -0.057    21.598     6.617
    43   6 C        3.800    -0.055    21.556     6.610
    44   6 C        3.800    -0.056    21.586     6.615
    45   6 C        3.800    -0.057    21.600     6.617
    46   6 C        3.800    -0.057    21.602     6.617
    47   6 C        3.800    -0.056    21.587     6.615
    48   6 C        3.799    -0.052    21.503     6.602
    49   6 C        3.751    -0.102    22.512     6.766
    50   1 H        0.925     0.033     2.550     2.497
    51   1 H        0.925     0.030     2.590     2.517
    52   1 H        0.925     0.035     2.512     2.478
    53   1 H        0.924     0.027     2.629     2.535
    54   1 H        0.924     0.027     2.628     2.535
    55   1 H        0.924     0.030     2.591     2.517
    56   1 H        0.924     0.030     2.584     2.514
    57   1 H        0.924     0.031     2.571     2.508
    58   1 H        0.924     0.031     2.576     2.510
    59   1 H        0.924     0.027     2.635     2.539
    60   1 H        0.924     0.025     2.664     2.553
    61   1 H        0.924     0.022     2.702     2.570
    62   1 H        0.924     0.029     2.600     2.522
    63   1 H        0.924     0.027     2.637     2.539
    64   1 H        0.924     0.033     2.543     2.494
    65   1 H        0.924     0.031     2.577     2.510
    66   1 H        0.924     0.031     2.568     2.506
    67   1 H        0.924     0.029     2.603     2.523
    68   1 H        0.924     0.028     2.620     2.531
    69   1 H        0.924     0.019     2.755     2.596
    70   1 H        0.924     0.026     2.647     2.545
    71   1 H        0.924     0.026     2.649     2.545
    72   1 H        0.924     0.034     2.525     2.485
    73   1 H        0.924     0.030     2.584     2.514
    74   1 H        0.924     0.034     2.531     2.488
    75   1 H        0.924     0.030     2.581     2.512
    76   1 H        0.924     0.032     2.565     2.504
    77   1 H        0.924     0.030     2.583     2.513
    78   1 H        0.924     0.034     2.525     2.485
    79   1 H        0.924     0.039     2.461     2.453
    80   1 H        0.924     0.027     2.632     2.537
    81   1 H        0.924     0.032     2.557     2.501
    82   1 H        0.924     0.045     2.386     2.416
    83   1 H        0.924     0.035     2.520     2.483
    84   1 H        0.925     0.053     2.281     2.362
    85   1 H        0.923     0.028     2.609     2.526
    86   1 H        0.923     0.022     2.710     2.574
    87   1 H        0.923     0.029     2.604     2.524
    88   1 H        0.923     0.032     2.556     2.500
    89   1 H        0.923     0.031     2.566     2.505
    90   1 H        0.924     0.046     2.374     2.410
    91   1 H        0.924     0.077     2.015     2.220
    92   1 H        0.924     0.101     1.776     2.084
    93   1 H        0.924     0.130     1.534     1.937
    94   1 H        0.926     0.118     1.629     1.996
    95   1 H        0.926     0.109     1.705     2.042
    96   1 H        0.926     0.121     1.605     1.981
    97   1 H        0.925     0.099     1.796     2.096
    98   1 H        0.924     0.106     1.730     2.057
    99   1 H        0.924     0.105     1.737     2.061
   100   1 H        0.924     0.040     2.448     2.447
   101   1 H        0.923     0.022     2.697     2.568
   102   1 H        0.924     0.048     2.344     2.394
   103   1 H        0.924     0.048     2.345     2.395
   104   1 H        0.924     0.041     2.439     2.442
   105   1 H        0.924     0.042     2.428     2.437
   106   1 H        0.924     0.014     2.820     2.626
   107   1 H        0.924     0.046     2.375     2.410
   108   1 H        0.924     0.026     2.642     2.542
   109   1 H        0.924     0.038     2.476     2.461
   110   1 H        0.924     0.039     2.462     2.454
   111   1 H        0.924     0.035     2.520     2.483
   112   1 H        0.924     0.040     2.451     2.448
   113   1 H        0.924     0.016     2.799     2.616
   114   1 H        0.924     0.022     2.698     2.569
   115   1 H        0.924     0.009     2.906     2.666
   116   1 H        0.924     0.030     2.592     2.518
   117   1 H        0.924     0.032     2.552     2.498
   118   1 H        0.924     0.037     2.492     2.469
   119   1 H        0.924     0.032     2.565     2.504
   120   1 H        0.924     0.036     2.500     2.473
   121   1 H        0.924     0.023     2.695     2.567
   122   1 H        0.924     0.030     2.587     2.515
   123   1 H        0.924     0.017     2.774     2.605
   124   1 H        0.924     0.030     2.592     2.518
   125   1 H        0.924     0.027     2.629     2.536
   126   1 H        0.924     0.033     2.541     2.493
   127   1 H        0.924     0.029     2.600     2.522
   128   1 H        0.924     0.034     2.533     2.489
   129   1 H        0.924     0.027     2.633     2.538
   130   1 H        0.924     0.029     2.606     2.525
   131   1 H        0.924     0.024     2.668     2.554
   132   1 H        0.924     0.026     2.647     2.544
   133   1 H        0.924     0.030     2.589     2.516
   134   1 H        0.925     0.034     2.525     2.485
   135   1 H        0.925     0.032     2.552     2.498
   136   1 H        0.925     0.035     2.512     2.478

Wiberg/Mayer (AO) data.
largest (>0.10) Wiberg bond orders for each atom

     #   Z sym  total        # sym  WBO       # sym  WBO       # sym  WBO
 ---------------------------------------------------------------------------
     1   6 C    3.997 --     2 C    1.020    51 H    0.988    52 H    0.988
                            50 H    0.986
     2   6 C    3.998 --     1 C    1.020     3 C    1.008    54 H    0.979
                            53 H    0.976
     3   6 C    3.997 --     2 C    1.008     4 C    1.008    56 H    0.977
                            55 H    0.975
     4   6 C    3.997 --     3 C    1.008     5 C    1.008    58 H    0.975
                            57 H    0.975
     5   6 C    3.998 --     4 C    1.008     6 C    1.007    60 H    0.975
                            59 H    0.975
     6   6 C    3.998 --     7 C    1.007     5 C    1.007    62 H    0.975
                            61 H    0.974
     7   6 C    3.997 --     8 C    1.008     6 C    1.007    63 H    0.975
                            64 H    0.975
     8   6 C    3.997 --     9 C    1.008     7 C    1.008    66 H    0.975
                            65 H    0.975
     9   6 C    3.998 --     8 C    1.008    10 C    1.007    67 H    0.975
                            68 H    0.971
    10   6 C    3.998 --    11 C    1.008     9 C    1.007    70 H    0.973
                            69 H    0.970
    11   6 C    3.997 --    10 C    1.008    12 C    1.007    71 H    0.976
                            72 H    0.975
    12   6 C    3.997 --    11 C    1.007    13 C    1.007    73 H    0.977
                            74 H    0.975
    13   6 C    3.998 --    14 C    1.009    12 C    1.007    75 H    0.977
                            76 H    0.974
    14   6 C    3.997 --    13 C    1.009    15 C    1.007    78 H    0.976
                            77 H    0.973
    15   6 C    3.996 --    14 C    1.007    16 C    1.007    80 H    0.977
                            79 H    0.976
    16   6 C    3.995 --    15 C    1.007    17 C    1.006    81 H    0.977
                            82 H    0.975
    17   6 C    3.993 --    16 C    1.006    18 C    1.002    83 H    0.975
                            84 H    0.970
    18   6 C    3.942 --    17 C    1.002    86 H    0.969    85 H    0.967
                            19 O    0.964
    19   8 O    2.066 --    20 C    0.995    18 C    0.964
    20   6 C    3.962 --    19 O    0.995    21 C    0.972    87 H    0.965
                            88 H    0.965
    21   6 C    3.964 --    31 O    0.991    22 C    0.979    20 C    0.972
                            89 H    0.955
    22   6 C    3.942 --    21 C    0.979    91 H    0.968    90 H    0.968
                            23 O    0.968
    23   8 O    2.131 --    24 C    1.041    22 C    0.968
    24   6 C    3.909 --    23 O    1.041    92 H    0.943    93 H    0.929
                            25 N    0.923
    25   7 N    3.706 --    29 C    1.368    26 C    1.231    24 C    0.923
    26   6 C    3.944 --    27 C    1.594    25 N    1.231    94 H    0.949
    27   6 C    3.947 --    26 C    1.594    28 N    1.223    95 H    0.961
    28   7 N    3.718 --    29 C    1.362    27 C    1.223    30 C    0.991
    29   6 C    3.944 --    25 N    1.368    28 N    1.362    96 H    0.952
    30   6 C    3.935 --    28 N    0.991    97 H    0.976    98 H    0.963
                            99 H    0.963
    31   8 O    2.079 --    21 C    0.991    32 C    0.958
    32   6 C    3.940 --    33 C    1.002   101 H    0.970   100 H    0.968
                            31 O    0.958
    33   6 C    3.993 --    34 C    1.007    32 C    1.002   102 H    0.975
                           103 H    0.974
    34   6 C    3.995 --    35 C    1.009    33 C    1.007   104 H    0.974
                           105 H    0.973
    35   6 C    3.997 --    34 C    1.009    36 C    1.006   106 H    0.969
                           107 H    0.967
    36   6 C    3.996 --    37 C    1.008    35 C    1.006   108 H    0.974
                           109 H    0.970
    37   6 C    3.996 --    36 C    1.008    38 C    1.008   110 H    0.974
                           111 H    0.973
    38   6 C    3.997 --    37 C    1.008    39 C    1.007   113 H    0.974
                           112 H    0.974
    39   6 C    3.998 --    38 C    1.007    40 C    1.007   114 H    0.975
                           115 H    0.972
    40   6 C    3.997 --    41 C    1.008    39 C    1.007   117 H    0.975
                           116 H    0.975
    41   6 C    3.997 --    40 C    1.008    42 C    1.008   119 H    0.975
                           118 H    0.974
    42   6 C    3.997 --    41 C    1.008    43 C    1.007   121 H    0.976
                           120 H    0.975
    43   6 C    3.998 --    42 C    1.007    44 C    1.007   123 H    0.976
                           122 H    0.975
    44   6 C    3.998 --    45 C    1.008    43 C    1.007   125 H    0.975
                           124 H    0.975
    45   6 C    3.997 --    46 C    1.008    44 C    1.008   127 H    0.975
                           126 H    0.975
    46   6 C    3.997 --    45 C    1.008    47 C    1.008   128 H    0.975
                           129 H    0.975
    47   6 C    3.998 --    48 C    1.008    46 C    1.008   130 H    0.977
                           131 H    0.976
    48   6 C    3.998 --    49 C    1.020    47 C    1.008   132 H    0.979
                           133 H    0.976
    49   6 C    3.997 --    48 C    1.020   134 H    0.988   135 H    0.987
                           136 H    0.986
    50   1 H    0.999 --     1 C    0.986
    51   1 H    0.999 --     1 C    0.988
    52   1 H    0.999 --     1 C    0.988
    53   1 H    0.999 --     2 C    0.976
    54   1 H    0.999 --     2 C    0.979
    55   1 H    0.999 --     3 C    0.975
    56   1 H    0.999 --     3 C    0.977
    57   1 H    0.999 --     4 C    0.975
    58   1 H    0.999 --     4 C    0.975
    59   1 H    0.999 --     5 C    0.975
    60   1 H    0.999 --     5 C    0.975
    61   1 H    0.999 --     6 C    0.974
    62   1 H    0.999 --     6 C    0.975
    63   1 H    0.999 --     7 C    0.975
    64   1 H    0.999 --     7 C    0.975
    65   1 H    0.999 --     8 C    0.975
    66   1 H    0.999 --     8 C    0.975
    67   1 H    0.999 --     9 C    0.975
    68   1 H    0.999 --     9 C    0.971
    69   1 H    1.000 --    10 C    0.970
    70   1 H    0.999 --    10 C    0.973
    71   1 H    0.999 --    11 C    0.976
    72   1 H    0.999 --    11 C    0.975
    73   1 H    0.999 --    12 C    0.977
    74   1 H    0.999 --    12 C    0.975
    75   1 H    0.999 --    13 C    0.977
    76   1 H    0.999 --    13 C    0.974
    77   1 H    0.999 --    14 C    0.973
    78   1 H    0.999 --    14 C    0.976
    79   1 H    0.998 --    15 C    0.976
    80   1 H    0.999 --    15 C    0.977
    81   1 H    0.999 --    16 C    0.977
    82   1 H    0.998 --    16 C    0.975
    83   1 H    0.999 --    17 C    0.975
    84   1 H    0.997 --    17 C    0.970
    85   1 H    0.999 --    18 C    0.967
    86   1 H    0.999 --    18 C    0.969
    87   1 H    0.999 --    20 C    0.965
    88   1 H    0.999 --    20 C    0.965
    89   1 H    0.999 --    21 C    0.955
    90   1 H    0.998 --    22 C    0.968
    91   1 H    0.994 --    22 C    0.968
    92   1 H    0.989 --    24 C    0.943
    93   1 H    0.983 --    24 C    0.929
    94   1 H    0.986 --    26 C    0.949
    95   1 H    0.987 --    27 C    0.961
    96   1 H    0.985 --    29 C    0.952
    97   1 H    0.990 --    30 C    0.976
    98   1 H    0.988 --    30 C    0.963
    99   1 H    0.988 --    30 C    0.963
   100   1 H    0.998 --    32 C    0.968
   101   1 H    0.999 --    32 C    0.970
   102   1 H    0.997 --    33 C    0.975
   103   1 H    0.998 --    33 C    0.974
   104   1 H    0.998 --    34 C    0.974
   105   1 H    0.998 --    34 C    0.973
   106   1 H    1.000 --    35 C    0.969
   107   1 H    0.998 --    35 C    0.967
   108   1 H    0.999 --    36 C    0.974
   109   1 H    0.998 --    36 C    0.970
   110   1 H    0.998 --    37 C    0.974
   111   1 H    0.999 --    37 C    0.973
   112   1 H    0.998 --    38 C    0.974
   113   1 H    1.000 --    38 C    0.974
   114   1 H    0.999 --    39 C    0.975
   115   1 H    1.000 --    39 C    0.972
   116   1 H    0.999 --    40 C    0.975
   117   1 H    0.999 --    40 C    0.975
   118   1 H    0.999 --    41 C    0.974
   119   1 H    0.999 --    41 C    0.975
   120   1 H    0.999 --    42 C    0.975
   121   1 H    0.999 --    42 C    0.976
   122   1 H    0.999 --    43 C    0.975
   123   1 H    1.000 --    43 C    0.976
   124   1 H    0.999 --    44 C    0.975
   125   1 H    0.999 --    44 C    0.975
   126   1 H    0.999 --    45 C    0.975
   127   1 H    0.999 --    45 C    0.975
   128   1 H    0.999 --    46 C    0.975
   129   1 H    0.999 --    46 C    0.975
   130   1 H    0.999 --    47 C    0.977
   131   1 H    0.999 --    47 C    0.976
   132   1 H    0.999 --    48 C    0.979
   133   1 H    0.999 --    48 C    0.976
   134   1 H    0.999 --    49 C    0.988
   135   1 H    0.999 --    49 C    0.987
   136   1 H    0.999 --    49 C    0.986
 ---------------------------------------------------------------------------

molecular dipole:
                 x           y           z       tot (Debye)
 q only:      -17.347      15.358     -15.354
   full:      -17.161      15.798     -15.339      70.958

           -------------------------------------------------
          | TOTAL ENERGY             -156.341610751275 Eh   |
          | GRADIENT NORM               0.000322342507 Eh/α |
          | HOMO-LUMO GAP               1.598152404538 eV   |
           -------------------------------------------------

 * finished run on 2024/12/20 at 07:17:55.881
