   * xtb version 6.7.1 (edcfbbe) compiled by 'conda@3ef47c1a292c' on 2024-11-25

   ID    Z sym.   atoms
    1    6 C      1-7, 9-18
    2    7 N      8
    3    1 H      19-40

          program call               : xtb C1277.xyz --opt --namespace C1277 --charge +1
          :  Hamiltonian                  GFN2-xTB          :
 * total energy  :   -50.1228535 Eh     change       -0.8008243E-09 Eh
 * total energy  :   -50.1321570 Eh     change       -0.9303505E-02 Eh
 * total energy  :   -50.1347562 Eh     change       -0.2599199E-02 Eh
 * total energy  :   -50.1351389 Eh     change       -0.3827023E-03 Eh
 * total energy  :   -50.1353647 Eh     change       -0.2258059E-03 Eh
 * total energy  :   -50.1355039 Eh     change       -0.1391694E-03 Eh
 * total energy  :   -50.1356704 Eh     change       -0.1664635E-03 Eh
 * total energy  :   -50.1358696 Eh     change       -0.1992706E-03 Eh
 * total energy  :   -50.1360593 Eh     change       -0.1896819E-03 Eh
 * total energy  :   -50.1362009 Eh     change       -0.1416230E-03 Eh
 * total energy  :   -50.1365583 Eh     change       -0.2707513E-04 Eh
 * total energy  :   -50.1365889 Eh     change       -0.3062018E-04 Eh
 * total energy  :   -50.1366003 Eh     change       -0.1146029E-04 Eh
 * total energy  :   -50.1366156 Eh     change       -0.1526852E-04 Eh
 * total energy  :   -50.1366230 Eh     change       -0.7392636E-05 Eh
 * total energy  :   -50.1366313 Eh     change       -0.8311914E-05 Eh
 * total energy  :   -50.1366365 Eh     change       -0.5153383E-05 Eh
 * total energy  :   -50.1366435 Eh     change       -0.7042645E-05 Eh
 * total energy  :   -50.1366479 Eh     change       -0.4390811E-05 Eh
   *** GEOMETRY OPTIMIZATION CONVERGED AFTER 24 ITERATIONS ***

 final structure:
================
40
 xtb: 6.7.1 (edcfbbe)
C            2.57022534848421       -0.22519570212910       -0.02082991391045
C            1.08309568878222       -0.12765515305232        0.01777866819519
C            0.27911396346568       -1.13723883529612       -0.49505487935074
C           -1.10215644102695       -1.06164154393431       -0.44390105670393
C           -1.71891295930138        0.04327920830713        0.12422583617143
C           -0.92540167796083        1.05516088863578        0.65438361718084
C            0.45215247545708        0.96943898394645        0.59451762705367
N           -3.19680379155673        0.14515237501238        0.23651216296570
C           -3.55203248097666       -0.18489112609691        1.68911119001205
C           -3.07314838288961       -1.57781991700428        2.03746984980002
C           -1.79753250179530       -1.74114941852386        2.56983408110715
C           -1.32095957224206       -2.99998152970317        2.88773767788150
C           -2.11538411435018       -4.11562824690756        2.68547390949401
C           -3.39330786281734       -3.96247927718744        2.17629317359456
C           -3.87079196207765       -2.70367085985590        1.85444594535643
C           -5.02435716766540        0.03741897951782        2.00799629363642
C           -3.87354509126928       -0.76702984486530       -0.70360213329426
C           -3.62440008447033        1.51857395381999       -0.10961150690721
H            2.93528004995799       -0.64101726843711        0.91854864101775
H            2.89884946858355       -0.87635628850602       -0.82588683651266
H            3.02163742681899        0.75556369876269       -0.14624202567439
H            0.73458799047455       -2.00640067711838       -0.94333682043775
H           -1.66207369009120       -1.88496603188857       -0.85145342414833
H           -1.35582612476800        1.92379440519103        1.12561390527982
H            1.04525246464868        1.77028378501019        1.00841572596018
H           -2.96561355787783        0.52320747458813        2.28416578421125
H           -1.17212770137349       -0.87827340139270        2.74691921833853
H           -0.32985989311352       -3.10703493525052        3.29972851241290
H           -1.74560547969959       -5.09760890645593        2.93441355953666
H           -4.02667322409190       -4.82394633913997        2.03237623545688
H           -4.87896036408634       -2.61265549840800        1.47994831479800
H           -5.19189580860114       -0.28783528234915        3.03225922731215
H           -5.29613749021106        1.08773246505848        1.95090352147328
H           -5.69009488536720       -0.53500515202616        1.37022118531028
H           -4.94413566806438       -0.57699303781320       -0.69476938448404
H           -3.49878729409370       -0.59312573043480       -1.71087118087538
H           -3.70391246464391       -1.80309052792361       -0.42169162644083
H           -3.36117164405763        2.22419389387319        0.67331752026587
H           -3.13873110894369        1.82156800900602       -1.03626257410311
H           -4.70179438717568        1.55221241096601       -0.25252802097349

          :  Hamiltonian                  GFN2-xTB          :
         :: total energy             -50.136647892583 Eh    ::
         :: gradient norm              0.000357627715 Eh/a0 ::
         :: HOMO-LUMO gap              4.296573725295 eV    ::
         :: SCC energy               -51.016138476438 Eh    ::
         :: -> dispersion             -0.043025183208 Eh    ::
         :: repulsion energy           0.879490583855 Eh    ::

    * Orbital Energies and Occupations

         #    Occupation            Energy/Eh            Energy/eV
      -------------------------------------------------------------
         1        2.0000           -0.8432403             -22.9457
       ...           ...                  ...                  ...
        35        2.0000           -0.5931945             -16.1416
        36        2.0000           -0.5929449             -16.1349
        37        2.0000           -0.5853200             -15.9274
        38        2.0000           -0.5829730             -15.8635
        39        2.0000           -0.5696252             -15.5003
        40        2.0000           -0.5629132             -15.3176
        41        2.0000           -0.5485589             -14.9270
        42        2.0000           -0.5426718             -14.7669
        43        2.0000           -0.5408366             -14.7169
        44        2.0000           -0.5364497             -14.5975
        45        2.0000           -0.5261410             -14.3170
        46        2.0000           -0.5228850             -14.2284
        47        2.0000           -0.5210074             -14.1773 (HOMO)
        48                         -0.3631112              -9.8808 (LUMO)
        49                         -0.3581540              -9.7459
        50                         -0.3503420              -9.5333
        51                         -0.3404624              -9.2645
        52                         -0.2363916              -6.4325
        53                         -0.2282974              -6.2123
        54                         -0.1997797              -5.4363
        55                         -0.1481217              -4.0306
        56                         -0.1267325              -3.4486
        57                         -0.1205782              -3.2811
        58                         -0.0549073              -1.4941
       ...                                ...                  ...
        94                          0.5452025              14.8357
      -------------------------------------------------------------
                  HL-Gap            0.1578962 Eh            4.2966 eV

     #   Z          covCN         q      C6AA      α(0)
     1   6 C        3.759    -0.123    22.907     6.824
     2   6 C        2.964     0.038    27.152     8.547
     3   6 C        2.928    -0.032    28.796     8.800
     4   6 C        2.919    -0.040    29.003     8.831
     5   6 C        2.931     0.026    27.415     8.587
     6   6 C        2.920    -0.042    29.051     8.839
     7   6 C        2.927    -0.032    28.805     8.802
     8   7 N        3.621     0.110    19.351     6.534
     9   6 C        3.804     0.015    20.314     6.417
    10   6 C        2.969    -0.009    28.241     8.717
    11   6 C        2.925    -0.036    28.891     8.815
    12   6 C        2.919    -0.023    28.574     8.766
    13   6 C        2.920    -0.020    28.497     8.754
    14   6 C        2.919    -0.025    28.622     8.773
    15   6 C        2.922    -0.039    28.972     8.827
    16   6 C        3.753    -0.126    22.974     6.835
    17   6 C        3.717    -0.084    22.225     6.734
    18   6 C        3.721    -0.083    22.201     6.729
    19   1 H        0.924     0.075     2.034     2.230
    20   1 H        0.925     0.066     2.133     2.284
    21   1 H        0.925     0.068     2.107     2.270
    22   1 H        0.926     0.065     2.139     2.287
    23   1 H        0.926     0.055     2.258     2.350
    24   1 H        0.926     0.050     2.314     2.379
    25   1 H        0.926     0.066     2.131     2.283
    26   1 H        0.924     0.071     2.076     2.253
    27   1 H        0.926     0.033     2.539     2.492
    28   1 H        0.926     0.054     2.275     2.359
    29   1 H        0.926     0.059     2.208     2.324
    30   1 H        0.926     0.056     2.247     2.344
    31   1 H        0.926     0.044     2.390     2.418
    32   1 H        0.925     0.082     1.959     2.189
    33   1 H        0.925     0.061     2.191     2.315
    34   1 H        0.925     0.062     2.181     2.309
    35   1 H        0.925     0.090     1.877     2.143
    36   1 H        0.925     0.091     1.866     2.136
    37   1 H        0.925     0.098     1.807     2.102
    38   1 H        0.925     0.091     1.865     2.136
    39   1 H        0.925     0.092     1.855     2.130
    40   1 H        0.925     0.094     1.839     2.121

Wiberg/Mayer (AO) data.
largest (>0.10) Wiberg bond orders for each atom

     #   Z sym  total        # sym  WBO       # sym  WBO       # sym  WBO
 ---------------------------------------------------------------------------
     1   6 C    3.990 --     2 C    1.039    20 H    0.978    21 H    0.974
                            19 H    0.954
     2   6 C    3.984 --     3 C    1.406     7 C    1.393     1 C    1.039
                             5 C    0.102
     3   6 C    3.988 --     4 C    1.441     2 C    1.406    22 H    0.966
                             6 C    0.105
     4   6 C    3.989 --     3 C    1.441     5 C    1.415    23 H    0.962
                             7 C    0.104
     5   6 C    3.921 --     4 C    1.415     6 C    1.399     8 N    0.912
                             2 C    0.102
     6   6 C    3.990 --     7 C    1.456     5 C    1.399    24 H    0.961
                             3 C    0.105
     7   6 C    3.989 --     6 C    1.456     2 C    1.393    25 H    0.966
                             4 C    0.104
     8   7 N    3.797 --    17 C    0.965    18 C    0.959     5 C    0.912
                             9 C    0.873
     9   6 C    3.930 --    16 C    1.012    10 C    0.994    26 H    0.958
                             8 N    0.873
    10   6 C    3.981 --    15 C    1.409    11 C    1.409     9 C    0.994
                            13 C    0.110
    11   6 C    3.992 --    12 C    1.446    10 C    1.409    27 H    0.968
                            14 C    0.110
    12   6 C    3.990 --    11 C    1.446    13 C    1.437    28 H    0.969
                            15 C    0.109
    13   6 C    3.989 --    14 C    1.439    12 C    1.437    29 H    0.969
                            10 C    0.110
    14   6 C    3.990 --    15 C    1.442    13 C    1.439    30 H    0.969
                            11 C    0.110
    15   6 C    3.991 --    14 C    1.442    10 C    1.409    31 H    0.965
                            12 C    0.109
    16   6 C    3.984 --     9 C    1.012    33 H    0.981    34 H    0.977
                            32 H    0.972
    17   6 C    3.934 --    36 H    0.975    35 H    0.971    37 H    0.965
                             8 N    0.965
    18   6 C    3.934 --    39 H    0.976    40 H    0.973    38 H    0.973
                             8 N    0.959
    19   1 H    0.994 --     1 C    0.954
    20   1 H    0.995 --     1 C    0.978
    21   1 H    0.995 --     1 C    0.974
    22   1 H    0.995 --     3 C    0.966
    23   1 H    0.997 --     4 C    0.962
    24   1 H    0.997 --     6 C    0.961
    25   1 H    0.995 --     7 C    0.966
    26   1 H    0.995 --     9 C    0.958
    27   1 H    0.999 --    11 C    0.968
    28   1 H    0.997 --    12 C    0.969
    29   1 H    0.996 --    13 C    0.969
    30   1 H    0.997 --    14 C    0.969
    31   1 H    0.998 --    15 C    0.965
    32   1 H    0.993 --    16 C    0.972
    33   1 H    0.996 --    16 C    0.981
    34   1 H    0.996 --    16 C    0.977
    35   1 H    0.991 --    17 C    0.971
    36   1 H    0.992 --    17 C    0.975
    37   1 H    0.990 --    17 C    0.965
    38   1 H    0.992 --    18 C    0.973
    39   1 H    0.991 --    18 C    0.976
    40   1 H    0.990 --    18 C    0.973
 ---------------------------------------------------------------------------

molecular dipole:
                 x           y           z       tot (Debye)
 q only:       -4.751      -0.516       0.835
   full:       -4.838      -0.434       0.855      12.535

           -------------------------------------------------
          | TOTAL ENERGY              -50.136647892583 Eh   |
          | GRADIENT NORM               0.000357627715 Eh/α |
          | HOMO-LUMO GAP               4.296573725295 eV   |
           -------------------------------------------------

 * finished run on 2024/12/20 at 07:18:17.144
