   * xtb version 6.7.1 (edcfbbe) compiled by 'conda@3ef47c1a292c' on 2024-11-25

   ID    Z sym.   atoms
    1    6 C      1, 2, 4-8, 10, 11
    2    7 N      3, 9
    3    1 H      12-26

          program call               : xtb C1273.xyz --opt --namespace C1273 --charge +1
          :  Hamiltonian                  GFN2-xTB          :
 * total energy  :   -32.3893550 Eh     change       -0.6325394E-09 Eh
 * total energy  :   -32.3955948 Eh     change       -0.6239778E-02 Eh
 * total energy  :   -32.3972604 Eh     change       -0.1665613E-02 Eh
 * total energy  :   -32.3974896 Eh     change       -0.2292293E-03 Eh
 * total energy  :   -32.3977020 Eh     change       -0.2124032E-03 Eh
 * total energy  :   -32.3977871 Eh     change       -0.8511662E-04 Eh
 * total energy  :   -32.3979236 Eh     change       -0.1364871E-03 Eh
 * total energy  :   -32.3980198 Eh     change       -0.9616371E-04 Eh
 * total energy  :   -32.3980696 Eh     change       -0.4980719E-04 Eh
 * total energy  :   -32.3980909 Eh     change       -0.2128366E-04 Eh
 * total energy  :   -32.3980986 Eh     change       -0.7753173E-05 Eh
 * total energy  :   -32.3981010 Eh     change       -0.2407949E-05 Eh
   *** GEOMETRY OPTIMIZATION CONVERGED AFTER 12 ITERATIONS ***

 final structure:
================
26
 xtb: 6.7.1 (edcfbbe)
C            0.91472509683699       -0.24271008750596        0.23692014899030
C            0.51920698481045       -0.76490927282818       -1.14114524298294
N            0.96884186759681       -2.13461265727161       -1.32082717412110
C            2.20415569004389       -2.39283750170121       -1.79097855016273
C            2.68837829668438       -3.65917259698232       -1.91125264428030
C            1.89702659206957       -4.77977751588889       -1.53114237214832
C            0.60031400375057       -4.46129017976719       -1.03776078572381
C            0.18879382902029       -3.16695569475412       -0.94772343761115
N            2.33582962363874       -6.03034323561611       -1.63073654576671
C            3.66340685519442       -6.31027800304373       -2.13566733073956
C            1.49637474284124       -7.14224921049259       -1.23724033336088
H            0.46548110526521       -0.84518605331762        1.02265063295474
H            0.56987992287890        0.78055473207673        0.34919497066430
H            1.99476749203737       -0.25714676679590        0.36114144187969
H           -0.56588172760608       -0.73533242602886       -1.25625718278367
H            0.96715387066583       -0.14491929530803       -1.92006855082131
H            2.80132318583393       -1.54032800606130       -2.07709663188444
H            3.68150763371564       -3.79128605820571       -2.30198076668534
H           -0.07847099450688       -5.23570944692081       -0.72801927894727
H           -0.79311707044678       -2.92129110752292       -0.57256869102967
H            3.83645044669120       -7.38218225854794       -2.13164320443419
H            3.77479589033498       -5.95191444387469       -3.16137048230523
H            4.42529095645348       -5.84177611874926       -1.50896185803389
H            1.23794258062124       -7.07959523018318       -0.17785888021691
H            0.57814296544313       -7.16645333390881       -1.82803625717137
H            2.02724016013252       -8.07529823079999       -1.40029099327842

          :  Hamiltonian                  GFN2-xTB          :
         :: total energy             -32.398101034120 Eh    ::
         :: gradient norm              0.000856607845 Eh/a0 ::
         :: HOMO-LUMO gap              3.126509547268 eV    ::
         :: SCC energy               -32.918070362014 Eh    ::
         :: -> dispersion             -0.019484891582 Eh    ::
         :: repulsion energy           0.519969327894 Eh    ::

    * Orbital Energies and Occupations

         #    Occupation            Energy/Eh            Energy/eV
      -------------------------------------------------------------
         1        2.0000           -0.8454275             -23.0053
       ...           ...                  ...                  ...
        18        2.0000           -0.6557780             -17.8446
        19        2.0000           -0.6387261             -17.3806
        20        2.0000           -0.6299102             -17.1407
        21        2.0000           -0.6232882             -16.9605
        22        2.0000           -0.6221464             -16.9295
        23        2.0000           -0.6160098             -16.7625
        24        2.0000           -0.6063655             -16.5000
        25        2.0000           -0.5961365             -16.2217
        26        2.0000           -0.5919901             -16.1089
        27        2.0000           -0.5903270             -16.0636
        28        2.0000           -0.5874339             -15.9849
        29        2.0000           -0.5801090             -15.7856
        30        2.0000           -0.5242736             -14.2662 (HOMO)
        31                         -0.4093765             -11.1397 (LUMO)
        32                         -0.3940485             -10.7226
        33                         -0.2719576              -7.4003
        34                         -0.1526774              -4.1546
        35                         -0.1468899              -3.9971
        36                         -0.0638974              -1.7387
        37                         -0.0506271              -1.3776
        38                         -0.0240468              -0.6543
        39                         -0.0237508              -0.6463
        40                         -0.0206565              -0.5621
        41                         -0.0121204              -0.3298
       ...                                ...                  ...
        59                          0.4856969              13.2165
      -------------------------------------------------------------
                  HL-Gap            0.1148971 Eh            3.1265 eV

     #   Z          covCN         q      C6AA      α(0)
     1   6 C        3.752    -0.122    22.892     6.823
     2   6 C        3.753    -0.023    21.043     6.542
     3   7 N        2.748     0.060    20.196     6.675
     4   6 C        2.885     0.027    27.400     8.582
     5   6 C        2.917    -0.057    29.416     8.894
     6   6 C        2.922     0.090    26.000     8.362
     7   6 C        2.917    -0.057    29.417     8.894
     8   6 C        2.885     0.027    27.400     8.582
     9   7 N        2.735    -0.002    21.307     6.856
    10   6 C        3.699    -0.075    22.095     6.722
    11   6 C        3.699    -0.075    22.095     6.722
    12   1 H        0.925     0.061     2.186     2.312
    13   1 H        0.925     0.080     1.978     2.199
    14   1 H        0.925     0.061     2.186     2.312
    15   1 H        0.924     0.082     1.962     2.191
    16   1 H        0.924     0.082     1.962     2.191
    17   1 H        0.926     0.091     1.867     2.137
    18   1 H        0.926     0.085     1.925     2.169
    19   1 H        0.926     0.085     1.925     2.169
    20   1 H        0.926     0.091     1.868     2.137
    21   1 H        0.925     0.088     1.894     2.152
    22   1 H        0.924     0.078     2.002     2.213
    23   1 H        0.924     0.078     2.004     2.214
    24   1 H        0.924     0.078     2.004     2.214
    25   1 H        0.924     0.078     2.003     2.213
    26   1 H        0.925     0.088     1.894     2.152

Wiberg/Mayer (AO) data.
largest (>0.10) Wiberg bond orders for each atom

     #   Z sym  total        # sym  WBO       # sym  WBO       # sym  WBO
 ---------------------------------------------------------------------------
     1   6 C    3.979 --     2 C    1.003    12 H    0.984    14 H    0.984
                            13 H    0.977
     2   6 C    3.946 --     1 C    1.003     3 N    0.966    15 H    0.966
                            16 H    0.966
     3   7 N    3.711 --     8 C    1.260     4 C    1.260     2 C    0.966
     4   6 C    3.965 --     5 C    1.577     3 N    1.260    17 H    0.957
     5   6 C    3.985 --     4 C    1.577     6 C    1.229    18 H    0.959
     6   6 C    3.977 --     9 N    1.358     7 C    1.229     5 C    1.229
     7   6 C    3.985 --     8 C    1.577     6 C    1.229    19 H    0.959
     8   6 C    3.965 --     7 C    1.577     3 N    1.260    20 H    0.957
     9   7 N    3.595 --     6 C    1.358    10 C    0.996    11 C    0.996
    10   6 C    3.955 --     9 N    0.996    21 H    0.975    23 H    0.969
                            22 H    0.969
    11   6 C    3.955 --     9 N    0.996    26 H    0.975    25 H    0.969
                            24 H    0.969
    12   1 H    0.996 --     1 C    0.984
    13   1 H    0.992 --     1 C    0.977
    14   1 H    0.996 --     1 C    0.984
    15   1 H    0.992 --     2 C    0.966
    16   1 H    0.992 --     2 C    0.966
    17   1 H    0.991 --     4 C    0.957
    18   1 H    0.992 --     5 C    0.959
    19   1 H    0.992 --     7 C    0.959
    20   1 H    0.991 --     8 C    0.957
    21   1 H    0.992 --    10 C    0.975
    22   1 H    0.994 --    10 C    0.969
    23   1 H    0.994 --    10 C    0.969
    24   1 H    0.994 --    11 C    0.969
    25   1 H    0.994 --    11 C    0.969
    26   1 H    0.992 --    11 C    0.975
 ---------------------------------------------------------------------------

molecular dipole:
                 x           y           z       tot (Debye)
 q only:        3.040      -7.228      -2.548
   full:        3.010      -7.192      -2.583      20.876

           -------------------------------------------------
          | TOTAL ENERGY              -32.398101034120 Eh   |
          | GRADIENT NORM               0.000856607845 Eh/α |
          | HOMO-LUMO GAP               3.126509547268 eV   |
           -------------------------------------------------

 * finished run on 2024/12/20 at 07:17:58.593
