   * xtb version 6.7.1 (edcfbbe) compiled by 'conda@3ef47c1a292c' on 2024-11-25

   ID    Z sym.   atoms
    1    7 N      1, 4, 7
    2    6 C      2, 3, 5, 6, 8-14
    3    1 H      15-26

          program call               : xtb C1281.xyz --opt --namespace C1281 --charge +1
          :  Hamiltonian                  GFN2-xTB          :
 * total energy  :   -38.0067357 Eh     change       -0.1354771E-08 Eh
 * total energy  :   -38.0405487 Eh     change       -0.3381302E-01 Eh
 * total energy  :   -38.0425127 Eh     change       -0.1963977E-02 Eh
 * total energy  :   -38.0427095 Eh     change       -0.1967950E-03 Eh
 * total energy  :   -38.0427563 Eh     change       -0.4681545E-04 Eh
 * total energy  :   -38.0427994 Eh     change       -0.4315568E-04 Eh
 * total energy  :   -38.0428187 Eh     change       -0.1930847E-04 Eh
 * total energy  :   -38.0428456 Eh     change       -0.2687949E-04 Eh
 * total energy  :   -38.0428706 Eh     change       -0.2503052E-04 Eh
 * total energy  :   -38.0428940 Eh     change       -0.2340176E-04 Eh
 * total energy  :   -38.0429247 Eh     change       -0.3065305E-04 Eh
 * total energy  :   -38.0429406 Eh     change       -0.1589151E-04 Eh
 * total energy  :   -38.0429690 Eh     change       -0.2838594E-04 Eh
 * total energy  :   -38.0429813 Eh     change       -0.1231093E-04 Eh
 * total energy  :   -38.0429892 Eh     change       -0.7964966E-05 Eh
 * total energy  :   -38.0429925 Eh     change       -0.3268217E-05 Eh
   *** GEOMETRY OPTIMIZATION CONVERGED AFTER 16 ITERATIONS ***

 final structure:
================
26
 xtb: 6.7.1 (edcfbbe)
N            1.27982815046791       -0.47711848702971        0.09839533909487
C            2.40066407601547       -0.27291870122132        0.06654998826741
C            3.83603931128416       -0.06061653859056       -0.02792802733143
N            4.34123022966154       -0.61543189944641       -1.26512178419208
C            4.29866141813437       -1.91305210007812       -1.60767732626673
C            3.78772459664051       -2.98876745381156       -0.73851080336116
N            4.78044778201968       -2.07166527878150       -2.84233270587056
C            5.15908327409214       -0.83334584051835       -3.32998600882458
C            4.86939653700752        0.10371836602642       -2.32242240723456
C            5.12646743530452        1.45683041944605       -2.49573092335899
C            5.68252271484744        1.83764096726494       -3.70022673729165
C            5.97531440502405        0.90780732117085       -4.70032787425378
C            5.72108466958667       -0.43873229628924       -4.53736637315884
C            4.88543435865430       -3.31935834526899       -3.55575468780762
H            4.04221754439024        1.01248276971314       -0.00703824751526
H            4.32431318014055       -0.52748534461454        0.83614825401471
H            4.14271322414255       -2.86253093551709        0.28351734660471
H            2.69635187390175       -2.96662704282999       -0.70698391981333
H            4.10306138106643       -3.96401232242025       -1.09687827981863
H            4.90536923045726        2.18756900638636       -1.73490187214135
H            5.89773753465415        2.87958050488962       -3.87428116340937
H            6.41177071278922        1.25314572444874       -5.62364151285263
H            5.95488906560949       -1.14428632328877       -5.31728720036644
H            5.67634041004979       -3.94090399810950       -3.13209855038657
H            3.94087178827576       -3.86119048413347       -3.51689014269851
H            5.12448509578255       -3.11268168739716       -4.59544438002750

          :  Hamiltonian                  GFN2-xTB          :
         :: total energy             -38.042992517876 Eh    ::
         :: gradient norm              0.000507783070 Eh/a0 ::
         :: HOMO-LUMO gap              3.579994096879 eV    ::
         :: SCC energy               -38.712980662883 Eh    ::
         :: -> dispersion             -0.024383714193 Eh    ::
         :: repulsion energy           0.669988145007 Eh    ::

    * Orbital Energies and Occupations

         #    Occupation            Energy/Eh            Energy/eV
      -------------------------------------------------------------
         1        2.0000           -0.8907908             -24.2397
       ...           ...                  ...                  ...
        23        2.0000           -0.6490239             -17.6608
        24        2.0000           -0.6425890             -17.4857
        25        2.0000           -0.6398225             -17.4105
        26        2.0000           -0.6315168             -17.1844
        27        2.0000           -0.6248591             -17.0033
        28        2.0000           -0.6232530             -16.9596
        29        2.0000           -0.6152096             -16.7407
        30        2.0000           -0.6091376             -16.5755
        31        2.0000           -0.5872418             -15.9797
        32        2.0000           -0.5809271             -15.8078
        33        2.0000           -0.5702349             -15.5169
        34        2.0000           -0.5575778             -15.1725
        35        2.0000           -0.5517779             -15.0146 (HOMO)
        36                         -0.4202155             -11.4346 (LUMO)
        37                         -0.3731169             -10.1530
        38                         -0.3664167              -9.9707
        39                         -0.3585246              -9.7560
        40                         -0.3502210              -9.5300
        41                         -0.2453693              -6.6768
        42                         -0.1865944              -5.0775
        43                         -0.1417052              -3.8560
        44                         -0.0799368              -2.1752
        45                         -0.0597102              -1.6248
        46                         -0.0551916              -1.5018
       ...                                ...                  ...
        68                          1.0009627              27.2376
      -------------------------------------------------------------
                  HL-Gap            0.1315624 Eh            3.5800 eV

     #   Z          covCN         q      C6AA      α(0)
     1   7 N        0.911    -0.156    24.383     7.142
     2   6 C        1.898     0.109    28.411     8.609
     3   6 C        3.743    -0.005    20.747     6.498
     4   7 N        2.839     0.006    21.145     6.830
     5   6 C        3.068     0.123    25.240     8.238
     6   6 C        3.755    -0.138    23.220     6.871
     7   7 N        2.827     0.022    20.864     6.784
     8   6 C        3.098     0.039    27.007     8.517
     9   6 C        3.087     0.039    27.035     8.523
    10   6 C        2.909    -0.033    28.830     8.804
    11   6 C        2.926    -0.016    28.418     8.742
    12   6 C        2.925    -0.017    28.430     8.744
    13   6 C        2.909    -0.031    28.784     8.797
    14   6 C        3.691    -0.075    22.133     6.732
    15   1 H        0.924     0.119     1.623     1.992
    16   1 H        0.924     0.109     1.709     2.044
    17   1 H        0.925     0.097     1.808     2.103
    18   1 H        0.924     0.112     1.677     2.025
    19   1 H        0.925     0.100     1.788     2.091
    20   1 H        0.926     0.068     2.110     2.272
    21   1 H        0.926     0.083     1.946     2.182
    22   1 H        0.926     0.083     1.944     2.180
    23   1 H        0.926     0.073     2.056     2.242
    24   1 H        0.924     0.094     1.842     2.123
    25   1 H        0.925     0.095     1.830     2.115
    26   1 H        0.925     0.102     1.764     2.077

Wiberg/Mayer (AO) data.
largest (>0.10) Wiberg bond orders for each atom

     #   Z sym  total        # sym  WBO       # sym  WBO       # sym  WBO
 ---------------------------------------------------------------------------
     1   7 N    3.037 --     2 C    2.891
     2   6 C    3.952 --     1 N    2.891     3 C    1.022
     3   6 C    3.956 --     2 C    1.022     4 N    0.971    15 H    0.936
                            16 H    0.931
     4   7 N    3.645 --     5 C    1.309     9 C    1.111     3 C    0.971
     5   6 C    3.956 --     7 N    1.345     4 N    1.309     6 C    1.053
     6   6 C    3.975 --     5 C    1.053    19 H    0.969    17 H    0.955
                            18 H    0.936
     7   7 N    3.670 --     5 C    1.345     8 C    1.116    14 C    0.988
     8   6 C    3.952 --    13 C    1.344     9 C    1.277     7 N    1.116
     9   6 C    3.951 --    10 C    1.347     8 C    1.277     4 N    1.111
    10   6 C    3.985 --    11 C    1.486     9 C    1.347    20 H    0.961
                            13 C    0.117
    11   6 C    3.981 --    10 C    1.486    12 C    1.383    21 H    0.965
    12   6 C    3.983 --    13 C    1.489    11 C    1.383    22 H    0.965
    13   6 C    3.984 --    12 C    1.489     8 C    1.344    23 H    0.961
                            10 C    0.117
    14   6 C    3.937 --     7 N    0.988    26 H    0.971    25 H    0.968
                            24 H    0.964
    15   1 H    0.985 --     3 C    0.936
    16   1 H    0.987 --     3 C    0.931
    17   1 H    0.988 --     6 C    0.955
    18   1 H    0.983 --     6 C    0.936
    19   1 H    0.989 --     6 C    0.969
    20   1 H    0.995 --    10 C    0.961
    21   1 H    0.993 --    11 C    0.965
    22   1 H    0.993 --    12 C    0.965
    23   1 H    0.994 --    13 C    0.961
    24   1 H    0.990 --    14 C    0.964
    25   1 H    0.990 --    14 C    0.968
    26   1 H    0.989 --    14 C    0.971
 ---------------------------------------------------------------------------

molecular dipole:
                 x           y           z       tot (Debye)
 q only:        9.342      -2.410      -4.206
   full:        9.776      -2.381      -4.115      27.629

           -------------------------------------------------
          | TOTAL ENERGY              -38.042992517876 Eh   |
          | GRADIENT NORM               0.000507783070 Eh/α |
          | HOMO-LUMO GAP               3.579994096879 eV   |
           -------------------------------------------------

 * finished run on 2024/12/20 at 07:18:19.793
