   * xtb version 6.7.1 (edcfbbe) compiled by 'conda@3ef47c1a292c' on 2024-11-25

   ID    Z sym.   atoms
    1    6 C      1, 2, 4, 6, 8-12, 14-19, 22-26, 28-30
    2    8 O      3, 5, 13
    3    7 N      7, 21, 27
    4   17 Cl     20
    5    1 H      31-49

          program call               : xtb C1285.xyz --opt --namespace C1285 --charge +1
          :  Hamiltonian                  GFN2-xTB          :
 * total energy  :   -84.0699844 Eh     change       -0.1161524E-08 Eh
 * total energy  :   -84.0834714 Eh     change       -0.1348699E-01 Eh
 * total energy  :   -84.0871328 Eh     change       -0.3661376E-02 Eh
 * total energy  :   -84.0877973 Eh     change       -0.6644508E-03 Eh
 * total energy  :   -84.0882949 Eh     change       -0.4976095E-03 Eh
 * total energy  :   -84.0886666 Eh     change       -0.3717527E-03 Eh
 * total energy  :   -84.0891726 Eh     change       -0.5060148E-03 Eh
 * total energy  :   -84.0901288 Eh     change       -0.9562062E-03 Eh
 * total energy  :   -84.0907749 Eh     change       -0.6461109E-03 Eh
 * total energy  :   -84.0914185 Eh     change       -0.6435359E-03 Eh
 * total energy  :   -84.1023549 Eh     change       -0.4338283E-04 Eh
 * total energy  :   -84.1023965 Eh     change       -0.4162940E-04 Eh
 * total energy  :   -84.1024345 Eh     change       -0.3795545E-04 Eh
 * total energy  :   -84.1024632 Eh     change       -0.2875765E-04 Eh
 * total energy  :   -84.1024735 Eh     change       -0.1024297E-04 Eh
 * total energy  :   -84.1024833 Eh     change       -0.9806234E-05 Eh
 * total energy  :   -84.1024895 Eh     change       -0.6177115E-05 Eh
 * total energy  :   -84.1024937 Eh     change       -0.4217343E-05 Eh
 * total energy  :   -84.1024967 Eh     change       -0.2993341E-05 Eh
   *** GEOMETRY OPTIMIZATION CONVERGED AFTER 65 ITERATIONS ***

 final structure:
================
49
 xtb: 6.7.1 (edcfbbe)
C            0.75006026224756        1.50357686336199       -0.97642279536785
C            2.16666869276712        1.17805946880215       -1.41830823444464
O            2.17741236322844        0.37308061800385       -2.61407557769127
C            2.04733369833417       -0.92537095311486       -2.47754497267932
O            1.89851384625068       -1.53936479145913       -1.45636563760607
C            2.13121178450294       -1.62276752189538       -3.85267213444690
N            1.86218310100707       -3.02460602447505       -3.69872301172835
C            0.76637471200974       -3.55323108918532       -3.10143708925843
C           -0.38069479128857       -2.81154566499614       -2.71073706595641
C           -1.40898718014734       -3.07827380807069       -1.81652657474549
C           -2.21086977587333       -1.93807246585929       -1.77895155299170
C           -1.64688509275358       -1.02162317297170       -2.65227523285543
O           -0.54137844637307       -1.55297509245460       -3.20601947223905
C           -2.04832972659069        0.31571778449208       -3.01467204103538
C           -1.27910523111189        1.07011306415349       -3.90921700225555
C           -1.65111823582275        2.35145649040936       -4.25258661162105
C           -2.80397312734135        2.90493190575128       -3.70430139546786
C           -3.58067385722304        2.16824083368436       -2.81482487315829
C           -3.20653092676657        0.88663677543694       -2.47423366194703
Cl          -3.26840062928396        4.50216870092310       -4.12614418737571
N            0.93318714016693       -4.88489743006029       -2.95379402035180
C            2.18087025256232       -5.22342241870984       -3.43033899992176
C            2.77595695039318       -4.03793949547030       -3.90115939950705
C            4.04454514718042       -4.03870329817947       -4.45592154275309
C            4.70081372651762       -5.26414670727973       -4.51982080528105
C            6.00351726176381       -5.31963019004784       -5.08015289786260
N            7.05247315376181       -5.35905874865973       -5.53474877802556
C            4.10964994127133       -6.44683502277857       -4.04604143038616
C            2.84582942859593       -6.44224799684986       -3.49564250634791
C           -0.02325550200518       -5.82602366361383       -2.43724417163488
H            0.20948645388794        2.01619032384259       -1.76803285810634
H            0.79107388108201        2.14751599098997       -0.10338365157826
H            0.21520716440930        0.59445518557111       -0.71175699078338
H            2.71268044927651        2.08152554805435       -1.69217109439440
H            2.70064318946295        0.63934408050932       -0.63034712649503
H            1.42688843181930       -1.15306372643769       -4.54284843430350
H            3.14064926052245       -1.49156525431957       -4.24505936366848
H           -1.55124050380159       -3.95898991793413       -1.22718265537715
H           -3.08678548391517       -1.80327567590052       -1.18018001654627
H           -0.38166790919364        0.64446910120165       -4.33063990868130
H           -1.05514002532753        2.92841942411712       -4.94155943786897
H           -4.47334787586335        2.60441517903608       -2.39654213404554
H           -3.81524082569932        0.32296196364831       -1.78653313054813
H            4.52350282762527       -3.14711807978131       -4.82798604540366
H            4.66415499897094       -7.36945114522946       -4.11769779873285
H            2.40511756435804       -7.35427359057662       -3.12856356724168
H            0.00042298221011       -5.84449622434529       -1.34605743007497
H           -1.02473064783740       -5.56365434738874       -2.77633536299991
H            0.22393712805352       -6.81820578390164       -2.80926931617189

          :  Hamiltonian                  GFN2-xTB          :
         :: total energy             -84.102496664179 Eh    ::
         :: gradient norm              0.000618444500 Eh/a0 ::
         :: HOMO-LUMO gap              1.750458146341 eV    ::
         :: SCC energy               -85.350471985424 Eh    ::
         :: -> dispersion             -0.060606611887 Eh    ::
         :: repulsion energy           1.247975321245 Eh    ::

    * Orbital Energies and Occupations

         #    Occupation            Energy/Eh            Energy/eV
      -------------------------------------------------------------
         1        2.0000           -1.1414763             -31.0612
       ...           ...                  ...                  ...
        63        2.0000           -0.5681290             -15.4596
        64        2.0000           -0.5619408             -15.2912
        65        2.0000           -0.5567953             -15.1512
        66        2.0000           -0.5532019             -15.0534
        67        2.0000           -0.5510364             -14.9945
        68        2.0000           -0.5479273             -14.9099
        69        2.0000           -0.5428295             -14.7711
        70        2.0000           -0.5370275             -14.6133
        71        2.0000           -0.5255127             -14.2999
        72        2.0000           -0.5224791             -14.2174
        73        2.0000           -0.5215195             -14.1913
        74        2.0000           -0.5066505             -13.7867
        75        2.0000           -0.4902028             -13.3391 (HOMO)
        76                         -0.4258746             -11.5886 (LUMO)
        77                         -0.3857666             -10.4972
        78                         -0.3709419             -10.0938
        79                         -0.3562889              -9.6951
        80                         -0.3552280              -9.6662
        81                         -0.3416467              -9.2967
        82                         -0.3086414              -8.3986
        83                         -0.3011206              -8.1939
        84                         -0.2854060              -7.7663
        85                         -0.2810726              -7.6484
        86                         -0.2199677              -5.9856
       ...                                ...                  ...
       144                          1.0738382              29.2206
      -------------------------------------------------------------
                  HL-Gap            0.0643282 Eh            1.7505 eV

     #   Z          covCN         q      C6AA      α(0)
     1   6 C        3.750    -0.118    22.824     6.813
     2   6 C        3.699     0.071    19.547     6.323
     3   8 O        1.703    -0.242    18.004     5.729
     4   6 C        2.715     0.366    20.798     7.465
     5   8 O        0.856    -0.402    21.712     6.247
     6   6 C        3.741    -0.042    21.397     6.600
     7   7 N        2.823     0.011    21.053     6.815
     8   6 C        3.061     0.116    25.391     8.263
     9   6 C        3.075     0.099    25.724     8.316
    10   6 C        3.004    -0.044    29.080     8.846
    11   6 C        3.006    -0.057    29.409     8.896
    12   6 C        3.082     0.140    24.859     8.174
    13   8 O        1.728    -0.189    17.157     5.593
    14   6 C        2.969    -0.000    28.031     8.684
    15   6 C        2.925    -0.022    28.558     8.764
    16   6 C        2.953    -0.036    28.886     8.815
    17   6 C        2.887     0.111    25.554     8.288
    18   6 C        2.953    -0.032    28.799     8.802
    19   6 C        2.924    -0.026    28.650     8.778
    20  17 Cl       0.969    -0.115   102.748    15.508
    21   7 N        2.819     0.013    21.026     6.810
    22   6 C        3.088     0.047    26.849     8.494
    23   6 C        3.084     0.046    26.885     8.500
    24   6 C        2.919    -0.031    28.777     8.797
    25   6 C        2.979     0.036    27.191     8.554
    26   6 C        1.913     0.114    28.299     8.591
    27   7 N        0.911    -0.172    24.734     7.193
    28   6 C        2.932    -0.016    28.402     8.740
    29   6 C        2.909    -0.033    28.828     8.804
    30   6 C        3.690    -0.074    22.114     6.730
    31   1 H        0.925     0.058     2.223     2.332
    32   1 H        0.925     0.072     2.068     2.249
    33   1 H        0.925     0.054     2.268     2.355
    34   1 H        0.924     0.081     1.971     2.195
    35   1 H        0.924     0.071     2.070     2.250
    36   1 H        0.924     0.106     1.731     2.058
    37   1 H        0.924     0.105     1.737     2.061
    38   1 H        0.927     0.073     2.056     2.242
    39   1 H        0.927     0.075     2.036     2.231
    40   1 H        0.926     0.056     2.251     2.346
    41   1 H        0.926     0.076     2.020     2.223
    42   1 H        0.926     0.081     1.967     2.193
    43   1 H        0.926     0.066     2.134     2.284
    44   1 H        0.926     0.070     2.090     2.261
    45   1 H        0.926     0.083     1.946     2.181
    46   1 H        0.926     0.073     2.050     2.239
    47   1 H        0.924     0.093     1.846     2.125
    48   1 H        0.925     0.090     1.882     2.146
    49   1 H        0.925     0.099     1.792     2.093

Wiberg/Mayer (AO) data.
largest (>0.10) Wiberg bond orders for each atom

     #   Z sym  total        # sym  WBO       # sym  WBO       # sym  WBO
 ---------------------------------------------------------------------------
     1   6 C    3.989 --     2 C    1.015    33 H    0.984    31 H    0.983
                            32 H    0.979
     2   6 C    3.901 --     1 C    1.015    35 H    0.969    34 H    0.969
                             3 O    0.908
     3   8 O    2.350 --     4 C    1.198     2 C    0.908     5 O    0.187
     4   6 C    3.931 --     5 O    1.744     3 O    1.198     6 C    0.921
     5   8 O    2.056 --     4 C    1.744     3 O    0.187
     6   6 C    3.955 --     7 N    0.997    37 H    0.947    36 H    0.945
                             4 C    0.921
     7   7 N    3.624 --     8 C    1.251    23 C    1.122     6 C    0.997
     8   6 C    3.948 --    21 N    1.269     7 N    1.251     9 C    1.171
     9   6 C    3.891 --    10 C    1.409     8 C    1.171    13 O    1.075
    10   6 C    3.968 --     9 C    1.409    11 C    1.404    38 H    0.967
    11   6 C    3.974 --    12 C    1.427    10 C    1.404    39 H    0.969
    12   6 C    3.892 --    11 C    1.427    13 O    1.126    14 C    1.117
    13   8 O    2.422 --    12 C    1.126     9 C    1.075
    14   6 C    3.984 --    15 C    1.344    19 C    1.343    12 C    1.117
    15   6 C    3.984 --    16 C    1.478    14 C    1.344    40 H    0.965
    16   6 C    3.984 --    15 C    1.478    17 C    1.374    41 H    0.965
    17   6 C    3.906 --    16 C    1.374    18 C    1.374    20 Cl   1.023
    18   6 C    3.985 --    19 C    1.480    17 C    1.374    42 H    0.964
    19   6 C    3.976 --    18 C    1.480    14 C    1.343    43 H    0.965
    20  17 Cl   1.173 --    17 C    1.023
    21   7 N    3.632 --     8 C    1.269    22 C    1.132    30 C    0.993
    22   6 C    3.935 --    29 C    1.341    23 C    1.262    21 N    1.132
    23   6 C    3.951 --    24 C    1.364    22 C    1.262     7 N    1.122
    24   6 C    3.977 --    25 C    1.401    23 C    1.364    44 H    0.961
                            29 C    0.107
    25   6 C    3.979 --    24 C    1.401    28 C    1.324    26 C    1.083
    26   6 C    3.952 --    27 N    2.831    25 C    1.083
    27   7 N    2.995 --    26 C    2.831
    28   6 C    3.976 --    29 C    1.493    25 C    1.324    45 H    0.965
    29   6 C    3.976 --    28 C    1.493    22 C    1.341    46 H    0.961
                            24 C    0.107
    30   6 C    3.941 --    21 N    0.993    49 H    0.970    48 H    0.968
                            47 H    0.963
    31   1 H    0.997 --     1 C    0.983
    32   1 H    0.994 --     1 C    0.979
    33   1 H    0.997 --     1 C    0.984
    34   1 H    0.993 --     2 C    0.969
    35   1 H    0.995 --     2 C    0.969
    36   1 H    0.988 --     6 C    0.945
    37   1 H    0.988 --     6 C    0.947
    38   1 H    0.994 --    10 C    0.967
    39   1 H    0.994 --    11 C    0.969
    40   1 H    0.997 --    15 C    0.965
    41   1 H    0.994 --    16 C    0.965
    42   1 H    0.993 --    18 C    0.964
    43   1 H    0.996 --    19 C    0.965
    44   1 H    0.995 --    24 C    0.961
    45   1 H    0.993 --    28 C    0.965
    46   1 H    0.993 --    29 C    0.961
    47   1 H    0.990 --    30 C    0.963
    48   1 H    0.991 --    30 C    0.968
    49   1 H    0.989 --    30 C    0.970
 ---------------------------------------------------------------------------

molecular dipole:
                 x           y           z       tot (Debye)
 q only:        0.453      -5.361      -5.482
   full:       -0.084      -4.981      -5.444      18.757

           -------------------------------------------------
          | TOTAL ENERGY              -84.102496664179 Eh   |
          | GRADIENT NORM               0.000618444500 Eh/α |
          | HOMO-LUMO GAP               1.750458146341 eV   |
           -------------------------------------------------

 * finished run on 2024/12/20 at 07:18:24.309
