   * xtb version 6.7.1 (edcfbbe) compiled by 'conda@3ef47c1a292c' on 2024-11-25

   ID    Z sym.   atoms
    1    8 O      1, 3
    2    6 C      2, 4-6, 8-12
    3    7 N      7
    4    1 H      13-24

          program call               : xtb C1282.xyz --opt --namespace C1282 --charge +1
          :  Hamiltonian                  GFN2-xTB          :
 * total energy  :   -36.0413422 Eh     change       -0.2580194E-09 Eh
 * total energy  :   -36.0451923 Eh     change       -0.3850116E-02 Eh
 * total energy  :   -36.0461438 Eh     change       -0.9514481E-03 Eh
 * total energy  :   -36.0463891 Eh     change       -0.2453190E-03 Eh
 * total energy  :   -36.0465175 Eh     change       -0.1284175E-03 Eh
 * total energy  :   -36.0465824 Eh     change       -0.6492688E-04 Eh
 * total energy  :   -36.0466426 Eh     change       -0.6015483E-04 Eh
 * total energy  :   -36.0467165 Eh     change       -0.7392140E-04 Eh
 * total energy  :   -36.0468092 Eh     change       -0.9274648E-04 Eh
 * total energy  :   -36.0469146 Eh     change       -0.1053869E-03 Eh
 * total energy  :   -36.0470196 Eh     change       -0.1049711E-03 Eh
 * total energy  :   -36.0471067 Eh     change       -0.8709917E-04 Eh
 * total energy  :   -36.0471547 Eh     change       -0.4804355E-04 Eh
 * total energy  :   -36.0471797 Eh     change       -0.2490985E-04 Eh
 * total energy  :   -36.0471953 Eh     change       -0.1560693E-04 Eh
 * total energy  :   -36.0472028 Eh     change       -0.7551500E-05 Eh
 * total energy  :   -36.0472088 Eh     change       -0.5967843E-05 Eh
 * total energy  :   -36.0472120 Eh     change       -0.3249876E-05 Eh
   *** GEOMETRY OPTIMIZATION CONVERGED AFTER 18 ITERATIONS ***

 final structure:
================
24
 xtb: 6.7.1 (edcfbbe)
O            1.16633576157840        0.05903988296410        0.33627838755365
C            0.46722086297842        1.00649109784997        0.99429293551635
O            0.96513444273093        2.00576229537085        1.41206024892608
C           -1.00582166619039        0.65515493947056        1.08857672851507
C           -1.77791307832737        1.21464284544304       -0.11039423213332
C           -1.40964160687406        0.54421787954243       -1.44170883624127
N           -1.84836354219012       -0.84114517147182       -1.46400747631017
C           -1.00756036002016       -1.81256068014213       -1.09193689483822
C           -1.42044581988649       -3.12962829333277       -1.04296970040847
C           -2.72776346455854       -3.44663155466422       -1.38635810190773
C           -3.58405004882972       -2.42111305467307       -1.77067737261209
C           -3.11330252818945       -1.12550542777166       -1.79646311583043
H            2.11085155973190        0.28720430899074        0.32597102385041
H           -1.12029598862226       -0.42675552894596        1.16825557539042
H           -1.39229878578097        1.11953320444116        1.99588145594939
H           -2.84885482047027        1.10420907799387        0.07053295807598
H           -1.56223179630581        2.28013287038574       -0.20041155663803
H           -1.89136679578744        1.08061983977425       -2.26140993241799
H           -0.32919198267416        0.57423251522369       -1.58841539577218
H            0.00073657218304       -1.52189076702650       -0.82888395440442
H           -0.72293764647812       -3.89426671370316       -0.73926800384777
H           -3.07259207375820       -4.46825662720308       -1.35809462437160
H           -4.60584816590431       -2.62379122742235       -2.04965957392418
H           -3.74571902835548       -0.30003571109351       -2.08983054212032

          :  Hamiltonian                  GFN2-xTB          :
         :: total energy             -36.047212034513 Eh    ::
         :: gradient norm              0.000682763336 Eh/a0 ::
         :: HOMO-LUMO gap              2.176647930936 eV    ::
         :: SCC energy               -36.549864164178 Eh    ::
         :: -> dispersion             -0.019194025424 Eh    ::
         :: repulsion energy           0.502652129665 Eh    ::

    * Orbital Energies and Occupations

         #    Occupation            Energy/Eh            Energy/eV
      -------------------------------------------------------------
         1        2.0000           -0.8857398             -24.1022
       ...           ...                  ...                  ...
        20        2.0000           -0.6806879             -18.5225
        21        2.0000           -0.6680807             -18.1794
        22        2.0000           -0.6581290             -17.9086
        23        2.0000           -0.6356472             -17.2968
        24        2.0000           -0.6322048             -17.2032
        25        2.0000           -0.6288688             -17.1124
        26        2.0000           -0.6273874             -17.0721
        27        2.0000           -0.6206483             -16.8887
        28        2.0000           -0.6135842             -16.6965
        29        2.0000           -0.6048317             -16.4583
        30        2.0000           -0.5998408             -16.3225
        31        2.0000           -0.5948101             -16.1856
        32        2.0000           -0.5442072             -14.8086 (HOMO)
        33                         -0.4642169             -12.6320 (LUMO)
        34                         -0.4333050             -11.7908
        35                         -0.3589919              -9.7687
        36                         -0.3128248              -8.5124
        37                         -0.1787193              -4.8632
        38                         -0.0929214              -2.5285
        39                         -0.0787666              -2.1433
        40                         -0.0646748              -1.7599
        41                         -0.0529748              -1.4415
        42                         -0.0354595              -0.9649
        43                         -0.0243972              -0.6639
       ...                                ...                  ...
        60                          0.5493925              14.9497
      -------------------------------------------------------------
                  HL-Gap            0.0799903 Eh            2.1766 eV

     #   Z          covCN         q      C6AA      α(0)
     1   8 O        1.659    -0.396    20.770     6.152
     2   6 C        2.688     0.358    20.920     7.485
     3   8 O        0.856    -0.360    20.896     6.129
     4   6 C        3.802    -0.101    22.424     6.742
     5   6 C        3.803    -0.066    21.768     6.642
     6   6 C        3.759    -0.041    21.354     6.588
     7   7 N        2.750     0.117    19.243     6.515
     8   6 C        2.890     0.028    27.369     8.577
     9   6 C        2.916    -0.010    28.268     8.719
    10   6 C        2.924     0.014    27.692     8.630
    11   6 C        2.915    -0.010    28.257     8.717
    12   6 C        2.892     0.031    27.306     8.567
    13   1 H        0.804     0.343     0.606     1.223
    14   1 H        0.924     0.063     2.161     2.299
    15   1 H        0.925     0.099     1.797     2.096
    16   1 H        0.924     0.070     2.087     2.259
    17   1 H        0.924     0.094     1.840     2.121
    18   1 H        0.924     0.097     1.816     2.107
    19   1 H        0.924     0.103     1.760     2.075
    20   1 H        0.925     0.129     1.539     1.940
    21   1 H        0.926     0.110     1.700     2.039
    22   1 H        0.926     0.109     1.707     2.043
    23   1 H        0.926     0.110     1.700     2.039
    24   1 H        0.926     0.110     1.701     2.039

Wiberg/Mayer (AO) data.
largest (>0.10) Wiberg bond orders for each atom

     #   Z sym  total        # sym  WBO       # sym  WBO       # sym  WBO
 ---------------------------------------------------------------------------
     1   8 O    2.181 --     2 C    1.107    13 H    0.858     3 O    0.176
     2   6 C    3.919 --     3 O    1.821     1 O    1.107     4 C    0.965
     3   8 O    2.092 --     2 C    1.821     1 O    0.176
     4   6 C    3.991 --     5 C    0.993    14 H    0.967     2 C    0.965
                            15 H    0.960
     5   6 C    3.983 --     4 C    0.993     6 C    0.980    16 H    0.970
                            17 H    0.963
     6   6 C    3.936 --     5 C    0.980     7 N    0.965    18 H    0.961
                            19 H    0.960
     7   7 N    3.770 --     8 C    1.329    12 C    1.324     6 C    0.965
     8   6 C    3.951 --     9 C    1.454     7 N    1.329    20 H    0.944
     9   6 C    3.981 --     8 C    1.454    10 C    1.428    21 H    0.959
    10   6 C    3.969 --     9 C    1.428    11 C    1.416    22 H    0.961
    11   6 C    3.980 --    12 C    1.468    10 C    1.416    23 H    0.959
    12   6 C    3.959 --    11 C    1.468     7 N    1.324    24 H    0.954
    13   1 H    0.882 --     1 O    0.858
    14   1 H    0.996 --     4 C    0.967
    15   1 H    0.990 --     4 C    0.960
    16   1 H    0.995 --     5 C    0.970
    17   1 H    0.990 --     5 C    0.963
    18   1 H    0.990 --     6 C    0.961
    19   1 H    0.989 --     6 C    0.960
    20   1 H    0.983 --     8 C    0.944
    21   1 H    0.988 --     9 C    0.959
    22   1 H    0.988 --    10 C    0.961
    23   1 H    0.988 --    11 C    0.959
    24   1 H    0.988 --    12 C    0.954
 ---------------------------------------------------------------------------

molecular dipole:
                 x           y           z       tot (Debye)
 q only:       -3.916      -2.883      -2.610
   full:       -3.821      -2.946      -2.672      14.018

           -------------------------------------------------
          | TOTAL ENERGY              -36.047212034513 Eh   |
          | GRADIENT NORM               0.000682763336 Eh/α |
          | HOMO-LUMO GAP               2.176647930936 eV   |
           -------------------------------------------------

 * finished run on 2024/12/20 at 07:18:20.349
