   * xtb version 6.7.1 (edcfbbe) compiled by 'conda@3ef47c1a292c' on 2024-11-25

   ID    Z sym.   atoms
    1    6 C      1-3, 5, 6, 8-13
    2    7 N      4, 7
    3    1 H      14-34

          program call               : xtb C1287.xyz --opt --namespace C1287 --charge +1
          :  Hamiltonian                  GFN2-xTB          :
 * total energy  :   -39.7622333 Eh     change       -0.3274963E-09 Eh
 * total energy  :   -39.7659957 Eh     change       -0.3762383E-02 Eh
 * total energy  :   -39.7669060 Eh     change       -0.9103312E-03 Eh
 * total energy  :   -39.7671367 Eh     change       -0.2306945E-03 Eh
 * total energy  :   -39.7673092 Eh     change       -0.1725438E-03 Eh
 * total energy  :   -39.7673843 Eh     change       -0.7507206E-04 Eh
 * total energy  :   -39.7674539 Eh     change       -0.6962216E-04 Eh
 * total energy  :   -39.7675156 Eh     change       -0.6165048E-04 Eh
 * total energy  :   -39.7675407 Eh     change       -0.2514398E-04 Eh
 * total energy  :   -39.7675503 Eh     change       -0.9595317E-05 Eh
 * total energy  :   -39.7675590 Eh     change       -0.8643939E-05 Eh
 * total energy  :   -39.7675723 Eh     change       -0.1334026E-04 Eh
 * total energy  :   -39.7675846 Eh     change       -0.1233831E-04 Eh
 * total energy  :   -39.7675933 Eh     change       -0.8617317E-05 Eh
 * total energy  :   -39.7675980 Eh     change       -0.4794143E-05 Eh
   *** GEOMETRY OPTIMIZATION CONVERGED AFTER 15 ITERATIONS ***

 final structure:
================
34
 xtb: 6.7.1 (edcfbbe)
C            1.07335316212135       -0.03399075109835        0.05058024014793
C            0.34871702474376        0.69611450378020       -1.07572086444177
C            0.74802017520568        0.13866038334044       -2.45887744582662
N            0.39841685577402       -1.25212072738053       -2.61408356825454
C           -0.79224507427927       -1.73130937593462       -3.06784407716699
C           -0.73825766320915       -3.09036734707561       -2.99403696652461
N            0.48183353464547       -3.42112387051342       -2.48827715474000
C            1.15228450166975       -2.29325854787935       -2.26895195195598
C            0.98405894746198       -4.76303800747832       -2.32300283299713
C            1.49003089484270       -5.34895242697917       -3.65585995389253
C            2.68853121452178       -4.56244506874692       -4.17713721456801
C            1.85602871649287       -6.81436355778128       -3.44222279630169
C           -1.16246878226738        0.65743100723692       -0.87085763427596
H            0.75197742759687       -1.07166730714989        0.12280959076706
H            0.85011557173056        0.44539579573781        0.99889733074174
H            2.15087440552142       -0.00378271362238       -0.09220148027455
H            0.67242390628080        1.74078556753732       -1.07611522695862
H            0.23905258513415        0.70594743010789       -3.24038557999850
H            1.82679577231708        0.24015753142889       -2.59437773334588
H           -1.57848684201280       -1.09189477178215       -3.41283718219141
H           -1.47184952328615       -3.82481772432838       -3.25646341153728
H            2.14910346092074       -2.23308605674907       -1.87808056168643
H            1.80017793774679       -4.74469285308919       -1.59800183610532
H            0.17779107554740       -5.38686443245753       -1.93109485849573
H            0.67861656329220       -5.28936186007762       -4.38896611663833
H            3.50556689313819       -4.58822041767653       -3.45950883692765
H            3.04334598761675       -5.00468052227586       -5.10332744308968
H            2.43159031099108       -3.52475958360473       -4.38348478174516
H            1.00110698848009       -7.38356484517081       -3.08686333019646
H            2.18982961763336       -7.25333452987773       -4.37754493754813
H            2.66024049991245       -6.90731151795975       -2.71681441753245
H           -1.41797337958889        1.15531889129500        0.05995912709700
H           -1.67917707252824        1.17320953629419       -1.67649047161331
H           -1.53014569416847       -0.36536183007064       -0.81134562192284

          :  Hamiltonian                  GFN2-xTB          :
         :: total energy             -39.767598046571 Eh    ::
         :: gradient norm              0.000277963718 Eh/a0 ::
         :: HOMO-LUMO gap              4.230959001992 eV    ::
         :: SCC energy               -40.374609546688 Eh    ::
         :: -> dispersion             -0.026699060797 Eh    ::
         :: repulsion energy           0.607011500117 Eh    ::

    * Orbital Energies and Occupations

         #    Occupation            Energy/Eh            Energy/eV
      -------------------------------------------------------------
         1        2.0000           -0.8896048             -24.2074
       ...           ...                  ...                  ...
        25        2.0000           -0.6141215             -16.7111
        26        2.0000           -0.6104265             -16.6106
        27        2.0000           -0.5970343             -16.2461
        28        2.0000           -0.5930328             -16.1372
        29        2.0000           -0.5860228             -15.9465
        30        2.0000           -0.5788855             -15.7523
        31        2.0000           -0.5776401             -15.7184
        32        2.0000           -0.5706782             -15.5289
        33        2.0000           -0.5668584             -15.4250
        34        2.0000           -0.5650854             -15.3768
        35        2.0000           -0.5616861             -15.2843
        36        2.0000           -0.5599172             -15.2361
        37        2.0000           -0.5560725             -15.1315 (HOMO)
        38                         -0.4005876             -10.9005 (LUMO)
        39                         -0.3650267              -9.9329
        40                         -0.1779848              -4.8432
        41                         -0.1251859              -3.4065
        42                         -0.0662482              -1.8027
        43                         -0.0611508              -1.6640
        44                         -0.0536159              -1.4590
        45                         -0.0447621              -1.2180
        46                         -0.0355310              -0.9668
        47                         -0.0343081              -0.9336
        48                         -0.0147680              -0.4019
       ...                                ...                  ...
        73                          0.4689637              12.7612
      -------------------------------------------------------------
                  HL-Gap            0.1554849 Eh            4.2310 eV

     #   Z          covCN         q      C6AA      α(0)
     1   6 C        3.755    -0.120    22.859     6.817
     2   6 C        3.849    -0.016    20.831     6.492
     3   6 C        3.744    -0.032    21.223     6.572
     4   7 N        2.867     0.071    19.995     6.641
     5   6 C        3.074    -0.007    28.107     8.692
     6   6 C        3.074    -0.008    28.150     8.699
     7   7 N        2.867     0.066    20.082     6.656
     8   6 C        3.102     0.047    26.819     8.486
     9   6 C        3.747    -0.032    21.217     6.570
    10   6 C        3.849    -0.012    20.760     6.481
    11   6 C        3.755    -0.120    22.847     6.815
    12   6 C        3.757    -0.122    22.885     6.820
    13   6 C        3.755    -0.120    22.864     6.818
    14   1 H        0.925     0.035     2.522     2.484
    15   1 H        0.925     0.069     2.097     2.265
    16   1 H        0.925     0.046     2.370     2.407
    17   1 H        0.924     0.069     2.100     2.266
    18   1 H        0.924     0.088     1.899     2.155
    19   1 H        0.924     0.081     1.968     2.194
    20   1 H        0.926     0.107     1.723     2.053
    21   1 H        0.926     0.104     1.748     2.068
    22   1 H        0.926     0.112     1.679     2.026
    23   1 H        0.924     0.083     1.945     2.181
    24   1 H        0.924     0.088     1.902     2.157
    25   1 H        0.924     0.048     2.340     2.392
    26   1 H        0.925     0.051     2.312     2.378
    27   1 H        0.925     0.068     2.112     2.273
    28   1 H        0.925     0.029     2.604     2.524
    29   1 H        0.925     0.051     2.303     2.373
    30   1 H        0.925     0.067     2.114     2.274
    31   1 H        0.925     0.055     2.263     2.353
    32   1 H        0.925     0.067     2.119     2.277
    33   1 H        0.925     0.049     2.331     2.388
    34   1 H        0.925     0.039     2.463     2.454

Wiberg/Mayer (AO) data.
largest (>0.10) Wiberg bond orders for each atom

     #   Z sym  total        # sym  WBO       # sym  WBO       # sym  WBO
 ---------------------------------------------------------------------------
     1   6 C    3.992 --     2 C    1.012    16 H    0.985    14 H    0.984
                            15 H    0.981
     2   6 C    3.985 --     1 C    1.012    13 C    1.011     3 C    0.964
                            17 H    0.959
     3   6 C    3.937 --     4 N    0.973    19 H    0.965    18 H    0.964
                             2 C    0.964
     4   7 N    3.718 --     8 C    1.357     5 C    1.228     3 C    0.973
     5   6 C    3.950 --     6 C    1.588     4 N    1.228    20 H    0.961
     6   6 C    3.950 --     5 C    1.588     7 N    1.227    21 H    0.962
     7   7 N    3.717 --     8 C    1.358     6 C    1.227     9 C    0.971
     8   6 C    3.946 --     7 N    1.358     4 N    1.357    22 H    0.953
     9   6 C    3.935 --     7 N    0.971    23 H    0.966    10 C    0.965
                            24 H    0.961
    10   6 C    3.985 --    11 C    1.012    12 C    1.005    25 H    0.967
                             9 C    0.965
    11   6 C    3.992 --    10 C    1.012    28 H    0.985    26 H    0.985
                            27 H    0.981
    12   6 C    3.988 --    10 C    1.005    31 H    0.985    29 H    0.984
                            30 H    0.981
    13   6 C    3.992 --     2 C    1.011    33 H    0.985    34 H    0.984
                            32 H    0.981
    14   1 H    0.999 --     1 C    0.984
    15   1 H    0.995 --     1 C    0.981
    16   1 H    0.998 --     1 C    0.985
    17   1 H    0.994 --     2 C    0.959
    18   1 H    0.992 --     3 C    0.964
    19   1 H    0.993 --     3 C    0.965
    20   1 H    0.988 --     5 C    0.961
    21   1 H    0.989 --     6 C    0.962
    22   1 H    0.987 --     8 C    0.953
    23   1 H    0.993 --     9 C    0.966
    24   1 H    0.992 --     9 C    0.961
    25   1 H    0.998 --    10 C    0.967
    26   1 H    0.997 --    11 C    0.985
    27   1 H    0.995 --    11 C    0.981
    28   1 H    0.999 --    11 C    0.985
    29   1 H    0.997 --    12 C    0.984
    30   1 H    0.994 --    12 C    0.981
    31   1 H    0.997 --    12 C    0.985
    32   1 H    0.995 --    13 C    0.981
    33   1 H    0.998 --    13 C    0.985
    34   1 H    0.998 --    13 C    0.984
 ---------------------------------------------------------------------------

molecular dipole:
                 x           y           z       tot (Debye)
 q only:        1.108      -4.486      -4.662
   full:        1.130      -4.456      -4.662      16.642

           -------------------------------------------------
          | TOTAL ENERGY              -39.767598046571 Eh   |
          | GRADIENT NORM               0.000277963718 Eh/α |
          | HOMO-LUMO GAP               4.230959001992 eV   |
           -------------------------------------------------

 * finished run on 2024/12/20 at 07:18:26.424
