   * xtb version 6.7.1 (edcfbbe) compiled by 'conda@3ef47c1a292c' on 2024-11-25

   ID    Z sym.   atoms
    1    6 C      1, 3, 5, 6, 8
    2    8 O      2, 4, 7
    3    7 N      9
    4    1 H      10-21

          program call               : xtb C1289.xyz --opt --namespace C1289 --charge +1
          :  Hamiltonian                  GFN2-xTB          :
 * total energy  :   -31.5105144 Eh     change       -0.7957368E-10 Eh
 * total energy  :   -31.5166701 Eh     change       -0.6155771E-02 Eh
 * total energy  :   -31.5178700 Eh     change       -0.1199836E-02 Eh
 * total energy  :   -31.5182321 Eh     change       -0.3621435E-03 Eh
 * total energy  :   -31.5184315 Eh     change       -0.1993488E-03 Eh
 * total energy  :   -31.5186061 Eh     change       -0.1746720E-03 Eh
 * total energy  :   -31.5187823 Eh     change       -0.1761573E-03 Eh
 * total energy  :   -31.5189131 Eh     change       -0.1308249E-03 Eh
 * total energy  :   -31.5189808 Eh     change       -0.6771400E-04 Eh
 * total energy  :   -31.5190116 Eh     change       -0.3077949E-04 Eh
 * total energy  :   -31.5190606 Eh     change       -0.2700470E-04 Eh
 * total energy  :   -31.5190915 Eh     change       -0.3099224E-04 Eh
 * total energy  :   -31.5191222 Eh     change       -0.3065593E-04 Eh
 * total energy  :   -31.5191387 Eh     change       -0.1652322E-04 Eh
 * total energy  :   -31.5191499 Eh     change       -0.1112854E-04 Eh
 * total energy  :   -31.5191588 Eh     change       -0.8906082E-05 Eh
 * total energy  :   -31.5191646 Eh     change       -0.5852590E-05 Eh
 * total energy  :   -31.5191696 Eh     change       -0.5012329E-05 Eh
 * total energy  :   -31.5191719 Eh     change       -0.2270680E-05 Eh
   *** GEOMETRY OPTIMIZATION CONVERGED AFTER 20 ITERATIONS ***

 final structure:
================
21
 xtb: 6.7.1 (edcfbbe)
C            0.74436851110385       -0.13817845113319       -0.84302627983452
O            0.17010190668598       -1.38206897320677       -0.41240250754305
C            1.00158972451993       -2.30859305580923        0.04956254918962
O            2.18309548472999       -2.21607763487346        0.16236926495647
C            0.22801789288611       -3.59273923977350        0.43922680782205
C            0.72328825001827       -4.10341940537679        1.81464141710114
O           -0.00780619901308       -3.32707921426932        2.75298495175322
C            0.47742394414991       -5.59700941948102        1.99836831418902
N           -1.22312677054294       -3.30156841519016        0.56360612731372
H           -0.02645339749612        0.61746354589626       -0.71720159601471
H            1.03207039542321       -0.21696628492340       -1.89108697611700
H            1.62200889804682        0.09622191065254       -0.24134427091167
H            0.42395015118476       -4.33685215558573       -0.33633702623227
H            1.79668963946578       -3.88807425084022        1.88477216215324
H            0.30075737075086       -3.51343107003664        3.64607704201810
H            1.00488826150253       -6.16270044844548        1.23670643716694
H            0.85167346817580       -5.91706028943060        2.96732818665095
H           -0.58353803251333       -5.83336413263895        1.95325647765875
H           -1.44641249247133       -2.45546278334521        0.01946401050760
H           -1.82227040649806       -4.08318253268977        0.28710137954341
H           -1.32620660010949       -3.10517769949973        1.58953352862820

          :  Hamiltonian                  GFN2-xTB          :
         :: total energy             -31.519171894280 Eh    ::
         :: gradient norm              0.000966768538 Eh/a0 ::
         :: HOMO-LUMO gap              5.175867945187 eV    ::
         :: SCC energy               -31.832984665768 Eh    ::
         :: -> dispersion             -0.012619958349 Eh    ::
         :: repulsion energy           0.313812771488 Eh    ::

    * Orbital Energies and Occupations

         #    Occupation            Energy/Eh            Energy/eV
      -------------------------------------------------------------
         1        2.0000           -0.9143657             -24.8812
       ...           ...                  ...                  ...
        15        2.0000           -0.7164385             -19.4953
        16        2.0000           -0.6994906             -19.0341
        17        2.0000           -0.6852108             -18.6455
        18        2.0000           -0.6739004             -18.3378
        19        2.0000           -0.6639694             -18.0675
        20        2.0000           -0.6521920             -17.7470
        21        2.0000           -0.6501688             -17.6920
        22        2.0000           -0.6155539             -16.7501
        23        2.0000           -0.6145340             -16.7223
        24        2.0000           -0.6103060             -16.6073
        25        2.0000           -0.5945519             -16.1786
        26        2.0000           -0.5836520             -15.8820
        27        2.0000           -0.5814870             -15.8231 (HOMO)
        28                         -0.3912774             -10.6472 (LUMO)
        29                         -0.2521222              -6.8606
        30                         -0.1816014              -4.9416
        31                         -0.1506846              -4.1003
        32                         -0.1339259              -3.6443
        33                         -0.1150127              -3.1297
        34                         -0.0804467              -2.1891
        35                         -0.0574057              -1.5621
        36                         -0.0432863              -1.1779
        37                         -0.0122264              -0.3327
        38                          0.0109287               0.2974
       ...                                ...                  ...
        48                          0.5291499              14.3989
      -------------------------------------------------------------
                  HL-Gap            0.1902096 Eh            5.1759 eV

     #   Z          covCN         q      C6AA      α(0)
     1   6 C        3.648     0.011    20.724     6.540
     2   8 O        1.703    -0.257    18.261     5.770
     3   6 C        2.713     0.352    21.017     7.504
     4   8 O        0.856    -0.339    20.491     6.069
     5   6 C        3.779    -0.015    20.872     6.509
     6   6 C        3.726     0.099    19.038     6.230
     7   8 O        1.656    -0.449    21.824     6.306
     8   6 C        3.752    -0.145    23.370     6.894
     9   7 N        3.485    -0.158    24.397     7.336
    10   1 H        0.925     0.094     1.837     2.120
    11   1 H        0.925     0.090     1.877     2.143
    12   1 H        0.925     0.097     1.817     2.108
    13   1 H        0.924     0.119     1.622     1.992
    14   1 H        0.924     0.086     1.914     2.163
    15   1 H        0.805     0.330     0.638     1.254
    16   1 H        0.925     0.073     2.048     2.238
    17   1 H        0.925     0.081     1.967     2.193
    18   1 H        0.925     0.061     2.191     2.315
    19   1 H        0.859     0.285     0.759     1.365
    20   1 H        0.859     0.268     0.816     1.415
    21   1 H        0.857     0.316     0.668     1.281

Wiberg/Mayer (AO) data.
largest (>0.10) Wiberg bond orders for each atom

     #   Z sym  total        # sym  WBO       # sym  WBO       # sym  WBO
 ---------------------------------------------------------------------------
     1   6 C    3.884 --    10 H    0.976    12 H    0.974    11 H    0.972
                             2 O    0.921
     2   8 O    2.332 --     3 C    1.155     1 C    0.921     4 O    0.190
     3   6 C    3.941 --     4 O    1.803     2 O    1.155     5 C    0.921
     4   8 O    2.115 --     3 C    1.803     2 O    0.190
     5   6 C    3.921 --     6 C    0.964     9 N    0.952    13 H    0.945
                             3 C    0.921
     6   6 C    3.940 --     8 C    1.003     7 O    0.985     5 C    0.964
                            14 H    0.952
     7   8 O    1.991 --     6 C    0.985    15 H    0.870
     8   6 C    3.984 --     6 C    1.003    18 H    0.983    16 H    0.979
                            17 H    0.978
     9   7 N    3.653 --     5 C    0.952    20 H    0.915    19 H    0.885
                            21 H    0.836
    10   1 H    0.991 --     1 C    0.976
    11   1 H    0.992 --     1 C    0.972
    12   1 H    0.991 --     1 C    0.974
    13   1 H    0.986 --     5 C    0.945
    14   1 H    0.993 --     6 C    0.952
    15   1 H    0.891 --     7 O    0.870
    16   1 H    0.995 --     8 C    0.979
    17   1 H    0.993 --     8 C    0.978
    18   1 H    0.996 --     8 C    0.983
    19   1 H    0.919 --     9 N    0.885
    20   1 H    0.928 --     9 N    0.915
    21   1 H    0.900 --     9 N    0.836
 ---------------------------------------------------------------------------

molecular dipole:
                 x           y           z       tot (Debye)
 q only:       -1.676      -6.159       1.354
   full:       -1.814      -6.265       1.404      16.957

           -------------------------------------------------
          | TOTAL ENERGY              -31.519171894280 Eh   |
          | GRADIENT NORM               0.000966768538 Eh/α |
          | HOMO-LUMO GAP               5.175867945187 eV   |
           -------------------------------------------------

 * finished run on 2024/12/20 at 07:18:30.724
