   * xtb version 6.7.1 (edcfbbe) compiled by 'conda@3ef47c1a292c' on 2024-11-25

   ID    Z sym.   atoms
    1    6 C      1-7, 9-17, 19-26
    2    7 N      8, 18
    3    1 H      27-51

          program call               : xtb C1288.xyz --opt --namespace C1288 --charge +1
          :  Hamiltonian                  GFN2-xTB          :
 * total energy  :   -69.6339149 Eh     change       -0.1641553E-08 Eh
 * total energy  :   -69.6406045 Eh     change       -0.6689649E-02 Eh
 * total energy  :   -69.6418039 Eh     change       -0.1199389E-02 Eh
 * total energy  :   -69.6420633 Eh     change       -0.2594447E-03 Eh
 * total energy  :   -69.6422973 Eh     change       -0.2339213E-03 Eh
 * total energy  :   -69.6424703 Eh     change       -0.1730552E-03 Eh
 * total energy  :   -69.6426981 Eh     change       -0.2277579E-03 Eh
 * total energy  :   -69.6430430 Eh     change       -0.3449605E-03 Eh
 * total energy  :   -69.6434741 Eh     change       -0.4310187E-03 Eh
 * total energy  :   -69.6439148 Eh     change       -0.4407853E-03 Eh
 * total energy  :   -69.6476050 Eh     change       -0.2138071E-04 Eh
 * total energy  :   -69.6476185 Eh     change       -0.1349077E-04 Eh
 * total energy  :   -69.6476276 Eh     change       -0.9038499E-05 Eh
 * total energy  :   -69.6476359 Eh     change       -0.8361654E-05 Eh
 * total energy  :   -69.6476460 Eh     change       -0.1012184E-04 Eh
 * total energy  :   -69.6476601 Eh     change       -0.1402625E-04 Eh
 * total energy  :   -69.6476767 Eh     change       -0.1668329E-04 Eh
 * total energy  :   -69.6476910 Eh     change       -0.1429194E-04 Eh
 * total energy  :   -69.6476943 Eh     change       -0.3261911E-05 Eh
   *** GEOMETRY OPTIMIZATION CONVERGED AFTER 68 ITERATIONS ***

 final structure:
================
51
 xtb: 6.7.1 (edcfbbe)
C            0.75057768755625       -0.51612524966844        0.60917847278103
C            0.42142248401169        0.56365610842864        1.58499496898263
C            0.26551164250312        0.23554856101234        2.94415739220919
C           -0.04316860286390        1.17154183785175        3.90394959752896
C           -0.18713704940718        2.48860042915161        3.48012003884703
C           -0.01636070614279        2.83396398640093        2.12612077602503
C            0.27158851373386        1.87278663172974        1.16560880937136
N           -0.20661231559328        4.19806305611693        2.04231982749913
C           -0.03476094857538        5.02189930722580        0.87005781183616
C            1.44107808497065        5.42048414616207        0.68667427169460
C            2.28956802713354        4.21697712553564        0.37787954540382
C            2.36333602003579        3.72866998340786       -0.92139898345025
C            3.08714976460774        2.58287880902508       -1.20053814955487
C            3.74215063711956        1.90980514860500       -0.18242011067397
C            3.68304249024821        2.39539427463989        1.11221467594134
C            2.96057593424588        3.54273836993125        1.38902234652824
C           -0.47545008294452        4.64470770750737        3.26569276669403
N           -0.49140552267021        3.65367395306931        4.15126806429753
C           -0.68089781441659        3.81125123956728        5.57301610198213
C            0.64465180707776        4.19832720465005        6.25243545370800
C            1.20237709376256        5.44965930309251        5.63143128344396
C            0.59438527035599        6.67991450146263        5.85876062881945
C            1.06624505485086        7.82155836374585        5.23593016253410
C            2.15166399210295        7.74730005971900        4.37730884060697
C            2.77190005117359        6.52948247685715        4.15573172667600
C            2.29588570595792        5.38711653005358        4.77805886544878
H            0.88041009552599       -0.11537713875696       -0.39151063761452
H           -0.04300080530482       -1.26146551689417        0.58937095829287
H            1.66742290258784       -1.02253056484322        0.90490079033368
H            0.39101915973980       -0.79514854758985        3.23772497071793
H           -0.16346069610371        0.89131510219765        4.93759131940787
H            0.39214943657723        2.13453468659888        0.12768042987898
H           -0.38010659996986        4.46013185442729        0.00000742899011
H           -0.65103828734417        5.91590637256694        0.98539455557156
H            1.49201195125439        6.13464704202039       -0.13566694463487
H            1.79173505618848        5.91379075280533        1.59573104397818
H            1.85697213110670        4.25329944438013       -1.71913950531963
H            3.14256597457592        2.21664049901007       -2.21428638643877
H            4.30618336906279        1.01633272292679       -0.40040329975170
H            4.20293243542659        1.88261540058573        1.90721153794451
H            2.92448475276467        3.92581978407525        2.39830662381846
H           -0.67060004489017        5.67290557645743        3.50548141259113
H           -1.42291242445044        4.59566379861230        5.73611575674454
H           -1.06176111077055        2.87339934243174        5.97918160158941
H            0.44722415755945        4.35390651663218        7.31338415560432
H            1.35834062344521        3.37921791595940        6.15185791430272
H           -0.24312341308590        6.74562361288330        6.53852739448015
H            0.59188375078909        8.77206645639911        5.42619174794376
H            2.52119121590874        8.63866734309042        3.89474912487775
H            3.63318345349333        6.47026898656540        3.50678324038669
H            2.79285569707979        4.43929469221988        4.62220958107296

          :  Hamiltonian                  GFN2-xTB          :
         :: total energy             -69.647694298045 Eh    ::
         :: gradient norm              0.000215021909 Eh/a0 ::
         :: HOMO-LUMO gap              2.651591559047 eV    ::
         :: SCC energy               -70.892722730840 Eh    ::
         :: -> dispersion             -0.063279288204 Eh    ::
         :: repulsion energy           1.245028432795 Eh    ::

    * Orbital Energies and Occupations

         #    Occupation            Energy/Eh            Energy/eV
      -------------------------------------------------------------
         1        2.0000           -0.8678393             -23.6151
       ...           ...                  ...                  ...
        53        2.0000           -0.5695238             -15.4975
        54        2.0000           -0.5680343             -15.4570
        55        2.0000           -0.5570769             -15.1588
        56        2.0000           -0.5371441             -14.6164
        57        2.0000           -0.5310420             -14.4504
        58        2.0000           -0.5274279             -14.3520
        59        2.0000           -0.5248054             -14.2807
        60        2.0000           -0.5237457             -14.2518
        61        2.0000           -0.5204039             -14.1609
        62        2.0000           -0.5115349             -13.9196
        63        2.0000           -0.5076532             -13.8139
        64        2.0000           -0.5036931             -13.7062
        65        2.0000           -0.4996070             -13.5950 (HOMO)
        66                         -0.4021628             -10.9434 (LUMO)
        67                         -0.3517864              -9.5726
        68                         -0.3441438              -9.3646
        69                         -0.3313387              -9.0162
        70                         -0.3304379              -8.9917
        71                         -0.3240545              -8.8180
        72                         -0.3222273              -8.7683
        73                         -0.2275430              -6.1918
        74                         -0.2031312              -5.5275
        75                         -0.1951946              -5.3115
        76                         -0.1649215              -4.4877
       ...                                ...                  ...
       129                          0.5661377              15.4054
      -------------------------------------------------------------
                  HL-Gap            0.0974442 Eh            2.6516 eV

     #   Z          covCN         q      C6AA      α(0)
     1   6 C        3.760    -0.124    22.928     6.826
     2   6 C        2.970     0.036    27.182     8.552
     3   6 C        2.931    -0.031    28.775     8.797
     4   6 C        2.907    -0.036    28.902     8.815
     5   6 C        3.123     0.034    27.052     8.518
     6   6 C        3.115     0.041    26.932     8.501
     7   6 C        2.914    -0.045    29.116     8.848
     8   7 N        2.828     0.031    20.697     6.757
     9   6 C        3.743    -0.016    20.928     6.526
    10   6 C        3.808    -0.073    21.880     6.659
    11   6 C        2.971     0.005    27.905     8.665
    12   6 C        2.924    -0.039    28.970     8.827
    13   6 C        2.919    -0.027    28.669     8.780
    14   6 C        2.920    -0.027    28.684     8.783
    15   6 C        2.919    -0.029    28.722     8.789
    16   6 C        2.925    -0.041    29.023     8.835
    17   6 C        3.075     0.064    26.483     8.437
    18   7 N        2.827     0.032    20.678     6.754
    19   6 C        3.744    -0.016    20.934     6.527
    20   6 C        3.808    -0.073    21.889     6.660
    21   6 C        2.971     0.002    27.984     8.677
    22   6 C        2.924    -0.042    29.046     8.838
    23   6 C        2.919    -0.028    28.702     8.785
    24   6 C        2.920    -0.029    28.729     8.790
    25   6 C        2.918    -0.030    28.758     8.794
    26   6 C        2.924    -0.041    29.030     8.836
    27   1 H        0.925     0.062     2.176     2.307
    28   1 H        0.925     0.077     2.011     2.217
    29   1 H        0.925     0.075     2.036     2.231
    30   1 H        0.926     0.076     2.023     2.224
    31   1 H        0.926     0.067     2.122     2.278
    32   1 H        0.926     0.066     2.128     2.281
    33   1 H        0.924     0.085     1.925     2.170
    34   1 H        0.924     0.074     2.047     2.237
    35   1 H        0.924     0.072     2.061     2.245
    36   1 H        0.924     0.053     2.281     2.362
    37   1 H        0.926     0.038     2.474     2.460
    38   1 H        0.926     0.047     2.356     2.400
    39   1 H        0.926     0.047     2.360     2.402
    40   1 H        0.926     0.039     2.465     2.455
    41   1 H        0.926     0.024     2.680     2.560
    42   1 H        0.926     0.099     1.791     2.093
    43   1 H        0.924     0.078     2.002     2.213
    44   1 H        0.924     0.084     1.941     2.179
    45   1 H        0.924     0.075     2.031     2.228
    46   1 H        0.924     0.058     2.222     2.331
    47   1 H        0.926     0.038     2.470     2.458
    48   1 H        0.926     0.048     2.341     2.393
    49   1 H        0.926     0.048     2.342     2.393
    50   1 H        0.926     0.043     2.410     2.427
    51   1 H        0.925     0.029     2.604     2.523

Wiberg/Mayer (AO) data.
largest (>0.10) Wiberg bond orders for each atom

     #   Z sym  total        # sym  WBO       # sym  WBO       # sym  WBO
 ---------------------------------------------------------------------------
     1   6 C    3.989 --     2 C    1.038    27 H    0.983    29 H    0.963
                            28 H    0.961
     2   6 C    3.985 --     7 C    1.463     3 C    1.332     1 C    1.038
     3   6 C    3.986 --     4 C    1.516     2 C    1.332    30 H    0.966
     4   6 C    3.986 --     3 C    1.516     5 C    1.326    31 H    0.963
                             7 C    0.111
     5   6 C    3.950 --     4 C    1.326     6 C    1.273    18 N    1.128
     6   6 C    3.953 --     7 C    1.338     5 C    1.273     8 N    1.127
     7   6 C    3.984 --     2 C    1.463     6 C    1.338    32 H    0.959
                             4 C    0.111
     8   7 N    3.678 --    17 C    1.361     6 C    1.127     9 C    0.974
                            18 N    0.101
     9   6 C    3.944 --     8 N    0.974    10 C    0.970    34 H    0.967
                            33 H    0.964
    10   6 C    3.984 --    11 C    1.009    36 H    0.970     9 C    0.970
                            35 H    0.964
    11   6 C    3.988 --    16 C    1.415    12 C    1.410    10 C    1.009
                            14 C    0.110
    12   6 C    3.991 --    13 C    1.447    11 C    1.410    37 H    0.969
                            15 C    0.112
    13   6 C    3.991 --    12 C    1.447    14 C    1.436    38 H    0.970
                            16 C    0.110
    14   6 C    3.990 --    15 C    1.441    13 C    1.436    39 H    0.970
                            11 C    0.110
    15   6 C    3.992 --    14 C    1.441    16 C    1.441    40 H    0.971
                            12 C    0.112
    16   6 C    3.992 --    15 C    1.441    11 C    1.415    41 H    0.965
                            13 C    0.110
    17   6 C    3.951 --    18 N    1.364     8 N    1.361    42 H    0.953
    18   7 N    3.680 --    17 C    1.364     5 C    1.128    19 C    0.974
                             8 N    0.101
    19   6 C    3.944 --    18 N    0.974    20 C    0.970    43 H    0.965
                            44 H    0.965
    20   6 C    3.985 --    21 C    1.011    46 H    0.974    19 C    0.970
                            45 H    0.961
    21   6 C    3.988 --    26 C    1.415    22 C    1.406    20 C    1.011
                            24 C    0.109
    22   6 C    3.991 --    23 C    1.451    21 C    1.406    47 H    0.969
                            25 C    0.112
    23   6 C    3.991 --    22 C    1.451    24 C    1.433    48 H    0.970
                            26 C    0.109
    24   6 C    3.991 --    25 C    1.443    23 C    1.433    49 H    0.970
                            21 C    0.109
    25   6 C    3.992 --    24 C    1.443    26 C    1.438    50 H    0.969
                            22 C    0.112
    26   6 C    3.991 --    25 C    1.438    21 C    1.415    51 H    0.965
                            23 C    0.109
    27   1 H    0.996 --     1 C    0.983
    28   1 H    0.992 --     1 C    0.961
    29   1 H    0.992 --     1 C    0.963
    30   1 H    0.994 --     3 C    0.966
    31   1 H    0.995 --     4 C    0.963
    32   1 H    0.995 --     7 C    0.959
    33   1 H    0.992 --     9 C    0.964
    34   1 H    0.993 --     9 C    0.967
    35   1 H    0.993 --    10 C    0.964
    36   1 H    0.997 --    10 C    0.970
    37   1 H    0.999 --    12 C    0.969
    38   1 H    0.997 --    13 C    0.970
    39   1 H    0.997 --    14 C    0.970
    40   1 H    0.998 --    15 C    0.971
    41   1 H    0.999 --    16 C    0.965
    42   1 H    0.989 --    17 C    0.953
    43   1 H    0.993 --    19 C    0.965
    44   1 H    0.992 --    19 C    0.965
    45   1 H    0.993 --    20 C    0.961
    46   1 H    0.996 --    20 C    0.974
    47   1 H    0.999 --    22 C    0.969
    48   1 H    0.997 --    23 C    0.970
    49   1 H    0.997 --    24 C    0.970
    50   1 H    0.998 --    25 C    0.969
    51   1 H    0.999 --    26 C    0.965
 ---------------------------------------------------------------------------

molecular dipole:
                 x           y           z       tot (Debye)
 q only:        0.253       6.546       5.288
   full:        0.169       6.795       5.428      22.111

           -------------------------------------------------
          | TOTAL ENERGY              -69.647694298045 Eh   |
          | GRADIENT NORM               0.000215021909 Eh/α |
          | HOMO-LUMO GAP               2.651591559047 eV   |
           -------------------------------------------------

 * finished run on 2024/12/20 at 07:18:30.303
