   * xtb version 6.7.1 (edcfbbe) compiled by 'conda@3ef47c1a292c' on 2024-11-25

   ID    Z sym.   atoms
    1    6 C      1, 3-7
    2    7 N      2
    3    1 H      8-21

          program call               : xtb C1284.xyz --opt --namespace C1284 --charge +1
          :  Hamiltonian                  GFN2-xTB          :
 * total energy  :   -22.5126105 Eh     change       -0.1426770E-10 Eh
 * total energy  :   -22.5165561 Eh     change       -0.3945659E-02 Eh
 * total energy  :   -22.5173930 Eh     change       -0.8368483E-03 Eh
 * total energy  :   -22.5174184 Eh     change       -0.2542970E-04 Eh
 * total energy  :   -22.5174275 Eh     change       -0.9115551E-05 Eh
 * total energy  :   -22.5174314 Eh     change       -0.3917581E-05 Eh
   *** GEOMETRY OPTIMIZATION CONVERGED AFTER 6 ITERATIONS ***

 final structure:
================
21
 xtb: 6.7.1 (edcfbbe)
C            1.20744193520883       -0.08498321814666        0.01388791082921
N            0.65521354570924       -1.26676066955885       -0.67156497016566
C           -0.04638359688475       -0.82873778050654       -1.89005670235348
C           -0.28458815212617       -2.00316118941010        0.23875868104274
C            0.50590236433659       -3.18945771768616        0.77236250218577
C            1.31910297010712       -3.58976968177117       -0.45355337042842
C            1.75689001013207       -2.23676043440746       -1.00538522049603
H            1.66786121411544       -0.37994470724530        0.95528735804535
H            0.41565115706951        0.63423813043243        0.21897012167862
H            1.95767096727984        0.39531517614027       -0.61279201241836
H           -0.89614830998320       -0.20034744547875       -1.62635910220814
H            0.62677824604550       -0.25463891399977       -2.52524680268735
H           -0.40609407593188       -1.69252201103496       -2.44679255488259
H           -1.13100098945984       -2.36137682125890       -0.34846486637804
H           -0.65571605256869       -1.33953571218682        1.01765867649055
H            1.16079160329376       -2.89514986846045        1.59245287711455
H           -0.14711732678166       -3.98315955008305        1.12472448951121
H            2.17119076771772       -4.21864356118119       -0.21043510035930
H            0.69291070150794       -4.12367618411353       -1.16819892691447
H            2.67236261230666       -1.91139978183508       -0.51125495525382
H            1.93174040890597       -2.25279805820797       -2.07966803235235

          :  Hamiltonian                  GFN2-xTB          :
         :: total energy             -22.517431440061 Eh    ::
         :: gradient norm              0.000557663405 Eh/a0 ::
         :: HOMO-LUMO gap              9.707367425924 eV    ::
         :: SCC energy               -22.831765681140 Eh    ::
         :: -> dispersion             -0.012918332639 Eh    ::
         :: repulsion energy           0.314334241079 Eh    ::

    * Orbital Energies and Occupations

         #    Occupation            Energy/Eh            Energy/eV
      -------------------------------------------------------------
         1        2.0000           -0.8719816             -23.7278
       ...           ...                  ...                  ...
         9        2.0000           -0.7310830             -19.8938
        10        2.0000           -0.7023664             -19.1124
        11        2.0000           -0.6862468             -18.6737
        12        2.0000           -0.6814635             -18.5436
        13        2.0000           -0.6746345             -18.3577
        14        2.0000           -0.6526297             -17.7590
        15        2.0000           -0.6519766             -17.7412
        16        2.0000           -0.6494868             -17.6734
        17        2.0000           -0.6465705             -17.5941
        18        2.0000           -0.6274546             -17.0739
        19        2.0000           -0.6203142             -16.8796
        20        2.0000           -0.6152236             -16.7411
        21        2.0000           -0.5945649             -16.1789 (HOMO)
        22                         -0.2378257              -6.4716 (LUMO)
        23                         -0.1928005              -5.2464
        24                         -0.1612998              -4.3892
        25                         -0.1558337              -4.2405
        26                         -0.0838615              -2.2820
        27                         -0.0510518              -1.3892
        28                         -0.0485182              -1.3202
        29                         -0.0361868              -0.9847
        30                         -0.0277403              -0.7549
        31                         -0.0025976              -0.0707
        32                          0.0103556               0.2818
       ...                                ...                  ...
        42                          0.1545570               4.2057
      -------------------------------------------------------------
                  HL-Gap            0.3567392 Eh            9.7074 eV

     #   Z          covCN         q      C6AA      α(0)
     1   6 C        3.716    -0.093    22.411     6.763
     2   7 N        3.628     0.127    19.067     6.485
     3   6 C        3.714    -0.093    22.417     6.765
     4   6 C        3.791    -0.039    21.282     6.570
     5   6 C        3.829    -0.073    21.870     6.654
     6   6 C        3.831    -0.073    21.880     6.655
     7   6 C        3.784    -0.040    21.313     6.576
     8   1 H        0.925     0.102     1.771     2.081
     9   1 H        0.925     0.098     1.799     2.098
    10   1 H        0.925     0.098     1.803     2.100
    11   1 H        0.925     0.099     1.798     2.097
    12   1 H        0.925     0.099     1.794     2.094
    13   1 H        0.925     0.100     1.781     2.087
    14   1 H        0.924     0.094     1.843     2.123
    15   1 H        0.925     0.092     1.859     2.132
    16   1 H        0.925     0.070     2.086     2.259
    17   1 H        0.925     0.088     1.897     2.154
    18   1 H        0.925     0.087     1.905     2.159
    19   1 H        0.925     0.071     2.070     2.250
    20   1 H        0.925     0.094     1.842     2.122
    21   1 H        0.925     0.093     1.853     2.129

Wiberg/Mayer (AO) data.
largest (>0.10) Wiberg bond orders for each atom

     #   Z sym  total        # sym  WBO       # sym  WBO       # sym  WBO
 ---------------------------------------------------------------------------
     1   6 C    3.929 --    10 H    0.975     8 H    0.975     9 H    0.974
                             2 N    0.964
     2   7 N    3.808 --     3 C    0.964     1 C    0.964     4 C    0.923
                             7 C    0.921
     3   6 C    3.929 --    11 H    0.975    13 H    0.975    12 H    0.975
                             2 N    0.964
     4   6 C    3.930 --     5 C    1.010    15 H    0.969    14 H    0.968
                             2 N    0.923
     5   6 C    3.985 --     4 C    1.010     6 C    1.004    16 H    0.974
                            17 H    0.968
     6   6 C    3.985 --     7 C    1.009     5 C    1.004    19 H    0.975
                            18 H    0.969
     7   6 C    3.929 --     6 C    1.009    21 H    0.970    20 H    0.969
                             2 N    0.921
     8   1 H    0.990 --     1 C    0.975
     9   1 H    0.990 --     1 C    0.974
    10   1 H    0.990 --     1 C    0.975
    11   1 H    0.990 --     3 C    0.975
    12   1 H    0.990 --     3 C    0.975
    13   1 H    0.990 --     3 C    0.975
    14   1 H    0.991 --     4 C    0.968
    15   1 H    0.992 --     4 C    0.969
    16   1 H    0.995 --     5 C    0.974
    17   1 H    0.992 --     5 C    0.968
    18   1 H    0.992 --     6 C    0.969
    19   1 H    0.995 --     6 C    0.975
    20   1 H    0.991 --     7 C    0.969
    21   1 H    0.991 --     7 C    0.970
 ---------------------------------------------------------------------------

molecular dipole:
                 x           y           z       tot (Debye)
 q only:        1.299      -2.859      -1.078
   full:        1.281      -2.725      -1.133       8.178

           -------------------------------------------------
          | TOTAL ENERGY              -22.517431440061 Eh   |
          | GRADIENT NORM               0.000557663405 Eh/α |
          | HOMO-LUMO GAP               9.707367425924 eV   |
           -------------------------------------------------

 * finished run on 2024/12/20 at 07:18:20.885
