   * xtb version 6.7.1 (edcfbbe) compiled by 'conda@3ef47c1a292c' on 2024-11-25

   ID    Z sym.   atoms
    1    6 C      1, 2, 4, 6-9
    2    7 N      3, 5
    3    1 H      10-22

          program call               : xtb C1283.xyz --opt --namespace C1283 --charge +1
          :  Hamiltonian                  GFN2-xTB          :
 * total energy  :   -27.1023509 Eh     change       -0.4596856E-10 Eh
 * total energy  :   -27.1052261 Eh     change       -0.2875174E-02 Eh
 * total energy  :   -27.1057430 Eh     change       -0.5169562E-03 Eh
 * total energy  :   -27.1058114 Eh     change       -0.6833901E-04 Eh
 * total energy  :   -27.1058461 Eh     change       -0.3468686E-04 Eh
 * total energy  :   -27.1058518 Eh     change       -0.5751986E-05 Eh
 * total energy  :   -27.1058560 Eh     change       -0.4170167E-05 Eh
   *** GEOMETRY OPTIMIZATION CONVERGED AFTER 7 ITERATIONS ***

 final structure:
================
22
 xtb: 6.7.1 (edcfbbe)
C            1.01182793791287        0.03458956779647       -0.07882108311872
C            0.47836283677447       -0.38591072766279       -1.44465106585064
N            0.92292262393178       -1.72100853835110       -1.78759557220243
C            0.30765161764500       -2.84837672920482       -1.43101300370768
N            1.00809087455076       -3.89106879366025       -1.86305823555127
C            2.10652337787869       -3.41581808235413       -2.51194810812112
C            2.06624260226088       -2.04881814401369       -2.46904962706848
C            3.00738717417543       -1.05548552382587       -3.03004987920028
C            0.66491337655451       -5.27706078448872       -1.68044093197434
H            0.65393218616073       -0.63464085213551        0.69949773333253
H            0.66666569763240        1.03853238076461        0.14791968782614
H            2.09846421176384        0.03538886843528       -0.06445553876557
H           -0.61340773230575       -0.37979799247200       -1.43840533880228
H            0.82795934075453        0.30165796015497       -2.21589677294091
H           -0.61433924681434       -2.90273666961276       -0.88584483825672
H            2.83663255881275       -4.05987863656035       -2.95688683897928
H            2.51161766563924       -0.42352621062972       -3.76614711431749
H            3.41206240636996       -0.41254027461256       -2.25037633250045
H            3.83089584452317       -1.56789411928175       -3.51778162604710
H            0.62638699689968       -5.52244795645820       -0.61870519962005
H           -0.30872775654358       -5.48854177826225       -2.12301082942242
H            1.41484540542303       -5.90109696356485       -2.16042948471144

          :  Hamiltonian                  GFN2-xTB          :
         :: total energy             -27.105855978634 Eh    ::
         :: gradient norm              0.000650186821 Eh/a0 ::
         :: HOMO-LUMO gap              4.458542097260 eV    ::
         :: SCC energy               -27.524671636540 Eh    ::
         :: -> dispersion             -0.014769671272 Eh    ::
         :: repulsion energy           0.418815657906 Eh    ::

    * Orbital Energies and Occupations

         #    Occupation            Energy/Eh            Energy/eV
      -------------------------------------------------------------
         1        2.0000           -0.8918507             -24.2685
       ...           ...                  ...                  ...
        13        2.0000           -0.6902153             -18.7817
        14        2.0000           -0.6792211             -18.4825
        15        2.0000           -0.6688945             -18.2015
        16        2.0000           -0.6504473             -17.6996
        17        2.0000           -0.6467615             -17.5993
        18        2.0000           -0.6417794             -17.4637
        19        2.0000           -0.6345174             -17.2661
        20        2.0000           -0.6298551             -17.1392
        21        2.0000           -0.6157397             -16.7551
        22        2.0000           -0.6012382             -16.3605
        23        2.0000           -0.5963742             -16.2282
        24        2.0000           -0.5913333             -16.0910
        25        2.0000           -0.5676418             -15.4463 (HOMO)
        26                         -0.4037934             -10.9878 (LUMO)
        27                         -0.3613203              -9.8320
        28                         -0.1836034              -4.9961
        29                         -0.1366118              -3.7174
        30                         -0.0580744              -1.5803
        31                         -0.0498244              -1.3558
        32                         -0.0333656              -0.9079
        33                         -0.0301935              -0.8216
        34                         -0.0111401              -0.3031
        35                         -0.0003225              -0.0088
        36                          0.0119405               0.3249
       ...                                ...                  ...
        49                          0.4484258              12.2023
      -------------------------------------------------------------
                  HL-Gap            0.1638484 Eh            4.4585 eV

     #   Z          covCN         q      C6AA      α(0)
     1   6 C        3.753    -0.123    22.921     6.827
     2   6 C        3.741    -0.021    21.020     6.541
     3   7 N        2.872     0.045    20.456     6.717
     4   6 C        3.084     0.042    26.972     8.514
     5   7 N        2.855     0.071    20.012     6.644
     6   6 C        3.080    -0.027    28.575     8.764
     7   6 C        3.091     0.055    26.669     8.465
     8   6 C        3.754    -0.130    23.047     6.845
     9   6 C        3.692    -0.085    22.307     6.758
    10   1 H        0.925     0.062     2.178     2.308
    11   1 H        0.925     0.083     1.946     2.181
    12   1 H        0.925     0.064     2.152     2.294
    13   1 H        0.924     0.083     1.951     2.184
    14   1 H        0.924     0.092     1.859     2.132
    15   1 H        0.926     0.109     1.706     2.043
    16   1 H        0.926     0.102     1.771     2.081
    17   1 H        0.925     0.089     1.889     2.149
    18   1 H        0.925     0.091     1.873     2.140
    19   1 H        0.925     0.090     1.882     2.146
    20   1 H        0.924     0.102     1.768     2.080
    21   1 H        0.924     0.102     1.770     2.080
    22   1 H        0.925     0.106     1.733     2.059

Wiberg/Mayer (AO) data.
largest (>0.10) Wiberg bond orders for each atom

     #   Z sym  total        # sym  WBO       # sym  WBO       # sym  WBO
 ---------------------------------------------------------------------------
     1   6 C    3.982 --     2 C    1.002    10 H    0.985    12 H    0.984
                            11 H    0.977
     2   6 C    3.940 --     1 C    1.002     3 N    0.966    13 H    0.966
                            14 H    0.962
     3   7 N    3.700 --     4 C    1.349     7 C    1.200     2 C    0.966
     4   6 C    3.947 --     5 N    1.366     3 N    1.349    15 H    0.955
     5   7 N    3.718 --     4 C    1.366     6 C    1.219     9 C    0.989
     6   6 C    3.941 --     7 C    1.541     5 N    1.219    16 H    0.962
     7   6 C    3.954 --     6 C    1.541     3 N    1.200     8 C    1.045
     8   6 C    3.981 --     7 C    1.045    19 H    0.975    18 H    0.958
                            17 H    0.955
     9   6 C    3.934 --     5 N    0.989    22 H    0.975    21 H    0.964
                            20 H    0.964
    10   1 H    0.996 --     1 C    0.985
    11   1 H    0.992 --     1 C    0.977
    12   1 H    0.996 --     1 C    0.984
    13   1 H    0.993 --     2 C    0.966
    14   1 H    0.991 --     2 C    0.962
    15   1 H    0.988 --     4 C    0.955
    16   1 H    0.990 --     6 C    0.962
    17   1 H    0.992 --     8 C    0.955
    18   1 H    0.992 --     8 C    0.958
    19   1 H    0.992 --     8 C    0.975
    20   1 H    0.989 --     9 C    0.964
    21   1 H    0.989 --     9 C    0.964
    22   1 H    0.988 --     9 C    0.975
 ---------------------------------------------------------------------------

molecular dipole:
                 x           y           z       tot (Debye)
 q only:        2.148      -4.814      -3.392
   full:        2.019      -4.897      -3.373      15.962

           -------------------------------------------------
          | TOTAL ENERGY              -27.105855978634 Eh   |
          | GRADIENT NORM               0.000650186821 Eh/α |
          | HOMO-LUMO GAP               4.458542097260 eV   |
           -------------------------------------------------

 * finished run on 2024/12/20 at 07:18:20.477
