   * xtb version 6.7.1 (edcfbbe) compiled by 'conda@3ef47c1a292c' on 2024-11-25

   ID    Z sym.   atoms
    1    6 C      1-4, 6, 7, 9-11, 13
    2    7 N      5, 8
    3    8 O      12
    4    1 H      14-32

          program call               : xtb C1280.xyz --opt --namespace C1280 --charge +1
          :  Hamiltonian                  GFN2-xTB          :
 * total energy  :   -40.6535026 Eh     change       -0.2985203E-09 Eh
 * total energy  :   -40.6584975 Eh     change       -0.4994920E-02 Eh
 * total energy  :   -40.6597860 Eh     change       -0.1288456E-02 Eh
 * total energy  :   -40.6600010 Eh     change       -0.2150041E-03 Eh
 * total energy  :   -40.6601210 Eh     change       -0.1200190E-03 Eh
 * total energy  :   -40.6601833 Eh     change       -0.6222926E-04 Eh
 * total energy  :   -40.6602697 Eh     change       -0.8645583E-04 Eh
 * total energy  :   -40.6603572 Eh     change       -0.8751813E-04 Eh
 * total energy  :   -40.6604389 Eh     change       -0.8167598E-04 Eh
 * total energy  :   -40.6605008 Eh     change       -0.6192262E-04 Eh
 * total energy  :   -40.6605627 Eh     change       -0.2315493E-04 Eh
 * total energy  :   -40.6605806 Eh     change       -0.1788093E-04 Eh
 * total energy  :   -40.6605944 Eh     change       -0.1379942E-04 Eh
 * total energy  :   -40.6606126 Eh     change       -0.1818005E-04 Eh
 * total energy  :   -40.6606342 Eh     change       -0.2159667E-04 Eh
 * total energy  :   -40.6606425 Eh     change       -0.8323158E-05 Eh
 * total energy  :   -40.6606534 Eh     change       -0.1093201E-04 Eh
 * total energy  :   -40.6606590 Eh     change       -0.5554109E-05 Eh
 * total energy  :   -40.6606612 Eh     change       -0.2229881E-05 Eh
   *** GEOMETRY OPTIMIZATION CONVERGED AFTER 20 ITERATIONS ***

 final structure:
================
32
 xtb: 6.7.1 (edcfbbe)
C            1.07384592426464        0.43057453976708        0.07856603780195
C            0.61434957579675       -0.65372460215911        1.04637125116988
C            1.00011704758893       -0.37209786469184        2.49994813763564
C            0.42661034557561        0.93761948731569        3.05215203517390
N           -1.00267194359116        1.03034294888561        2.85085646660490
C           -1.65714793321945        2.05173506664738        2.23374450637987
C           -2.98050252828102        1.73072811302489        2.20595250652452
N           -3.11219784798400        0.52043695645639        2.81460021702678
C           -1.90354940441669        0.11490211024069        3.19259144816498
C           -4.30918749119098       -0.27540043650207        2.88914577114697
C           -4.33938170948522       -1.26837616898959        1.70634161725093
O           -3.09552268350087       -1.94053652558681        1.73415851777248
C           -5.52327708318607       -2.21658069748354        1.83998622033222
H            0.53439484562015        1.36296405422516        0.22869363212447
H            0.90062524304211        0.11049087836756       -0.94498296886847
H            2.13769016410014        0.62057263731509        0.19593862200945
H           -0.46695744756196       -0.79133323005379        0.96569986218548
H            1.07898096957843       -1.59808756474176        0.76101979257313
H            0.67683460501536       -1.20753882626465        3.12240638528445
H            2.08565278653707       -0.30597876831205        2.57818591434845
H            0.64206031258241        1.00818973429370        4.12235698747368
H            0.88689922484826        1.79077297541477        2.55283980392181
H           -1.15493373464109        2.92352950700049        1.86656534754963
H           -3.81369826878912        2.27276144893937        1.80780887558890
H           -1.69864469275709       -0.81866629803781        3.67760714071845
H           -4.30059724748971       -0.84171461368812        3.82248177470838
H           -5.18317979759906        0.37452972442435        2.86028679224700
H           -4.42171369656403       -0.69716743508242        0.76641071437840
H           -3.16018165919061       -2.74579310993292        1.20866584942375
H           -6.45302419545416       -1.65810877404259        1.89038797928689
H           -5.57180143932010       -2.88026797796176        0.97992135566296
H           -5.42452024032792       -2.81941728878761        2.73967140639810

          :  Hamiltonian                  GFN2-xTB          :
         :: total energy             -40.660661222260 Eh    ::
         :: gradient norm              0.000631600250 Eh/a0 ::
         :: HOMO-LUMO gap              4.023256475204 eV    ::
         :: SCC energy               -41.224245473010 Eh    ::
         :: -> dispersion             -0.024904365406 Eh    ::
         :: repulsion energy           0.563584250750 Eh    ::

    * Orbital Energies and Occupations

         #    Occupation            Energy/Eh            Energy/eV
      -------------------------------------------------------------
         1        2.0000           -0.8840701             -24.0568
       ...           ...                  ...                  ...
        25        2.0000           -0.6218049             -16.9202
        26        2.0000           -0.6179632             -16.8156
        27        2.0000           -0.6062155             -16.4960
        28        2.0000           -0.6024782             -16.3943
        29        2.0000           -0.5941990             -16.1690
        30        2.0000           -0.5876249             -15.9901
        31        2.0000           -0.5851631             -15.9231
        32        2.0000           -0.5776334             -15.7182
        33        2.0000           -0.5754829             -15.6597
        34        2.0000           -0.5569938             -15.1566
        35        2.0000           -0.5496264             -14.9561
        36        2.0000           -0.5471821             -14.8896
        37        2.0000           -0.5431751             -14.7805 (HOMO)
        38                         -0.3953231             -10.7573 (LUMO)
        39                         -0.3611372              -9.8270
        40                         -0.1753884              -4.7726
        41                         -0.1272413              -3.4624
        42                         -0.0912063              -2.4819
        43                         -0.0638903              -1.7385
        44                         -0.0570222              -1.5517
        45                         -0.0434517              -1.1824
        46                         -0.0387343              -1.0540
        47                         -0.0247121              -0.6724
        48                         -0.0173254              -0.4714
       ...                                ...                  ...
        71                          0.4730721              12.8729
      -------------------------------------------------------------
                  HL-Gap            0.1478520 Eh            4.0233 eV

     #   Z          covCN         q      C6AA      α(0)
     1   6 C        3.751    -0.113    22.718     6.797
     2   6 C        3.800    -0.062    21.700     6.633
     3   6 C        3.802    -0.073    21.894     6.662
     4   6 C        3.741    -0.028    21.157     6.562
     5   7 N        2.869     0.074    19.944     6.633
     6   6 C        3.077    -0.007    28.104     8.691
     7   6 C        3.070    -0.010    28.182     8.705
     8   7 N        2.874     0.076    19.925     6.630
     9   6 C        3.102     0.056    26.613     8.453
    10   6 C        3.745    -0.033    21.233     6.573
    11   6 C        3.724     0.118    18.754     6.184
    12   8 O        1.656    -0.457    21.978     6.329
    13   6 C        3.753    -0.136    23.179     6.865
    14   1 H        0.925     0.029     2.598     2.521
    15   1 H        0.925     0.052     2.291     2.367
    16   1 H        0.925     0.051     2.312     2.378
    17   1 H        0.924     0.033     2.543     2.494
    18   1 H        0.924     0.057     2.234     2.337
    19   1 H        0.924     0.052     2.294     2.369
    20   1 H        0.924     0.075     2.034     2.230
    21   1 H        0.924     0.084     1.940     2.178
    22   1 H        0.924     0.093     1.849     2.126
    23   1 H        0.926     0.104     1.753     2.070
    24   1 H        0.926     0.104     1.751     2.069
    25   1 H        0.926     0.125     1.570     1.960
    26   1 H        0.924     0.097     1.812     2.105
    27   1 H        0.925     0.090     1.880     2.144
    28   1 H        0.923     0.036     2.499     2.472
    29   1 H        0.805     0.314     0.681     1.296
    30   1 H        0.925     0.064     2.158     2.297
    31   1 H        0.925     0.068     2.109     2.271
    32   1 H        0.925     0.067     2.118     2.276

Wiberg/Mayer (AO) data.
largest (>0.10) Wiberg bond orders for each atom

     #   Z sym  total        # sym  WBO       # sym  WBO       # sym  WBO
 ---------------------------------------------------------------------------
     1   6 C    3.994 --     2 C    1.020    14 H    0.986    16 H    0.986
                            15 H    0.985
     2   6 C    3.994 --     1 C    1.020     3 C    1.007    17 H    0.977
                            18 H    0.974
     3   6 C    3.984 --     2 C    1.007     4 C    0.989    19 H    0.975
                            20 H    0.968
     4   6 C    3.936 --     3 C    0.989     5 N    0.966    22 H    0.965
                            21 H    0.956
     5   7 N    3.720 --     9 C    1.367     6 C    1.230     4 C    0.966
     6   6 C    3.950 --     7 C    1.589     5 N    1.230    23 H    0.961
     7   6 C    3.948 --     6 C    1.589     8 N    1.225    24 H    0.962
     8   7 N    3.719 --     9 C    1.359     7 C    1.225    10 C    0.980
     9   6 C    3.946 --     5 N    1.367     8 N    1.359    25 H    0.950
    10   6 C    3.945 --     8 N    0.980    27 H    0.967    11 C    0.963
                            26 H    0.961
    11   6 C    3.955 --    13 C    1.003    12 O    0.992    10 C    0.963
                            28 H    0.959
    12   8 O    1.951 --    11 C    0.992    29 H    0.883
    13   6 C    3.986 --    11 C    1.003    32 H    0.983    30 H    0.981
                            31 H    0.979
    14   1 H    0.999 --     1 C    0.986
    15   1 H    0.997 --     1 C    0.985
    16   1 H    0.997 --     1 C    0.986
    17   1 H    0.999 --     2 C    0.977
    18   1 H    0.997 --     2 C    0.974
    19   1 H    0.997 --     3 C    0.975
    20   1 H    0.994 --     3 C    0.968
    21   1 H    0.993 --     4 C    0.956
    22   1 H    0.991 --     4 C    0.965
    23   1 H    0.989 --     6 C    0.961
    24   1 H    0.989 --     7 C    0.962
    25   1 H    0.984 --     9 C    0.950
    26   1 H    0.990 --    10 C    0.961
    27   1 H    0.992 --    10 C    0.967
    28   1 H    0.999 --    11 C    0.959
    29   1 H    0.901 --    12 O    0.883
    30   1 H    0.996 --    13 C    0.981
    31   1 H    0.995 --    13 C    0.979
    32   1 H    0.995 --    13 C    0.983
 ---------------------------------------------------------------------------

molecular dipole:
                 x           y           z       tot (Debye)
 q only:       -4.152       0.507       4.757
   full:       -4.325       0.436       4.720      16.310

           -------------------------------------------------
          | TOTAL ENERGY              -40.660661222260 Eh   |
          | GRADIENT NORM               0.000631600250 Eh/α |
          | HOMO-LUMO GAP               4.023256475204 eV   |
           -------------------------------------------------

 * finished run on 2024/12/20 at 07:18:19.230
