   * xtb version 6.7.1 (edcfbbe) compiled by 'conda@3ef47c1a292c' on 2024-11-25

   ID    Z sym.   atoms
    1    6 C      1-4, 6, 8-11
    2    8 O      5
    3    7 N      7
    4    1 H      12-31

          program call               : xtb C1286.xyz --opt --namespace C1286 --charge +1
          :  Hamiltonian                  GFN2-xTB          :
 * total energy  :   -36.0327616 Eh     change       -0.5026379E-10 Eh
 * total energy  :   -36.0408219 Eh     change       -0.8060323E-02 Eh
 * total energy  :   -36.0428534 Eh     change       -0.2031497E-02 Eh
 * total energy  :   -36.0431766 Eh     change       -0.3231247E-03 Eh
 * total energy  :   -36.0434909 Eh     change       -0.3143396E-03 Eh
 * total energy  :   -36.0437280 Eh     change       -0.2370695E-03 Eh
 * total energy  :   -36.0439254 Eh     change       -0.1973795E-03 Eh
 * total energy  :   -36.0441166 Eh     change       -0.1912606E-03 Eh
 * total energy  :   -36.0443305 Eh     change       -0.2138346E-03 Eh
 * total energy  :   -36.0445985 Eh     change       -0.2680243E-03 Eh
 * total energy  :   -36.0534153 Eh     change       -0.4315787E-04 Eh
 * total energy  :   -36.0534314 Eh     change       -0.1611922E-04 Eh
 * total energy  :   -36.0534644 Eh     change       -0.3299660E-04 Eh
 * total energy  :   -36.0534982 Eh     change       -0.3380587E-04 Eh
 * total energy  :   -36.0535170 Eh     change       -0.1880437E-04 Eh
 * total energy  :   -36.0535267 Eh     change       -0.9734947E-05 Eh
 * total energy  :   -36.0535348 Eh     change       -0.8029665E-05 Eh
 * total energy  :   -36.0535505 Eh     change       -0.1575754E-04 Eh
 * total energy  :   -36.0535548 Eh     change       -0.4252803E-05 Eh
   *** GEOMETRY OPTIMIZATION CONVERGED AFTER 72 ITERATIONS ***

 final structure:
================
31
 xtb: 6.7.1 (edcfbbe)
C           -0.85209949721272        0.33788974278263        0.09745161802887
C           -0.31344823491203       -0.18380076818657        1.42709854730316
C            1.23210246235006       -0.03818960430938        1.50987272772571
C            1.66296776953737        1.37922772632450        1.32838181620566
O            1.48970059887236        2.26196595190417        2.12600140355956
C            2.35683966586812        1.63245673072720       -0.02534856116759
N            2.74234915720474        3.04042986575837       -0.31149877856494
C            3.71478139948153        3.51990044363504        0.69086912913438
C            3.36160388116523        3.09724359407840       -1.64958852862960
C            1.55032927016355        3.91151781973927       -0.29639052222975
C           -1.00057028720150        0.50037026638728        2.60159455824189
H           -0.76952690408747        1.42249104814273        0.04122934659998
H           -1.90418664519044        0.08274517946408        0.00592937398642
H           -0.32981955050833       -0.11225388991374       -0.74548698162963
H           -0.51544142947314       -1.25738032205283        1.48261205724388
H            1.53260689898886       -0.36038978988169        2.50829613207817
H            1.69445673479169       -0.68770070123926        0.76705785671141
H            3.25576812957030        1.01062274393806       -0.05314331815750
H            1.68112812535648        1.28357037120164       -0.81052233517451
H            4.60312186038191        2.89080496722867        0.68435809744835
H            4.00759138864281        4.54280829226342        0.46338033295730
H            3.26742000274138        3.49539170370977        1.68317903412476
H            2.65415772889966        2.77160240894596       -2.41065147556058
H            3.66763132566769        4.11742839154288       -1.87547736135899
H            4.24040069243844        2.45559825734883       -1.69024007102083
H            0.81890456721404        3.56108004219407       -1.02276052564406
H            1.10186050491319        3.90884101876437        0.69570975143320
H            1.83339416794887        4.93136051567864       -0.54888110841086
H           -2.07672504436915        0.37203836711633        2.52545042960497
H           -0.67264345389892        0.06930948855674        3.54365308695813
H           -0.78495528534071        1.56578013817973        2.62012426819410

          :  Hamiltonian                  GFN2-xTB          :
         :: total energy             -36.053554775949 Eh    ::
         :: gradient norm              0.000500041160 Eh/a0 ::
         :: HOMO-LUMO gap              3.488925775996 eV    ::
         :: SCC energy               -36.537641034473 Eh    ::
         :: -> dispersion             -0.022564155187 Eh    ::
         :: repulsion energy           0.484086258523 Eh    ::

    * Orbital Energies and Occupations

         #    Occupation            Energy/Eh            Energy/eV
      -------------------------------------------------------------
         1        2.0000           -0.8757288             -23.8298
       ...           ...                  ...                  ...
        21        2.0000           -0.6452774             -17.5589
        22        2.0000           -0.6436844             -17.5155
        23        2.0000           -0.6418829             -17.4665
        24        2.0000           -0.6383127             -17.3694
        25        2.0000           -0.6238729             -16.9764
        26        2.0000           -0.6166346             -16.7795
        27        2.0000           -0.6079081             -16.5420
        28        2.0000           -0.5796068             -15.7719
        29        2.0000           -0.5676452             -15.4464
        30        2.0000           -0.5623014             -15.3010
        31        2.0000           -0.5538215             -15.0703
        32        2.0000           -0.5475834             -14.9005
        33        2.0000           -0.5317412             -14.4694 (HOMO)
        34                         -0.4035256             -10.9805 (LUMO)
        35                         -0.2327966              -6.3347
        36                         -0.1673867              -4.5548
        37                         -0.1529727              -4.1626
        38                         -0.1483245              -4.0361
        39                         -0.0786416              -2.1399
        40                         -0.0604926              -1.6461
        41                         -0.0459548              -1.2505
        42                         -0.0218857              -0.5955
        43                         -0.0101823              -0.2771
        44                          0.0104910               0.2855
       ...                                ...                  ...
        64                          0.4901506              13.3377
      -------------------------------------------------------------
                  HL-Gap            0.1282157 Eh            3.4889 eV

     #   Z          covCN         q      C6AA      α(0)
     1   6 C        3.754    -0.115    22.764     6.803
     2   6 C        3.849    -0.003    20.593     6.455
     3   6 C        3.805    -0.100    22.400     6.738
     4   6 C        2.809     0.245    22.906     7.841
     5   8 O        0.857    -0.339    20.494     6.069
     6   6 C        3.766    -0.071    21.894     6.669
     7   7 N        3.623     0.155    18.626     6.410
     8   6 C        3.721    -0.102    22.567     6.785
     9   6 C        3.727    -0.100    22.516     6.775
    10   6 C        3.721    -0.100    22.521     6.778
    11   6 C        3.755    -0.119    22.842     6.815
    12   1 H        0.925     0.029     2.596     2.520
    13   1 H        0.925     0.064     2.158     2.297
    14   1 H        0.925     0.034     2.532     2.488
    15   1 H        0.924     0.060     2.201     2.320
    16   1 H        0.924     0.099     1.795     2.095
    17   1 H        0.925     0.056     2.249     2.345
    18   1 H        0.924     0.101     1.774     2.083
    19   1 H        0.924     0.108     1.712     2.046
    20   1 H        0.925     0.094     1.844     2.124
    21   1 H        0.925     0.099     1.791     2.093
    22   1 H        0.925     0.125     1.572     1.960
    23   1 H        0.925     0.098     1.801     2.099
    24   1 H        0.925     0.104     1.748     2.068
    25   1 H        0.925     0.098     1.802     2.099
    26   1 H        0.925     0.093     1.852     2.128
    27   1 H        0.925     0.123     1.588     1.971
    28   1 H        0.925     0.099     1.796     2.096
    29   1 H        0.925     0.058     2.228     2.334
    30   1 H        0.925     0.053     2.283     2.363
    31   1 H        0.925     0.054     2.275     2.359

Wiberg/Mayer (AO) data.
largest (>0.10) Wiberg bond orders for each atom

     #   Z sym  total        # sym  WBO       # sym  WBO       # sym  WBO
 ---------------------------------------------------------------------------
     1   6 C    3.995 --     2 C    1.011    12 H    0.985    14 H    0.984
                            13 H    0.982
     2   6 C    3.984 --    11 C    1.014     1 C    1.011    15 H    0.963
                             3 C    0.937
     3   6 C    3.988 --     4 C    1.020    17 H    0.974    16 H    0.942
                             2 C    0.937
     4   6 C    3.923 --     5 O    1.857     3 C    1.020     6 C    0.957
     5   8 O    2.106 --     4 C    1.857
     6   6 C    3.936 --     4 C    0.957    18 H    0.950    19 H    0.947
                             7 N    0.942
     7   7 N    3.821 --     9 C    0.957    10 C    0.952     8 C    0.952
                             6 C    0.942
     8   6 C    3.916 --    20 H    0.976    21 H    0.975    22 H    0.964
                             7 N    0.952
     9   6 C    3.928 --    25 H    0.975    23 H    0.975    24 H    0.973
                             7 N    0.957
    10   6 C    3.918 --    26 H    0.976    28 H    0.975    27 H    0.965
                             7 N    0.952
    11   6 C    3.991 --     2 C    1.014    30 H    0.984    31 H    0.981
                            29 H    0.981
    12   1 H    0.999 --     1 C    0.985
    13   1 H    0.996 --     1 C    0.982
    14   1 H    0.999 --     1 C    0.984
    15   1 H    0.996 --     2 C    0.963
    16   1 H    0.990 --     3 C    0.942
    17   1 H    0.997 --     3 C    0.974
    18   1 H    0.990 --     6 C    0.950
    19   1 H    0.988 --     6 C    0.947
    20   1 H    0.991 --     8 C    0.976
    21   1 H    0.990 --     8 C    0.975
    22   1 H    0.984 --     8 C    0.964
    23   1 H    0.990 --     9 C    0.975
    24   1 H    0.989 --     9 C    0.973
    25   1 H    0.990 --     9 C    0.975
    26   1 H    0.991 --    10 C    0.976
    27   1 H    0.985 --    10 C    0.965
    28   1 H    0.990 --    10 C    0.975
    29   1 H    0.997 --    11 C    0.981
    30   1 H    0.997 --    11 C    0.984
    31   1 H    0.997 --    11 C    0.981
 ---------------------------------------------------------------------------

molecular dipole:
                 x           y           z       tot (Debye)
 q only:        4.634       4.573      -0.752
   full:        4.778       4.443      -0.983      16.772

           -------------------------------------------------
          | TOTAL ENERGY              -36.053554775949 Eh   |
          | GRADIENT NORM               0.000500041160 Eh/α |
          | HOMO-LUMO GAP               3.488925775996 eV   |
           -------------------------------------------------

 * finished run on 2024/12/20 at 07:18:25.632
