   * xtb version 6.7.1 (edcfbbe) compiled by 'conda@3ef47c1a292c' on 2024-11-25

   ID    Z sym.   atoms
    1    6 C      1-5, 7, 8, 11-14
    2    7 N      6
    3    8 O      9, 10
    4    1 H      15-38

          program call               : xtb C1296.xyz --opt --namespace C1296 --charge +1
          :  Hamiltonian                  GFN2-xTB          :
 * total energy  :   -46.4475035 Eh     change       -0.6875709E-09 Eh
 * total energy  :   -46.4575599 Eh     change       -0.1005638E-01 Eh
 * total energy  :   -46.4598950 Eh     change       -0.2335047E-02 Eh
 * total energy  :   -46.4602544 Eh     change       -0.3594313E-03 Eh
 * total energy  :   -46.4603443 Eh     change       -0.8986812E-04 Eh
 * total energy  :   -46.4603954 Eh     change       -0.5110216E-04 Eh
 * total energy  :   -46.4604189 Eh     change       -0.2354274E-04 Eh
 * total energy  :   -46.4604513 Eh     change       -0.3235743E-04 Eh
 * total energy  :   -46.4604748 Eh     change       -0.2353898E-04 Eh
 * total energy  :   -46.4605503 Eh     change       -0.7549529E-04 Eh
 * total energy  :   -46.4674221 Eh     change       -0.1860028E-04 Eh
 * total energy  :   -46.4674355 Eh     change       -0.1330242E-04 Eh
 * total energy  :   -46.4674377 Eh     change       -0.2268072E-05 Eh
 * total energy  :   -46.4674471 Eh     change       -0.9386343E-05 Eh
 * total energy  :   -46.4674500 Eh     change       -0.2921603E-05 Eh
 * total energy  :   -46.4674554 Eh     change       -0.5379494E-05 Eh
 * total energy  :   -46.4674619 Eh     change       -0.6534101E-05 Eh
 * total energy  :   -46.4674694 Eh     change       -0.7478106E-05 Eh
 * total energy  :   -46.4674736 Eh     change       -0.4224802E-05 Eh
   *** GEOMETRY OPTIMIZATION CONVERGED AFTER 67 ITERATIONS ***

 final structure:
================
38
 xtb: 6.7.1 (edcfbbe)
C            0.81303538206107        0.29533752226923        0.01288483838898
C            1.02370064254400       -0.54691168617706       -1.23998654043891
C            0.88084932910485       -2.04942808271824       -0.98423689696819
C           -0.49632441428773       -2.49470268179424       -0.48216108703991
C           -1.72734453223673       -2.14729859845860       -1.32123831196475
N           -1.90264639986385       -2.83853676003275       -2.64563007307477
C           -1.49038571386834       -4.25919403077774       -2.59150391287218
C           -2.13052011745061       -5.06964532369413       -1.44514936100452
O           -3.12033778386744       -4.73129706009524       -0.85501311954654
O           -1.43991500185759       -6.16849228417926       -1.26387400132830
C           -1.89420768762995       -7.09736431937372       -0.25531019638747
C           -1.40751834997989       -6.69112629613439        1.12531649832748
C           -3.33230518156202       -2.75174231939667       -3.01958857360360
C           -1.12074038963361       -2.16378056763182       -3.70007003872584
H           -0.21605545805156        0.25086131563422        0.36118416027386
H            1.04977424033353        1.33464606995658       -0.19622170891306
H            1.46430977773972       -0.04449891705441        0.81378953165269
H            0.33479186571876       -0.21338239141354       -2.01915691358277
H            2.03434628289626       -0.37032772536310       -1.61169910247129
H            1.17182903474842       -2.60425324932761       -1.88013806206953
H            1.59955302500869       -2.32569603680394       -0.21035208098934
H           -0.47023586133686       -3.56570134277767       -0.27650476525780
H           -0.66804461145813       -2.00678084899282        0.47924561298571
H           -2.60103290502024       -2.40566370483815       -0.72025457728132
H           -1.74848548831848       -1.07444264884988       -1.51480430242482
H           -1.77778580178262       -4.74907100496811       -3.52652371268481
H           -0.40610252822362       -4.33349000937877       -2.49580257592562
H           -2.98651319855551       -7.13856709704469       -0.28441409489762
H           -1.47164955935295       -8.05538410548925       -0.56025864177822
H           -1.85219835335818       -5.74519484713294        1.42600762600110
H           -1.70054899843142       -7.45223872479287        1.84136793923404
H           -0.32443098397296       -6.60029313697478        1.13661900638061
H           -3.65582438259422       -1.71276748858248       -3.00421620441576
H           -3.48176773279020       -3.15071288178936       -4.02138106669812
H           -3.93629798885387       -3.32106102725812       -2.31498919996871
H           -1.47679760525517       -1.14336218817031       -3.82758996824137
H           -0.06624940354057       -2.13705714727199       -3.44231878051215
H           -1.23729314699288       -2.68894837313494       -4.64657734217939

          :  Hamiltonian                  GFN2-xTB          :
         :: total energy             -46.467473644344 Eh    ::
         :: gradient norm              0.000648739956 Eh/a0 ::
         :: HOMO-LUMO gap              4.403392788389 eV    ::
         :: SCC energy               -47.050462023971 Eh    ::
         :: -> dispersion             -0.029601927127 Eh    ::
         :: repulsion energy           0.582988379626 Eh    ::

    * Orbital Energies and Occupations

         #    Occupation            Energy/Eh            Energy/eV
      -------------------------------------------------------------
         1        2.0000           -0.8915720             -24.2609
       ...           ...                  ...                  ...
        30        2.0000           -0.6243434             -16.9892
        31        2.0000           -0.6148547             -16.7310
        32        2.0000           -0.6134971             -16.6941
        33        2.0000           -0.5927374             -16.1292
        34        2.0000           -0.5850534             -15.9201
        35        2.0000           -0.5801614             -15.7870
        36        2.0000           -0.5752421             -15.6531
        37        2.0000           -0.5733256             -15.6010
        38        2.0000           -0.5665034             -15.4153
        39        2.0000           -0.5580769             -15.1860
        40        2.0000           -0.5525182             -15.0348
        41        2.0000           -0.5441149             -14.8061
        42        2.0000           -0.5390665             -14.6687 (HOMO)
        43                         -0.3772448             -10.2654 (LUMO)
        44                         -0.2333401              -6.3495
        45                         -0.1821994              -4.9579
        46                         -0.1520732              -4.1381
        47                         -0.1466387              -3.9902
        48                         -0.1175215              -3.1979
        49                         -0.0711170              -1.9352
        50                         -0.0638909              -1.7386
        51                         -0.0429754              -1.1694
        52                         -0.0330351              -0.8989
        53                         -0.0211334              -0.5751
       ...                                ...                  ...
        80                          0.5226153              14.2211
      -------------------------------------------------------------
                  HL-Gap            0.1618217 Eh            4.4034 eV

     #   Z          covCN         q      C6AA      α(0)
     1   6 C        3.752    -0.113    22.718     6.797
     2   6 C        3.799    -0.060    21.665     6.627
     3   6 C        3.800    -0.067    21.780     6.645
     4   6 C        3.799    -0.073    21.901     6.663
     5   6 C        3.754    -0.046    21.449     6.604
     6   7 N        3.621     0.140    18.868     6.451
     7   6 C        3.765    -0.067    21.826     6.659
     8   6 C        2.711     0.363    20.840     7.472
     9   8 O        0.856    -0.396    21.596     6.230
    10   8 O        1.703    -0.241    17.990     5.727
    11   6 C        3.697     0.069    19.584     6.330
    12   6 C        3.751    -0.122    22.897     6.824
    13   6 C        3.726    -0.104    22.593     6.787
    14   6 C        3.724    -0.098    22.476     6.770
    15   1 H        0.925     0.035     2.521     2.483
    16   1 H        0.925     0.051     2.305     2.374
    17   1 H        0.925     0.048     2.341     2.393
    18   1 H        0.924     0.025     2.658     2.550
    19   1 H        0.924     0.049     2.334     2.389
    20   1 H        0.924     0.024     2.678     2.559
    21   1 H        0.924     0.061     2.188     2.313
    22   1 H        0.924     0.048     2.343     2.394
    23   1 H        0.924     0.083     1.950     2.184
    24   1 H        0.924     0.103     1.762     2.076
    25   1 H        0.924     0.091     1.868     2.137
    26   1 H        0.924     0.108     1.717     2.049
    27   1 H        0.924     0.114     1.660     2.015
    28   1 H        0.924     0.074     2.047     2.237
    29   1 H        0.924     0.083     1.944     2.181
    30   1 H        0.925     0.063     2.169     2.303
    31   1 H        0.925     0.075     2.031     2.229
    32   1 H        0.925     0.063     2.162     2.299
    33   1 H        0.925     0.099     1.798     2.097
    34   1 H        0.925     0.094     1.840     2.121
    35   1 H        0.925     0.123     1.585     1.969
    36   1 H        0.925     0.099     1.791     2.093
    37   1 H        0.925     0.108     1.717     2.049
    38   1 H        0.925     0.093     1.846     2.125

Wiberg/Mayer (AO) data.
largest (>0.10) Wiberg bond orders for each atom

     #   Z sym  total        # sym  WBO       # sym  WBO       # sym  WBO
 ---------------------------------------------------------------------------
     1   6 C    3.994 --     2 C    1.020    17 H    0.986    15 H    0.986
                            16 H    0.985
     2   6 C    3.996 --     1 C    1.020     3 C    1.007    19 H    0.976
                            18 H    0.975
     3   6 C    3.993 --     2 C    1.007     4 C    1.005    21 H    0.972
                            20 H    0.969
     4   6 C    3.984 --     5 C    1.008     3 C    1.005    22 H    0.969
                            23 H    0.959
     5   6 C    3.919 --     4 C    1.008    25 H    0.964    24 H    0.963
                             6 N    0.912
     6   7 N    3.812 --    14 C    0.957     7 C    0.956    13 C    0.952
                             5 C    0.912
     7   6 C    3.943 --     6 N    0.956    27 H    0.954    26 H    0.948
                             8 C    0.935
     8   6 C    3.937 --     9 O    1.735    10 O    1.207     7 C    0.935
     9   8 O    2.060 --     8 C    1.735    10 O    0.193
    10   8 O    2.359 --     8 C    1.207    11 C    0.901     9 O    0.193
    11   6 C    3.894 --    12 C    1.014    28 H    0.969    29 H    0.969
                            10 O    0.901
    12   6 C    3.986 --    11 C    1.014    32 H    0.984    30 H    0.984
                            31 H    0.977
    13   6 C    3.917 --    33 H    0.976    34 H    0.975    35 H    0.964
                             6 N    0.952
    14   6 C    3.925 --    38 H    0.975    36 H    0.974    37 H    0.965
                             6 N    0.957
    15   1 H    0.999 --     1 C    0.986
    16   1 H    0.997 --     1 C    0.985
    17   1 H    0.998 --     1 C    0.986
    18   1 H    0.999 --     2 C    0.975
    19   1 H    0.998 --     2 C    0.976
    20   1 H    0.999 --     3 C    0.969
    21   1 H    0.996 --     3 C    0.972
    22   1 H    0.998 --     4 C    0.969
    23   1 H    0.993 --     4 C    0.959
    24   1 H    0.989 --     5 C    0.963
    25   1 H    0.992 --     5 C    0.964
    26   1 H    0.988 --     7 C    0.948
    27   1 H    0.987 --     7 C    0.954
    28   1 H    0.995 --    11 C    0.969
    29   1 H    0.993 --    11 C    0.969
    30   1 H    0.996 --    12 C    0.984
    31   1 H    0.994 --    12 C    0.977
    32   1 H    0.996 --    12 C    0.984
    33   1 H    0.990 --    13 C    0.976
    34   1 H    0.991 --    13 C    0.975
    35   1 H    0.985 --    13 C    0.964
    36   1 H    0.990 --    14 C    0.974
    37   1 H    0.988 --    14 C    0.965
    38   1 H    0.991 --    14 C    0.975
 ---------------------------------------------------------------------------

molecular dipole:
                 x           y           z       tot (Debye)
 q only:       -2.647      -6.047      -4.218
   full:       -2.622      -6.123      -4.435      20.339

           -------------------------------------------------
          | TOTAL ENERGY              -46.467473644344 Eh   |
          | GRADIENT NORM               0.000648739956 Eh/α |
          | HOMO-LUMO GAP               4.403392788389 eV   |
           -------------------------------------------------

 * finished run on 2024/12/20 at 07:18:49.911
