   * xtb version 6.7.1 (edcfbbe) compiled by 'conda@3ef47c1a292c' on 2024-11-25

   ID    Z sym.   atoms
    1    8 O      1, 13
    2    7 N      2, 5
    3    6 C      3, 4, 6-12
    4   35 Br     14
    5    1 H      15-22

          program call               : xtb C1290.xyz --opt --namespace C1290 --charge +1
          :  Hamiltonian                  GFN2-xTB          :
 * total energy  :   -40.8901304 Eh     change       -0.1357478E-08 Eh
 * total energy  :   -40.8976477 Eh     change       -0.7517345E-02 Eh
 * total energy  :   -40.9000400 Eh     change       -0.2392304E-02 Eh
 * total energy  :   -40.9001795 Eh     change       -0.1394521E-03 Eh
 * total energy  :   -40.9002848 Eh     change       -0.1053465E-03 Eh
 * total energy  :   -40.9003276 Eh     change       -0.4275922E-04 Eh
 * total energy  :   -40.9004105 Eh     change       -0.8295547E-04 Eh
 * total energy  :   -40.9004673 Eh     change       -0.5680898E-04 Eh
 * total energy  :   -40.9005276 Eh     change       -0.6022777E-04 Eh
 * total energy  :   -40.9005508 Eh     change       -0.2322162E-04 Eh
 * total energy  :   -40.9006057 Eh     change       -0.1755955E-04 Eh
 * total energy  :   -40.9006210 Eh     change       -0.1530838E-04 Eh
 * total energy  :   -40.9006302 Eh     change       -0.9209147E-05 Eh
 * total energy  :   -40.9006391 Eh     change       -0.8893640E-05 Eh
 * total energy  :   -40.9006497 Eh     change       -0.1055256E-04 Eh
 * total energy  :   -40.9006554 Eh     change       -0.5779318E-05 Eh
 * total energy  :   -40.9006594 Eh     change       -0.3968862E-05 Eh
 * total energy  :   -40.9006600 Eh     change       -0.5762400E-06 Eh
 * total energy  :   -40.9006632 Eh     change       -0.3170365E-05 Eh
   *** GEOMETRY OPTIMIZATION CONVERGED AFTER 20 ITERATIONS ***

 final structure:
================
22
 xtb: 6.7.1 (edcfbbe)
O            1.18131509723071       -0.21395221422757        0.60753164799300
N            0.42467639206873        0.72560204322226        1.22646320912231
C            0.73240520419612        2.04725564560226        1.31681183988501
C           -0.27604011577262        2.63409125236729        2.02878213748139
N           -1.15822070434095        1.64187349210057        2.35851051994837
C           -0.73322453660623        0.45784946549233        1.86578064323963
C           -1.38377871715897       -0.82337951022665        2.00310041021826
C           -2.77407499282790       -0.89668125861595        2.16671962349982
C           -3.38764086714356       -2.12650532503033        2.29401066430419
C           -2.63562109180111       -3.29188628307451        2.27161122624655
C           -1.25891650821915       -3.22551411311374        2.11578112686613
C           -0.62946055915364       -2.00490152293891        1.97725414698291
O           -2.29688290504396        1.80724915673394        3.06760483198812
Br          -0.54842670891844        4.40561321823850        2.57104350829236
H            1.65592459964984        0.17640619333686       -0.14758416662815
H            1.61175693948731        2.48396323470250        0.88694267925731
H           -3.37000628827767        0.00050368431613        2.17385873210079
H           -4.45845137617583       -2.17591418512301        2.41112129920680
H           -3.12109145897641       -4.24943593282650        2.37647114118861
H           -0.67155129380246       -4.12979550539948        2.10420238249183
H            0.44192785165886       -1.96563804114747        1.87250210375340
H           -2.24854796007272        2.64211650561131        3.57268029256132

          :  Hamiltonian                  GFN2-xTB          :
         :: total energy             -40.900663162511 Eh    ::
         :: gradient norm              0.000628013375 Eh/a0 ::
         :: HOMO-LUMO gap              3.008688835211 eV    ::
         :: SCC energy               -41.414133416882 Eh    ::
         :: -> dispersion             -0.022288298543 Eh    ::
         :: repulsion energy           0.513470254371 Eh    ::

    * Orbital Energies and Occupations

         #    Occupation            Energy/Eh            Energy/eV
      -------------------------------------------------------------
         1        2.0000           -0.9999898             -27.2111
       ...           ...                  ...                  ...
        24        2.0000           -0.6438237             -17.5193
        25        2.0000           -0.6391764             -17.3929
        26        2.0000           -0.6293555             -17.1256
        27        2.0000           -0.6144656             -16.7205
        28        2.0000           -0.6132371             -16.6870
        29        2.0000           -0.6090708             -16.5737
        30        2.0000           -0.6015731             -16.3696
        31        2.0000           -0.5836848             -15.8829
        32        2.0000           -0.5718531             -15.5609
        33        2.0000           -0.5613365             -15.2747
        34        2.0000           -0.5536735             -15.0662
        35        2.0000           -0.5423963             -14.7594
        36        2.0000           -0.5416154             -14.7381 (HOMO)
        37                         -0.4310481             -11.7294 (LUMO)
        38                         -0.4001367             -10.8883
        39                         -0.3758942             -10.2286
        40                         -0.3586404              -9.7591
        41                         -0.3426064              -9.3228
        42                         -0.2869311              -7.8078
        43                         -0.2294308              -6.2431
        44                         -0.2107431              -5.7346
        45                         -0.1753974              -4.7728
        46                         -0.1367649              -3.7216
        47                         -0.1261320              -3.4322
       ...                                ...                  ...
        69                          0.5338744              14.5275
      -------------------------------------------------------------
                  HL-Gap            0.1105673 Eh            3.0087 eV

     #   Z          covCN         q      C6AA      α(0)
     1   8 O        1.723    -0.293    18.863     5.864
     2   7 N        2.900     0.177    18.284     6.351
     3   6 C        3.034    -0.047    29.124     8.852
     4   6 C        3.007     0.081    26.188     8.394
     5   7 N        2.945     0.166    18.459     6.381
     6   6 C        3.031     0.082    26.137     8.386
     7   6 C        2.972     0.011    27.777     8.645
     8   6 C        2.922    -0.023    28.577     8.766
     9   6 C        2.918    -0.015    28.387     8.737
    10   6 C        2.919    -0.005    28.149     8.700
    11   6 C        2.918    -0.015    28.393     8.738
    12   6 C        2.922    -0.023    28.586     8.768
    13   8 O        1.723    -0.287    18.756     5.847
    14  35 Br       1.001    -0.032   185.870    21.982
    15   1 H        0.804     0.358     0.569     1.185
    16   1 H        0.926     0.128     1.547     1.945
    17   1 H        0.926     0.075     2.033     2.230
    18   1 H        0.926     0.074     2.042     2.235
    19   1 H        0.926     0.076     2.019     2.222
    20   1 H        0.926     0.074     2.046     2.237
    21   1 H        0.926     0.074     2.039     2.233
    22   1 H        0.803     0.364     0.556     1.171

Wiberg/Mayer (AO) data.
largest (>0.10) Wiberg bond orders for each atom

     #   Z sym  total        # sym  WBO       # sym  WBO       # sym  WBO
 ---------------------------------------------------------------------------
     1   8 O    2.022 --     2 N    1.026    15 H    0.852
     2   7 N    3.688 --     6 C    1.253     3 C    1.203     1 O    1.026
     3   6 C    3.926 --     4 C    1.502     2 N    1.203    16 H    0.954
     4   6 C    3.922 --     3 C    1.502     5 N    1.175    14 Br   1.061
     5   7 N    3.683 --     6 C    1.243     4 C    1.175    13 O    1.031
     6   6 C    3.915 --     2 N    1.253     5 N    1.243     7 C    1.105
     7   6 C    3.962 --     8 C    1.339    12 C    1.338     6 C    1.105
     8   6 C    3.985 --     9 C    1.468     7 C    1.339    17 H    0.963
                            11 C    0.100
     9   6 C    3.987 --     8 C    1.468    10 C    1.422    18 H    0.966
                            12 C    0.100
    10   6 C    3.974 --    11 C    1.422     9 C    1.422    19 H    0.967
    11   6 C    3.987 --    12 C    1.467    10 C    1.422    20 H    0.966
                             8 C    0.100
    12   6 C    3.984 --    11 C    1.467     7 C    1.338    21 H    0.963
                             9 C    0.100
    13   8 O    2.036 --     5 N    1.031    22 H    0.838
    14  35 Br   1.241 --     4 C    1.061
    15   1 H    0.871 --     1 O    0.852
    16   1 H    0.983 --     3 C    0.954
    17   1 H    0.994 --     8 C    0.963
    18   1 H    0.994 --     9 C    0.966
    19   1 H    0.994 --    10 C    0.967
    20   1 H    0.994 --    11 C    0.966
    21   1 H    0.994 --    12 C    0.963
    22   1 H    0.867 --    13 O    0.838
 ---------------------------------------------------------------------------

molecular dipole:
                 x           y           z       tot (Debye)
 q only:       -1.156       0.989       3.305
   full:       -0.749       1.621       3.111       9.118

           -------------------------------------------------
          | TOTAL ENERGY              -40.900663162511 Eh   |
          | GRADIENT NORM               0.000628013375 Eh/α |
          | HOMO-LUMO GAP               3.008688835211 eV   |
           -------------------------------------------------

 * finished run on 2024/12/20 at 07:18:31.145
