   * xtb version 6.7.1 (edcfbbe) compiled by 'conda@3ef47c1a292c' on 2024-11-25

   ID    Z sym.   atoms
    1    6 C      1, 2, 4-6, 8, 9
    2    7 N      3
    3    8 O      7
    4    1 H      10-25

          program call               : xtb C1291.xyz --opt --namespace C1291 --charge +1
          :  Hamiltonian                  GFN2-xTB          :
 * total energy  :   -29.7261264 Eh     change       -0.3793943E-10 Eh
 * total energy  :   -29.7328110 Eh     change       -0.6684616E-02 Eh
 * total energy  :   -29.7343293 Eh     change       -0.1518353E-02 Eh
 * total energy  :   -29.7343718 Eh     change       -0.4245298E-04 Eh
 * total energy  :   -29.7343824 Eh     change       -0.1065944E-04 Eh
 * total energy  :   -29.7343858 Eh     change       -0.3332128E-05 Eh
   *** GEOMETRY OPTIMIZATION CONVERGED AFTER 6 ITERATIONS ***

 final structure:
================
25
 xtb: 6.7.1 (edcfbbe)
C            1.20223013583418       -0.20127369437193        0.04851569050775
C            0.43910977493027       -0.14395234079729        1.36222419839170
N            0.98441737588010        0.80168028152641        2.38970632917776
C            2.36426254990885        0.41082747595952        2.73357577692758
C            0.93767536630555        2.19961549243280        1.87521297263767
C            1.19302029801211        3.23718266627507        2.97629098494730
O            0.27911302494567        3.08787456197930        4.02877183246547
C            0.39043199124463        1.82137931492533        4.61854082224368
C            0.10511313169624        0.71571785258763        3.59361911815005
H            1.21739490096822        0.75610757975892       -0.46373454754086
H            0.68663760709419       -0.90597458110934       -0.59929428658112
H            2.21896614285686       -0.56187150025020        0.17063472596624
H           -0.59289563552795        0.15003509769923        1.15873496917171
H            0.42466174965229       -1.13800485497206        1.81490274884249
H            2.39137831396786       -0.64299123200074        3.00592509561664
H            3.02367544000443        0.57544105562939        1.88472490937366
H            2.73459438168698        0.99418891881607        3.57219815190374
H           -0.06122359464439        2.37147397914118        1.46779249182706
H            1.67520227799052        2.31917317515610        1.08241895156907
H            1.03103213027817        4.23556870974737        2.56640820319250
H            2.22682972944179        3.17796979464173        3.34547133227222
H            1.37791050132385        1.69394899418587        5.08467236171217
H           -0.36597976124580        1.77783463226124        5.40410664514591
H            0.22584878403896       -0.26478456522910        4.05570444084171
H           -0.92935661664357        0.82701318600748        3.26066608123796

          :  Hamiltonian                  GFN2-xTB          :
         :: total energy             -29.734385779278 Eh    ::
         :: gradient norm              0.000731859968 Eh/a0 ::
         :: HOMO-LUMO gap              8.501461817219 eV    ::
         :: SCC energy               -30.092536557160 Eh    ::
         :: -> dispersion             -0.017609278853 Eh    ::
         :: repulsion energy           0.358150777883 Eh    ::

    * Orbital Energies and Occupations

         #    Occupation            Energy/Eh            Energy/eV
      -------------------------------------------------------------
         1        2.0000           -0.8767561             -23.8577
       ...           ...                  ...                  ...
        15        2.0000           -0.6900506             -18.7772
        16        2.0000           -0.6788503             -18.4725
        17        2.0000           -0.6630692             -18.0430
        18        2.0000           -0.6595162             -17.9463
        19        2.0000           -0.6585373             -17.9197
        20        2.0000           -0.6546380             -17.8136
        21        2.0000           -0.6471989             -17.6112
        22        2.0000           -0.6347370             -17.2721
        23        2.0000           -0.6202690             -16.8784
        24        2.0000           -0.6157441             -16.7552
        25        2.0000           -0.6098229             -16.5941
        26        2.0000           -0.6008856             -16.3509
        27        2.0000           -0.5608602             -15.2618 (HOMO)
        28                         -0.2484373              -6.7603 (LUMO)
        29                         -0.1813484              -4.9347
        30                         -0.1728987              -4.7048
        31                         -0.1558986              -4.2422
        32                         -0.1120921              -3.0502
        33                         -0.0924912              -2.5168
        34                         -0.0753907              -2.0515
        35                         -0.0609920              -1.6597
        36                         -0.0414738              -1.1286
        37                         -0.0259730              -0.7068
        38                         -0.0176156              -0.4793
       ...                                ...                  ...
        52                          0.1397941               3.8040
      -------------------------------------------------------------
                  HL-Gap            0.3124230 Eh            8.5015 eV

     #   Z          covCN         q      C6AA      α(0)
     1   6 C        3.751    -0.132    23.099     6.854
     2   6 C        3.761    -0.035    21.244     6.570
     3   7 N        3.621     0.122    19.145     6.499
     4   6 C        3.711    -0.094    22.435     6.769
     5   6 C        3.758    -0.044    21.410     6.597
     6   6 C        3.722     0.063    19.628     6.327
     7   8 O        1.702    -0.280    18.656     5.832
     8   6 C        3.721     0.064    19.611     6.324
     9   6 C        3.764    -0.045    21.421     6.597
    10   1 H        0.925     0.068     2.107     2.270
    11   1 H        0.925     0.091     1.865     2.136
    12   1 H        0.925     0.071     2.077     2.254
    13   1 H        0.924     0.085     1.929     2.172
    14   1 H        0.924     0.087     1.911     2.162
    15   1 H        0.925     0.098     1.805     2.101
    16   1 H        0.925     0.103     1.761     2.075
    17   1 H        0.925     0.099     1.790     2.092
    18   1 H        0.924     0.097     1.808     2.103
    19   1 H        0.925     0.092     1.858     2.132
    20   1 H        0.924     0.100     1.789     2.092
    21   1 H        0.923     0.052     2.293     2.368
    22   1 H        0.923     0.052     2.299     2.371
    23   1 H        0.924     0.100     1.783     2.088
    24   1 H        0.924     0.088     1.895     2.152
    25   1 H        0.924     0.097     1.813     2.106

Wiberg/Mayer (AO) data.
largest (>0.10) Wiberg bond orders for each atom

     #   Z sym  total        # sym  WBO       # sym  WBO       # sym  WBO
 ---------------------------------------------------------------------------
     1   6 C    3.979 --     2 C    1.023    10 H    0.980    12 H    0.980
                            11 H    0.971
     2   6 C    3.931 --     1 C    1.023    14 H    0.967    13 H    0.967
                             3 N    0.921
     3   7 N    3.807 --     4 C    0.960     5 C    0.936     9 C    0.935
                             2 C    0.921
     4   6 C    3.927 --    15 H    0.975    16 H    0.971    17 H    0.968
                             3 N    0.960
     5   6 C    3.936 --     6 C    0.994    18 H    0.966    19 H    0.965
                             3 N    0.936
     6   6 C    3.952 --     7 O    0.998     5 C    0.994    21 H    0.961
                            20 H    0.959
     7   8 O    2.107 --     8 C    0.999     6 C    0.998
     8   6 C    3.952 --     7 O    0.999     9 C    0.994    22 H    0.959
                            23 H    0.958
     9   6 C    3.936 --     8 C    0.994    24 H    0.968    25 H    0.965
                             3 N    0.935
    10   1 H    0.995 --     1 C    0.980
    11   1 H    0.991 --     1 C    0.971
    12   1 H    0.995 --     1 C    0.980
    13   1 H    0.993 --     2 C    0.967
    14   1 H    0.992 --     2 C    0.967
    15   1 H    0.990 --     4 C    0.975
    16   1 H    0.989 --     4 C    0.971
    17   1 H    0.990 --     4 C    0.968
    18   1 H    0.990 --     5 C    0.966
    19   1 H    0.992 --     5 C    0.965
    20   1 H    0.990 --     6 C    0.959
    21   1 H    0.997 --     6 C    0.961
    22   1 H    0.997 --     8 C    0.959
    23   1 H    0.990 --     8 C    0.958
    24   1 H    0.992 --     9 C    0.968
    25   1 H    0.991 --     9 C    0.965
 ---------------------------------------------------------------------------

molecular dipole:
                 x           y           z       tot (Debye)
 q only:        2.150       1.342       4.287
   full:        2.222       1.175       4.252      12.554

           -------------------------------------------------
          | TOTAL ENERGY              -29.734385779278 Eh   |
          | GRADIENT NORM               0.000731859968 Eh/α |
          | HOMO-LUMO GAP               8.501461817219 eV   |
           -------------------------------------------------

 * finished run on 2024/12/20 at 07:18:31.660
