   * xtb version 6.7.1 (edcfbbe) compiled by 'conda@3ef47c1a292c' on 2024-11-25

   ID    Z sym.   atoms
    1    6 C      1, 3, 5-11
    2    7 N      2, 4
    3    1 H      12-22

          program call               : xtb C1295.xyz --opt --namespace C1295 --charge +1
          :  Hamiltonian                  GFN2-xTB          :
 * total energy  :   -30.2334155 Eh     change       -0.4115464E-09 Eh
 * total energy  :   -30.2659027 Eh     change       -0.3248723E-01 Eh
 * total energy  :   -30.2675938 Eh     change       -0.1691091E-02 Eh
 * total energy  :   -30.2678782 Eh     change       -0.2843367E-03 Eh
 * total energy  :   -30.2679786 Eh     change       -0.1004166E-03 Eh
 * total energy  :   -30.2680300 Eh     change       -0.5139852E-04 Eh
 * total energy  :   -30.2680650 Eh     change       -0.3499103E-04 Eh
 * total energy  :   -30.2680875 Eh     change       -0.2249665E-04 Eh
 * total energy  :   -30.2680974 Eh     change       -0.9954892E-05 Eh
 * total energy  :   -30.2681080 Eh     change       -0.1060939E-04 Eh
 * total energy  :   -30.2681278 Eh     change       -0.1979933E-04 Eh
 * total energy  :   -30.2681494 Eh     change       -0.2156919E-04 Eh
 * total energy  :   -30.2681752 Eh     change       -0.2577894E-04 Eh
 * total energy  :   -30.2681988 Eh     change       -0.2360255E-04 Eh
 * total energy  :   -30.2682103 Eh     change       -0.1157399E-04 Eh
 * total energy  :   -30.2682290 Eh     change       -0.1863329E-04 Eh
 * total energy  :   -30.2682303 Eh     change       -0.1338042E-05 Eh
 * total energy  :   -30.2682358 Eh     change       -0.5494908E-05 Eh
 * total energy  :   -30.2682365 Eh     change       -0.6576474E-06 Eh
   *** GEOMETRY OPTIMIZATION CONVERGED AFTER 19 ITERATIONS ***

 final structure:
================
22
 xtb: 6.7.1 (edcfbbe)
C            1.06285361089887       -0.07487324465401        0.07371546110308
N           -0.07340898892021       -0.05424358076741        0.14368169616097
C            2.51872761758732       -0.07503180533582        0.02351776078411
N            3.05611962083561        0.42151019399586        1.28274385811189
C            2.84044722686908        1.70444933782330        1.61891076195856
C            3.28117443040620        2.20718845872583        2.81735087807969
C            3.96446164851188        1.38399247856728        3.72133988943843
C            4.17404667570905        0.05636343887479        3.33278450815159
C            3.70848762643766       -0.39545404771574        2.12136342009130
C            4.49420569451031        1.91318948768438        5.00177343546797
C            5.90105288826181        2.48927420326075        4.76916966299153
H            2.86735153939625       -1.09445590500295       -0.16628033519992
H            2.83879613497795        0.56727221419077       -0.80550598278932
H            2.29974160298117        2.31653548520525        0.91134929518437
H            3.08967012556185        3.24095080255745        3.05946046407056
H            4.69623397144244       -0.62609160178774        3.98510238892770
H            3.85270512218055       -1.42017681144904        1.81132069543302
H            3.84673807690965        2.70509406307835        5.37918575430961
H            4.55537221102478        1.11785434004690        5.74475284334716
H            5.87350804765296        3.29607025077240        4.04130890076865
H            6.28565187108728        2.88165644019810        5.70519359414101
H            6.57948324567738        1.71818580173092        4.41288104946817

          :  Hamiltonian                  GFN2-xTB          :
         :: total energy             -30.268236468837 Eh    ::
         :: gradient norm              0.000312051290 Eh/a0 ::
         :: HOMO-LUMO gap              3.063714079940 eV    ::
         :: SCC energy               -30.817216249856 Eh    ::
         :: -> dispersion             -0.016686971521 Eh    ::
         :: repulsion energy           0.548979781019 Eh    ::

    * Orbital Energies and Occupations

         #    Occupation            Energy/Eh            Energy/eV
      -------------------------------------------------------------
         1        2.0000           -0.8916448             -24.2629
       ...           ...                  ...                  ...
        16        2.0000           -0.6824563             -18.5706
        17        2.0000           -0.6797019             -18.4956
        18        2.0000           -0.6531815             -17.7740
        19        2.0000           -0.6425365             -17.4843
        20        2.0000           -0.6396127             -17.4047
        21        2.0000           -0.6326388             -17.2150
        22        2.0000           -0.6269450             -17.0600
        23        2.0000           -0.6243474             -16.9894
        24        2.0000           -0.6226228             -16.9424
        25        2.0000           -0.5989841             -16.2992
        26        2.0000           -0.5848551             -15.9147
        27        2.0000           -0.5788299             -15.7508
        28        2.0000           -0.5776953             -15.7199 (HOMO)
        29                         -0.4651058             -12.6562 (LUMO)
        30                         -0.4338836             -11.8066
        31                         -0.3751247             -10.2077
        32                         -0.3610423              -9.8245
        33                         -0.3158636              -8.5951
        34                         -0.1742341              -4.7412
        35                         -0.0875895              -2.3834
        36                         -0.0619691              -1.6863
        37                         -0.0513760              -1.3980
        38                         -0.0444531              -1.2096
        39                         -0.0350245              -0.9531
       ...                                ...                  ...
        55                          0.9933834              27.0313
      -------------------------------------------------------------
                  HL-Gap            0.1125894 Eh            3.0637 eV

     #   Z          covCN         q      C6AA      α(0)
     1   6 C        1.897     0.109    28.406     8.608
     2   7 N        0.911    -0.134    23.901     7.071
     3   6 C        3.759    -0.020    20.987     6.531
     4   7 N        2.756     0.098    19.559     6.568
     5   6 C        2.886     0.032    27.281     8.563
     6   6 C        2.920    -0.021    28.542     8.761
     7   6 C        2.976     0.073    26.368     8.423
     8   6 C        2.920    -0.023    28.567     8.765
     9   6 C        2.883     0.032    27.292     8.565
    10   6 C        3.807    -0.070    21.837     6.652
    11   6 C        3.755    -0.108    22.623     6.782
    12   1 H        0.924     0.122     1.596     1.976
    13   1 H        0.924     0.125     1.570     1.960
    14   1 H        0.926     0.108     1.713     2.047
    15   1 H        0.926     0.108     1.712     2.046
    16   1 H        0.926     0.107     1.719     2.050
    17   1 H        0.926     0.106     1.732     2.058
    18   1 H        0.924     0.082     1.955     2.187
    19   1 H        0.925     0.081     1.970     2.195
    20   1 H        0.925     0.056     2.246     2.343
    21   1 H        0.925     0.080     1.974     2.197
    22   1 H        0.925     0.056     2.246     2.344

Wiberg/Mayer (AO) data.
largest (>0.10) Wiberg bond orders for each atom

     #   Z sym  total        # sym  WBO       # sym  WBO       # sym  WBO
 ---------------------------------------------------------------------------
     1   6 C    3.955 --     2 N    2.900     3 C    1.016
     2   7 N    3.044 --     1 C    2.900
     3   6 C    3.948 --     1 C    1.016     4 N    0.962    12 H    0.939
                            13 H    0.930
     4   7 N    3.746 --     9 C    1.305     5 C    1.295     3 C    0.962
     5   6 C    3.956 --     6 C    1.503     4 N    1.295    14 H    0.955
     6   6 C    3.982 --     5 C    1.503     7 C    1.354    15 H    0.957
     7   6 C    3.960 --     8 C    1.361     6 C    1.354    10 C    1.047
     8   6 C    3.981 --     9 C    1.492     7 C    1.361    16 H    0.957
     9   6 C    3.957 --     8 C    1.492     4 N    1.305    17 H    0.954
    10   6 C    3.984 --     7 C    1.047    19 H    0.963    11 C    0.963
                            18 H    0.960
    11   6 C    3.982 --    22 H    0.987    20 H    0.986    21 H    0.976
                            10 C    0.963
    12   1 H    0.985 --     3 C    0.939
    13   1 H    0.984 --     3 C    0.930
    14   1 H    0.988 --     5 C    0.955
    15   1 H    0.988 --     6 C    0.957
    16   1 H    0.988 --     8 C    0.957
    17   1 H    0.988 --     9 C    0.954
    18   1 H    0.993 --    10 C    0.960
    19   1 H    0.993 --    10 C    0.963
    20   1 H    0.997 --    11 C    0.986
    21   1 H    0.991 --    11 C    0.976
    22   1 H    0.997 --    11 C    0.987
 ---------------------------------------------------------------------------

molecular dipole:
                 x           y           z       tot (Debye)
 q only:        7.260       1.662       4.289
   full:        7.683       1.582       4.132      22.535

           -------------------------------------------------
          | TOTAL ENERGY              -30.268236468837 Eh   |
          | GRADIENT NORM               0.000312051290 Eh/α |
          | HOMO-LUMO GAP               3.063714079940 eV   |
           -------------------------------------------------

 * finished run on 2024/12/20 at 07:18:48.201
