   * xtb version 6.7.1 (edcfbbe) compiled by 'conda@3ef47c1a292c' on 2024-11-25

   ID    Z sym.   atoms
    1    6 C      1-12, 14-38
    2    7 N      13
    3    1 H      39-116

          program call               : xtb C1294.xyz --opt --namespace C1294 --charge +1
          :  Hamiltonian                  GFN2-xTB          :
 * total energy  :  -121.5877717 Eh     change       -0.1369358E-09 Eh
 * total energy  :  -121.5966889 Eh     change       -0.8917173E-02 Eh
 * total energy  :  -121.5987651 Eh     change       -0.2076189E-02 Eh
 * total energy  :  -121.5989428 Eh     change       -0.1777319E-03 Eh
 * total energy  :  -121.5991697 Eh     change       -0.2268887E-03 Eh
 * total energy  :  -121.5993208 Eh     change       -0.1510957E-03 Eh
 * total energy  :  -121.5994840 Eh     change       -0.1631586E-03 Eh
 * total energy  :  -121.5995923 Eh     change       -0.1083479E-03 Eh
 * total energy  :  -121.5996707 Eh     change       -0.7838822E-04 Eh
 * total energy  :  -121.5997280 Eh     change       -0.5726862E-04 Eh
 * total energy  :  -121.6044701 Eh     change       -0.7098297E-05 Eh
 * total energy  :  -121.6044772 Eh     change       -0.7067626E-05 Eh
 * total energy  :  -121.6044839 Eh     change       -0.6748560E-05 Eh
 * total energy  :  -121.6044910 Eh     change       -0.7036028E-05 Eh
 * total energy  :  -121.6044993 Eh     change       -0.8298513E-05 Eh
 * total energy  :  -121.6045095 Eh     change       -0.1018235E-04 Eh
 * total energy  :  -121.6045213 Eh     change       -0.1187317E-04 Eh
 * total energy  :  -121.6045336 Eh     change       -0.1227017E-04 Eh
 * total energy  :  -121.6045360 Eh     change       -0.2440912E-05 Eh
   *** GEOMETRY OPTIMIZATION CONVERGED AFTER 94 ITERATIONS ***

 final structure:
================
116
 xtb: 6.7.1 (edcfbbe)
C            2.61805224011718       -0.39343421132560        1.49328509300764
C            2.55820607070294        0.78056008571499        2.46328645044803
C            2.35016781760795        2.12730786139814        1.76881160235748
C            1.03997359596784        2.25560848154567        0.98905262675260
C           -0.22906903427492        2.06812991017922        1.82265267343176
C           -0.39368792439135        3.05557970048190        2.97979307304156
C           -0.42302842264642        4.53032799867616        2.57229176519130
C           -1.50649247867141        4.89698079651212        1.55594338398289
C           -2.93480030362380        4.58036517985685        2.00348062105222
C           -3.39480415929810        5.30812322467637        3.26884305846048
C           -3.30650177810038        6.84048968715876        3.21941054838847
C           -3.91742963434101        7.53336189040175        1.99719699757964
N           -5.36998652218377        7.88636403234977        2.04304982232848
C           -5.61144403369451        9.02786379307766        2.98580204733597
C           -5.09079896821365       10.41802483350775        2.60389003583291
C           -6.01124853561981       11.30572356138842        1.75287996490449
C           -7.45053548545055       11.43740210119409        2.25588196565886
C           -7.59100756899192       11.95653736351240        3.68819586312949
C           -7.00807848654490       13.35160846974474        3.92335160832007
C           -7.59728641002965       14.45482445442490        3.04168886493105
C           -9.11496070446503       14.62146551017118        3.14165541759812
C           -9.64041943993099       14.92990343008409        4.54497269070091
C           -9.08190981243335       16.20557012328551        5.17890332855779
C           -9.35239925987861       17.48902914367377        4.39221978939126
C          -10.83655600312598       17.80154985286778        4.24272281854819
C           -5.80973770400355        8.27520193579885        0.66855977002935
C           -5.92208027085242        7.15123540514963       -0.37029967518439
C           -7.34563112632177        6.63695467522996       -0.61790900693366
C           -8.34110249351359        7.69623507702353       -1.09891945383087
C           -7.91529703239984        8.46755701299649       -2.34965275309005
C           -7.62517883325496        7.59831403117433       -3.57490704964430
C           -8.79307475145464        6.72434945584658       -4.03624499074349
C          -10.06815924745532        7.48826857166622       -4.39800160704297
C           -9.90435065523959        8.53179089730094       -5.50477533105183
C           -9.38034818556354        7.98757187297240       -6.83547914137768
C          -10.23840920411643        6.89052224129701       -7.46744562673031
C          -11.64791577022289        7.35448253453841       -7.81449199712052
C           -6.18236840105586        6.75670341328115        2.52585269238940
H            1.66021236559240       -0.54966521630704        1.00351388559944
H            2.87728176262570       -1.30640565728804        2.02399145699324
H            3.37171296740192       -0.21715491887219        0.72894782725693
H            1.76467270789560        0.61013240385108        3.19318971083741
H            3.49983827409250        0.82856505142678        3.01528400841945
H            2.40647329263019        2.91999822195140        2.51808206427333
H            3.17408627861509        2.28675573114797        1.06872018684865
H            1.02056965307556        3.23883146141581        0.51297505165549
H            1.03036369622717        1.51539492735823        0.18711349058647
H           -1.09140539353660        2.14071372818244        1.15527452799040
H           -0.23677650658357        1.05905156205924        2.23771864177956
H           -1.31256663310361        2.80641079478368        3.51631934209419
H            0.42852644966849        2.91886364683228        3.68364440004004
H           -0.54655950785350        5.13370362650832        3.47507373907524
H            0.54278355484375        4.79924866137095        2.14218234950579
H           -1.41599211462656        5.96151843065407        1.32357468366231
H           -1.31790874551476        4.35369196639110        0.62908097912711
H           -3.61633501345030        4.79228154645237        1.17353169706522
H           -3.01341700108128        3.51004665488336        2.19444271270481
H           -4.40742293126566        4.97864642622901        3.50476022019288
H           -2.76520668953079        4.98550887076599        4.09852104268884
H           -3.71387530954566        7.24607531565053        4.14682197805049
H           -2.24771046071981        7.10383815371379        3.21174856551439
H           -3.38112059395252        8.46754497037391        1.82460968701409
H           -3.75744411209165        6.90006904299358        1.12608835372010
H           -6.68818660409013        9.09429157608007        3.14477691547582
H           -5.15484654228175        8.73981027133252        3.93395592606328
H           -4.92298072387121       10.93918201700158        3.54773903978459
H           -4.11740292398206       10.35418100517407        2.11520984107197
H           -5.56036457406028       12.29838849197059        1.73924070647084
H           -6.03934699811017       10.96677956770925        0.71648490832105
H           -7.97129079888483       12.11857225884347        1.58276472711558
H           -7.96987582599649       10.47661920564180        2.18027803992227
H           -8.65326726395257       11.97268465701600        3.93533704529266
H           -7.11364975773234       11.26179897359236        4.38455244164489
H           -7.17155664085505       13.60896494447778        4.97077468291245
H           -5.92651127198713       13.32898828948559        3.76813227945343
H           -7.11753323333063       15.39517471656482        3.31695236088290
H           -7.34060635728652       14.26380529598974        1.99675945947686
H           -9.41012066252140       15.42582987165507        2.46597432141210
H           -9.60620189316313       13.71318907311639        2.78387647063960
H          -10.72758280538879       15.00780625775455        4.48925651693613
H           -9.41653463826881       14.09201615145341        5.20949016845472
H           -9.52572836469389       16.30842676885137        6.17229646385949
H           -8.00357641837129       16.10065029986374        5.31741728372259
H           -8.87091577371808       18.31526424359061        4.92064025443844
H           -8.89207954424473       17.42564474428760        3.40451172080314
H          -11.32069575791207       17.82232998904388        5.21663407884026
H          -10.97041526122836       18.77370840538645        3.77424637568758
H          -11.33575939676822       17.05905202336034        3.62521727614668
H           -6.78353228614882        8.75453255131301        0.76715652532054
H           -5.09705812757352        9.01933193780932        0.31433481066758
H           -5.54011651548762        7.53770246182229       -1.31523039302744
H           -5.28841713597380        6.30252406942649       -0.11064693938331
H           -7.27826235528832        5.85636473368409       -1.37594118460907
H           -7.74880248886357        6.16893360528312        0.28211661491807
H           -9.28599915011606        7.19093728095598       -1.29957404815352
H           -8.54127697422484        8.41934658955253       -0.30254237474354
H           -8.71305632303514        9.16924789380529       -2.59554040031263
H           -7.02713564707413        9.06610142951842       -2.12889552696244
H           -7.33212071097250        8.25907842168777       -4.39195416049485
H           -6.77051597359956        6.94805616565868       -3.37178757789855
H           -8.46181979555973        6.15402820713058       -4.90542909822608
H           -9.03721763818122        5.99909537146925       -3.25616891156048
H          -10.82096038730706        6.75980378093688       -4.70352770095330
H          -10.45728994191290        7.99036825666466       -3.50888030363376
H          -10.87467939889247        9.00275134475074       -5.67099935480007
H           -9.22510075588466        9.31763264032460       -5.16584857643729
H           -9.31465507360100        8.82314247525268       -7.53684485406089
H           -8.36730130257603        7.60305956363871       -6.69746727312350
H           -9.74168558054299        6.56002941466253       -8.38283850406084
H          -10.29278870663842        6.02837705474339       -6.80018791701414
H          -11.61226238103907        8.24116244828432       -8.44365942663564
H          -12.17800511644328        6.57363978913276       -8.35466242653220
H          -12.21711699703260        7.58991566532555       -6.91875308188738
H           -5.95235182039628        5.85656042405407        1.96332485263211
H           -5.98609225113819        6.57635828791992        3.57986824890116
H           -7.23905020061821        6.98946923949258        2.40630113586004

          :  Hamiltonian                  GFN2-xTB          :
         :: total energy            -121.604536043989 Eh    ::
         :: gradient norm              0.000197705277 Eh/a0 ::
         :: HOMO-LUMO gap              6.752445174936 eV    ::
         :: SCC energy              -123.385588295714 Eh    ::
         :: -> dispersion             -0.103503631484 Eh    ::
         :: repulsion energy           1.781052251724 Eh    ::

    * Orbital Energies and Occupations

         #    Occupation            Energy/Eh            Energy/eV
      -------------------------------------------------------------
         1        2.0000           -0.8434983             -22.9528
       ...           ...                  ...                  ...
       103        2.0000           -0.4927179             -13.4075
       104        2.0000           -0.4895653             -13.3218
       105        2.0000           -0.4895446             -13.3212
       106        2.0000           -0.4888053             -13.3011
       107        2.0000           -0.4751605             -12.9298
       108        2.0000           -0.4751442             -12.9293
       109        2.0000           -0.4743893             -12.9088
       110        2.0000           -0.4711770             -12.8214
       111        2.0000           -0.4711650             -12.8211
       112        2.0000           -0.4705562             -12.8045
       113        2.0000           -0.4687768             -12.7561
       114        2.0000           -0.4687733             -12.7560
       115        2.0000           -0.4682018             -12.7404 (HOMO)
       116                         -0.2200540              -5.9880 (LUMO)
       117                         -0.1563914              -4.2556
       118                         -0.1472032              -4.0056
       119                         -0.1302665              -3.5447
       120                         -0.0723707              -1.9693
       121                         -0.0705401              -1.9195
       122                         -0.0626550              -1.7049
       123                         -0.0533074              -1.4506
       124                         -0.0315619              -0.8588
       125                         -0.0294237              -0.8007
       126                         -0.0279715              -0.7611
       ...                                ...                  ...
       230                          0.2541928               6.9169
      -------------------------------------------------------------
                  HL-Gap            0.2481478 Eh            6.7524 eV

     #   Z          covCN         q      C6AA      α(0)
     1   6 C        3.751    -0.103    22.522     6.768
     2   6 C        3.799    -0.053    21.522     6.605
     3   6 C        3.801    -0.058    21.615     6.619
     4   6 C        3.800    -0.058    21.612     6.619
     5   6 C        3.800    -0.058    21.612     6.619
     6   6 C        3.800    -0.059    21.633     6.622
     7   6 C        3.800    -0.059    21.640     6.623
     8   6 C        3.800    -0.061    21.668     6.628
     9   6 C        3.800    -0.060    21.657     6.626
    10   6 C        3.799    -0.070    21.840     6.654
    11   6 C        3.798    -0.070    21.843     6.655
    12   6 C        3.754    -0.038    21.309     6.582
    13   7 N        3.619     0.115    19.266     6.519
    14   6 C        3.763    -0.039    21.310     6.580
    15   6 C        3.798    -0.071    21.858     6.657
    16   6 C        3.799    -0.070    21.845     6.655
    17   6 C        3.800    -0.060    21.662     6.627
    18   6 C        3.800    -0.061    21.672     6.628
    19   6 C        3.800    -0.059    21.641     6.624
    20   6 C        3.800    -0.059    21.633     6.622
    21   6 C        3.800    -0.058    21.612     6.619
    22   6 C        3.800    -0.058    21.612     6.619
    23   6 C        3.800    -0.058    21.615     6.619
    24   6 C        3.799    -0.053    21.522     6.605
    25   6 C        3.751    -0.103    22.522     6.768
    26   6 C        3.760    -0.039    21.312     6.581
    27   6 C        3.799    -0.071    21.857     6.657
    28   6 C        3.800    -0.068    21.805     6.649
    29   6 C        3.800    -0.061    21.683     6.630
    30   6 C        3.800    -0.061    21.665     6.627
    31   6 C        3.800    -0.059    21.638     6.623
    32   6 C        3.800    -0.058    21.627     6.621
    33   6 C        3.800    -0.058    21.612     6.619
    34   6 C        3.800    -0.058    21.613     6.619
    35   6 C        3.800    -0.058    21.612     6.619
    36   6 C        3.799    -0.053    21.519     6.605
    37   6 C        3.751    -0.103    22.522     6.768
    38   6 C        3.720    -0.085    22.249     6.737
    39   1 H        0.925     0.033     2.539     2.492
    40   1 H        0.925     0.034     2.525     2.485
    41   1 H        0.925     0.035     2.510     2.478
    42   1 H        0.924     0.030     2.592     2.518
    43   1 H        0.924     0.030     2.589     2.516
    44   1 H        0.924     0.027     2.630     2.536
    45   1 H        0.924     0.031     2.566     2.505
    46   1 H        0.924     0.025     2.658     2.549
    47   1 H        0.924     0.035     2.513     2.479
    48   1 H        0.924     0.023     2.682     2.561
    49   1 H        0.924     0.037     2.485     2.465
    50   1 H        0.924     0.025     2.664     2.553
    51   1 H        0.924     0.039     2.456     2.451
    52   1 H        0.924     0.024     2.672     2.556
    53   1 H        0.924     0.041     2.440     2.443
    54   1 H        0.924     0.020     2.737     2.587
    55   1 H        0.924     0.044     2.400     2.422
    56   1 H        0.924     0.012     2.858     2.644
    57   1 H        0.925     0.053     2.288     2.365
    58   1 H        0.924     0.032     2.551     2.498
    59   1 H        0.924     0.060     2.204     2.322
    60   1 H        0.924     0.045     2.390     2.417
    61   1 H        0.924     0.072     2.061     2.245
    62   1 H        0.924     0.074     2.045     2.236
    63   1 H        0.925     0.091     1.866     2.136
    64   1 H        0.924     0.088     1.902     2.157
    65   1 H        0.924     0.075     2.030     2.228
    66   1 H        0.924     0.073     2.049     2.238
    67   1 H        0.924     0.045     2.379     2.412
    68   1 H        0.924     0.060     2.195     2.317
    69   1 H        0.924     0.033     2.546     2.495
    70   1 H        0.925     0.053     2.281     2.362
    71   1 H        0.924     0.013     2.845     2.638
    72   1 H        0.924     0.044     2.394     2.420
    73   1 H        0.924     0.020     2.739     2.588
    74   1 H        0.924     0.041     2.438     2.442
    75   1 H        0.924     0.024     2.676     2.558
    76   1 H        0.924     0.039     2.456     2.451
    77   1 H        0.924     0.025     2.663     2.552
    78   1 H        0.924     0.037     2.486     2.465
    79   1 H        0.924     0.024     2.680     2.560
    80   1 H        0.924     0.035     2.512     2.479
    81   1 H        0.924     0.025     2.658     2.549
    82   1 H        0.924     0.031     2.565     2.505
    83   1 H        0.924     0.027     2.631     2.536
    84   1 H        0.924     0.030     2.590     2.517
    85   1 H        0.924     0.030     2.592     2.518
    86   1 H        0.925     0.035     2.510     2.477
    87   1 H        0.925     0.034     2.525     2.485
    88   1 H        0.925     0.033     2.539     2.492
    89   1 H        0.925     0.094     1.844     2.124
    90   1 H        0.925     0.078     2.004     2.214
    91   1 H        0.925     0.071     2.076     2.253
    92   1 H        0.924     0.044     2.394     2.420
    93   1 H        0.925     0.058     2.222     2.331
    94   1 H        0.924     0.031     2.567     2.505
    95   1 H        0.925     0.052     2.298     2.370
    96   1 H        0.924     0.018     2.763     2.599
    97   1 H        0.924     0.045     2.383     2.414
    98   1 H        0.924     0.019     2.742     2.590
    99   1 H        0.924     0.040     2.443     2.444
   100   1 H        0.924     0.022     2.696     2.568
   101   1 H        0.924     0.038     2.469     2.457
   102   1 H        0.924     0.025     2.665     2.553
   103   1 H        0.924     0.037     2.490     2.467
   104   1 H        0.924     0.025     2.666     2.553
   105   1 H        0.924     0.036     2.509     2.477
   106   1 H        0.924     0.025     2.656     2.548
   107   1 H        0.924     0.031     2.567     2.506
   108   1 H        0.924     0.026     2.638     2.540
   109   1 H        0.924     0.029     2.597     2.520
   110   1 H        0.924     0.030     2.594     2.518
   111   1 H        0.925     0.035     2.510     2.477
   112   1 H        0.925     0.034     2.528     2.486
   113   1 H        0.925     0.034     2.534     2.489
   114   1 H        0.925     0.101     1.775     2.083
   115   1 H        0.925     0.092     1.862     2.134
   116   1 H        0.925     0.089     1.887     2.148

Wiberg/Mayer (AO) data.
largest (>0.10) Wiberg bond orders for each atom

     #   Z sym  total        # sym  WBO       # sym  WBO       # sym  WBO
 ---------------------------------------------------------------------------
     1   6 C    3.997 --     2 C    1.020    41 H    0.987    40 H    0.987
                            39 H    0.986
     2   6 C    3.998 --     1 C    1.020     3 C    1.008    43 H    0.978
                            42 H    0.976
     3   6 C    3.997 --     2 C    1.008     4 C    1.008    45 H    0.977
                            44 H    0.976
     4   6 C    3.997 --     5 C    1.008     3 C    1.008    46 H    0.975
                            47 H    0.975
     5   6 C    3.997 --     4 C    1.008     6 C    1.008    48 H    0.975
                            49 H    0.974
     6   6 C    3.997 --     5 C    1.008     7 C    1.007    50 H    0.975
                            51 H    0.974
     7   6 C    3.996 --     6 C    1.007     8 C    1.007    52 H    0.975
                            53 H    0.974
     8   6 C    3.996 --     7 C    1.007     9 C    1.007    54 H    0.976
                            55 H    0.973
     9   6 C    3.995 --    10 C    1.008     8 C    1.007    57 H    0.971
                            56 H    0.971
    10   6 C    3.992 --     9 C    1.008    11 C    1.004    58 H    0.974
                            59 H    0.971
    11   6 C    3.986 --    12 C    1.005    10 C    1.004    60 H    0.967
                            61 H    0.966
    12   6 C    3.932 --    11 C    1.005    62 H    0.963    63 H    0.954
                            13 N    0.929
    13   7 N    3.803 --    38 C    0.963    12 C    0.929    26 C    0.928
                            14 C    0.926
    14   6 C    3.932 --    15 C    1.006    65 H    0.964    64 H    0.960
                            13 N    0.926
    15   6 C    3.985 --    14 C    1.006    16 C    1.004    67 H    0.966
                            66 H    0.965
    16   6 C    3.992 --    17 C    1.008    15 C    1.004    69 H    0.974
                            68 H    0.970
    17   6 C    3.995 --    16 C    1.008    18 C    1.007    71 H    0.971
                            70 H    0.971
    18   6 C    3.996 --    19 C    1.007    17 C    1.007    73 H    0.976
                            72 H    0.973
    19   6 C    3.996 --    20 C    1.008    18 C    1.007    75 H    0.975
                            74 H    0.974
    20   6 C    3.997 --    21 C    1.008    19 C    1.008    77 H    0.975
                            76 H    0.974
    21   6 C    3.997 --    22 C    1.008    20 C    1.008    79 H    0.975
                            78 H    0.974
    22   6 C    3.997 --    21 C    1.008    23 C    1.008    81 H    0.975
                            80 H    0.975
    23   6 C    3.997 --    24 C    1.008    22 C    1.008    82 H    0.977
                            83 H    0.976
    24   6 C    3.998 --    25 C    1.020    23 C    1.008    84 H    0.978
                            85 H    0.976
    25   6 C    3.997 --    24 C    1.020    86 H    0.987    87 H    0.987
                            88 H    0.986
    26   6 C    3.930 --    27 C    1.003    90 H    0.968    89 H    0.957
                            13 N    0.928
    27   6 C    3.986 --    28 C    1.005    26 C    1.003    91 H    0.967
                            92 H    0.963
    28   6 C    3.992 --    29 C    1.007    27 C    1.005    94 H    0.975
                            93 H    0.971
    29   6 C    3.995 --    30 C    1.007    28 C    1.007    96 H    0.972
                            95 H    0.972
    30   6 C    3.996 --    29 C    1.007    31 C    1.007    98 H    0.976
                            97 H    0.973
    31   6 C    3.997 --    32 C    1.007    30 C    1.007   100 H    0.975
                            99 H    0.974
    32   6 C    3.997 --    33 C    1.008    31 C    1.007   102 H    0.975
                           101 H    0.974
    33   6 C    3.997 --    34 C    1.008    32 C    1.008   104 H    0.975
                           103 H    0.974
    34   6 C    3.997 --    33 C    1.008    35 C    1.008   106 H    0.975
                           105 H    0.975
    35   6 C    3.997 --    36 C    1.008    34 C    1.008   107 H    0.977
                           108 H    0.976
    36   6 C    3.998 --    37 C    1.020    35 C    1.008   109 H    0.978
                           110 H    0.976
    37   6 C    3.997 --    36 C    1.020   111 H    0.987   112 H    0.987
                           113 H    0.986
    38   6 C    3.934 --   116 H    0.974   115 H    0.973   114 H    0.970
                            13 N    0.963
    39   1 H    0.999 --     1 C    0.986
    40   1 H    0.999 --     1 C    0.987
    41   1 H    0.999 --     1 C    0.987
    42   1 H    0.999 --     2 C    0.976
    43   1 H    0.999 --     2 C    0.978
    44   1 H    0.999 --     3 C    0.976
    45   1 H    0.999 --     3 C    0.977
    46   1 H    0.999 --     4 C    0.975
    47   1 H    0.999 --     4 C    0.975
    48   1 H    0.999 --     5 C    0.975
    49   1 H    0.999 --     5 C    0.974
    50   1 H    0.999 --     6 C    0.975
    51   1 H    0.998 --     6 C    0.974
    52   1 H    0.999 --     7 C    0.975
    53   1 H    0.998 --     7 C    0.974
    54   1 H    1.000 --     8 C    0.976
    55   1 H    0.998 --     8 C    0.973
    56   1 H    1.000 --     9 C    0.971
    57   1 H    0.997 --     9 C    0.971
    58   1 H    0.999 --    10 C    0.974
    59   1 H    0.996 --    10 C    0.971
    60   1 H    0.998 --    11 C    0.967
    61   1 H    0.995 --    11 C    0.966
    62   1 H    0.995 --    12 C    0.963
    63   1 H    0.992 --    12 C    0.954
    64   1 H    0.992 --    14 C    0.960
    65   1 H    0.994 --    14 C    0.964
    66   1 H    0.994 --    15 C    0.965
    67   1 H    0.998 --    15 C    0.966
    68   1 H    0.996 --    16 C    0.970
    69   1 H    0.999 --    16 C    0.974
    70   1 H    0.997 --    17 C    0.971
    71   1 H    1.000 --    17 C    0.971
    72   1 H    0.998 --    18 C    0.973
    73   1 H    1.000 --    18 C    0.976
    74   1 H    0.998 --    19 C    0.974
    75   1 H    0.999 --    19 C    0.975
    76   1 H    0.998 --    20 C    0.974
    77   1 H    0.999 --    20 C    0.975
    78   1 H    0.999 --    21 C    0.974
    79   1 H    0.999 --    21 C    0.975
    80   1 H    0.999 --    22 C    0.975
    81   1 H    0.999 --    22 C    0.975
    82   1 H    0.999 --    23 C    0.977
    83   1 H    0.999 --    23 C    0.976
    84   1 H    0.999 --    24 C    0.978
    85   1 H    0.999 --    24 C    0.976
    86   1 H    0.999 --    25 C    0.987
    87   1 H    0.999 --    25 C    0.987
    88   1 H    0.999 --    25 C    0.986
    89   1 H    0.991 --    26 C    0.957
    90   1 H    0.994 --    26 C    0.968
    91   1 H    0.995 --    27 C    0.967
    92   1 H    0.998 --    27 C    0.963
    93   1 H    0.996 --    28 C    0.971
    94   1 H    0.999 --    28 C    0.975
    95   1 H    0.997 --    29 C    0.972
    96   1 H    1.000 --    29 C    0.972
    97   1 H    0.998 --    30 C    0.973
    98   1 H    1.000 --    30 C    0.976
    99   1 H    0.998 --    31 C    0.974
   100   1 H    0.999 --    31 C    0.975
   101   1 H    0.999 --    32 C    0.974
   102   1 H    0.999 --    32 C    0.975
   103   1 H    0.999 --    33 C    0.974
   104   1 H    0.999 --    33 C    0.975
   105   1 H    0.999 --    34 C    0.975
   106   1 H    0.999 --    34 C    0.975
   107   1 H    0.999 --    35 C    0.977
   108   1 H    0.999 --    35 C    0.976
   109   1 H    0.999 --    36 C    0.978
   110   1 H    0.999 --    36 C    0.976
   111   1 H    0.999 --    37 C    0.987
   112   1 H    0.999 --    37 C    0.987
   113   1 H    0.999 --    37 C    0.986
   114   1 H    0.989 --    38 C    0.970
   115   1 H    0.992 --    38 C    0.973
   116   1 H    0.992 --    38 C    0.974
 ---------------------------------------------------------------------------

molecular dipole:
                 x           y           z       tot (Debye)
 q only:      -10.235      14.985       3.424
   full:      -10.189      15.002       3.499      46.946

           -------------------------------------------------
          | TOTAL ENERGY             -121.604536043989 Eh   |
          | GRADIENT NORM               0.000197705277 Eh/α |
          | HOMO-LUMO GAP               6.752445174936 eV   |
           -------------------------------------------------

 * finished run on 2024/12/20 at 07:18:47.715
