   * xtb version 6.7.1 (edcfbbe) compiled by 'conda@3ef47c1a292c' on 2024-11-25

   ID    Z sym.   atoms
    1    6 C      1-12, 14-19
    2    7 N      13
    3    1 H      20-51

          program call               : xtb C1292.xyz --opt --namespace C1292 --charge +1
          :  Hamiltonian                  GFN2-xTB          :
 * total energy  :   -57.4134103 Eh     change       -0.1420730E-09 Eh
 * total energy  :   -57.4166826 Eh     change       -0.3272290E-02 Eh
 * total energy  :   -57.4172113 Eh     change       -0.5287660E-03 Eh
 * total energy  :   -57.4172945 Eh     change       -0.8317570E-04 Eh
 * total energy  :   -57.4173841 Eh     change       -0.8960497E-04 Eh
 * total energy  :   -57.4174450 Eh     change       -0.6089401E-04 Eh
 * total energy  :   -57.4175133 Eh     change       -0.6830297E-04 Eh
 * total energy  :   -57.4175843 Eh     change       -0.7099971E-04 Eh
 * total energy  :   -57.4176258 Eh     change       -0.4144084E-04 Eh
 * total energy  :   -57.4176578 Eh     change       -0.3199804E-04 Eh
 * total energy  :   -57.4176775 Eh     change       -0.1971057E-04 Eh
 * total energy  :   -57.4177063 Eh     change       -0.2879171E-04 Eh
 * total energy  :   -57.4177144 Eh     change       -0.8139048E-05 Eh
 * total energy  :   -57.4177218 Eh     change       -0.7423717E-05 Eh
 * total energy  :   -57.4177292 Eh     change       -0.7361044E-05 Eh
 * total energy  :   -57.4177335 Eh     change       -0.4354451E-05 Eh
   *** GEOMETRY OPTIMIZATION CONVERGED AFTER 16 ITERATIONS ***

 final structure:
================
51
 xtb: 6.7.1 (edcfbbe)
C            1.12944729654913       -0.10263429604627        0.40146683517135
C            0.94201205483293        1.38853371123509        0.65498279289162
C            1.32348446801640        2.25846841609145       -0.54382562058965
C            0.50831980567369        2.00286077711317       -1.81314619151115
C           -1.00009035103511        2.21132795753858       -1.66685435851892
C           -1.42122551481019        3.62046412059468       -1.24466719929235
C           -0.96810487993806        4.74045832657126       -2.18380715697939
C           -1.42396265756726        4.58924198778817       -3.63646526888501
C           -2.93782693382750        4.47782795141371       -3.83140236945114
C           -3.74816945025038        5.66045491191407       -3.29410536463686
C           -3.39883389718482        7.01581612330407       -3.90788935517538
C           -3.71808553159334        7.12501862691407       -5.40629203898485
N           -5.14972645922431        7.05041516240681       -5.62985998472358
C           -5.73456524309358        5.87370035516275       -5.88938394105781
C           -7.09847007456604        5.76474343953941       -6.02038917798522
C           -7.91405934831562        6.89261506455171       -5.88129634967655
C           -7.26979444606528        8.10448632246684       -5.61275462234595
C           -5.90159742266931        8.14988818827485       -5.49024166598443
C           -9.38559781327592        6.79586383176657       -6.00361444261724
H            0.43894326151634       -0.46378587207649       -0.35663146414218
H            0.94975325018789       -0.66445775264197        1.31503882680581
H            2.14475735584026       -0.30727405157776        0.06897307950129
H           -0.09321200069327        1.58200344421433        0.94275117389285
H            1.57175222622856        1.68328592348766        1.49783502278622
H            1.23135578993300        3.30847389063200       -0.25733351075037
H            2.37547154574943        2.08017618371040       -0.78021424505476
H            0.89083476710005        2.65486835378033       -2.60179230313592
H            0.67693648858499        0.97597683322297       -2.14218373523283
H           -1.47404711541467        1.95879199833765       -2.61869528855558
H           -1.38646474559415        1.50906160314121       -0.92630779209731
H           -2.51022370142646        3.63945692134611       -1.15149403897726
H           -1.01645479268051        3.83041464885661       -0.25348378582205
H           -1.32585649704722        5.69219002112889       -1.78284233517138
H            0.12172033611859        4.78692775618351       -2.18060157120957
H           -1.03832917301934        5.43559733937861       -4.21075794881507
H           -0.96927693691261        3.69157506344972       -4.05741165302603
H           -3.13125317163860        4.33623731074210       -4.89873264064095
H           -3.29255967099223        3.57845816308608       -3.32728647047552
H           -4.81444656577764        5.45426653083813       -3.43466747963886
H           -3.58286731625044        5.73321941959996       -2.21935816936116
H           -3.93833051173861        7.80072931453765       -3.37291797309658
H           -2.33365610925232        7.20576823341833       -3.78433105782513
H           -3.35168808795011        8.07927332801712       -5.78938802241026
H           -3.22766635457751        6.31819458634866       -5.95116818733590
H           -5.09001696304721        5.01495023727275       -6.00125112174268
H           -7.53418335509611        4.80104469742741       -6.23237502152420
H           -7.84079526655787        9.01245823338103       -5.50013258703441
H           -5.38536994705890        9.07537642441071       -5.28190236831930
H           -9.66187813333656        6.19616302617285       -6.86885269430834
H           -9.79218705539418        6.29130513310710       -5.12597296218284
H           -9.84721515145581        7.77580207846610       -6.07907619474152

          :  Hamiltonian                  GFN2-xTB          :
         :: total energy             -57.417733531229 Eh    ::
         :: gradient norm              0.000312896118 Eh/a0 ::
         :: HOMO-LUMO gap              0.695105789513 eV    ::
         :: SCC energy               -58.325827700254 Eh    ::
         :: -> dispersion             -0.042767533255 Eh    ::
         :: repulsion energy           0.908094169025 Eh    ::

    * Orbital Energies and Occupations

         #    Occupation            Energy/Eh            Energy/eV
      -------------------------------------------------------------
         1        2.0000           -0.8682810             -23.6271
       ...           ...                  ...                  ...
        42        2.0000           -0.5464531             -14.8697
        43        2.0000           -0.5406954             -14.7131
        44        2.0000           -0.5331921             -14.5089
        45        2.0000           -0.5307898             -14.4435
        46        2.0000           -0.5194521             -14.1350
        47        2.0000           -0.5156950             -14.0328
        48        2.0000           -0.5081529             -13.8275
        49        2.0000           -0.4983357             -13.5604
        50        2.0000           -0.4943466             -13.4519
        51        2.0000           -0.4904436             -13.3456
        52        2.0000           -0.4754023             -12.9364
        53        2.0000           -0.4716310             -12.8337
        54        2.0000           -0.4693347             -12.7712 (HOMO)
        55        0.0000           -0.4437901             -12.0761 (LUMO)
        56                         -0.4161033             -11.3227
        57                         -0.2975949              -8.0980
        58                         -0.1596483              -4.3443
        59                         -0.0779746              -2.1218
        60                         -0.0591528              -1.6096
        61                         -0.0443838              -1.2077
        62                         -0.0327427              -0.8910
        63                         -0.0230287              -0.6266
        64                         -0.0179348              -0.4880
        65                         -0.0109377              -0.2976
       ...                                ...                  ...
       108                          0.4465472              12.1512
      -------------------------------------------------------------
                  HL-Gap            0.0255447 Eh            0.6951 eV

     #   Z          covCN         q      C6AA      α(0)
     1   6 C        3.751    -0.103    22.521     6.768
     2   6 C        3.799    -0.053    21.518     6.605
     3   6 C        3.800    -0.058    21.617     6.620
     4   6 C        3.800    -0.058    21.617     6.620
     5   6 C        3.800    -0.057    21.607     6.618
     6   6 C        3.800    -0.058    21.624     6.621
     7   6 C        3.800    -0.060    21.657     6.626
     8   6 C        3.800    -0.061    21.675     6.629
     9   6 C        3.800    -0.061    21.669     6.628
    10   6 C        3.800    -0.065    21.748     6.640
    11   6 C        3.801    -0.069    21.812     6.649
    12   6 C        3.758    -0.034    21.223     6.568
    13   7 N        2.750     0.100    19.521     6.562
    14   6 C        2.889     0.031    27.307     8.567
    15   6 C        2.921    -0.029    28.715     8.788
    16   6 C        2.969     0.070    26.421     8.431
    17   6 C        2.920    -0.027    28.676     8.782
    18   6 C        2.891     0.030    27.329     8.571
    19   6 C        3.758    -0.133    23.114     6.854
    20   1 H        0.925     0.033     2.542     2.493
    21   1 H        0.925     0.034     2.528     2.486
    22   1 H        0.925     0.036     2.504     2.475
    23   1 H        0.924     0.029     2.604     2.523
    24   1 H        0.924     0.030     2.587     2.515
    25   1 H        0.924     0.027     2.627     2.535
    26   1 H        0.924     0.032     2.557     2.501
    27   1 H        0.924     0.026     2.641     2.542
    28   1 H        0.924     0.036     2.508     2.477
    29   1 H        0.924     0.023     2.689     2.565
    30   1 H        0.924     0.037     2.492     2.468
    31   1 H        0.924     0.022     2.698     2.569
    32   1 H        0.924     0.039     2.456     2.451
    33   1 H        0.924     0.024     2.669     2.555
    34   1 H        0.924     0.043     2.412     2.429
    35   1 H        0.924     0.024     2.672     2.556
    36   1 H        0.924     0.046     2.366     2.406
    37   1 H        0.924     0.015     2.804     2.618
    38   1 H        0.924     0.051     2.312     2.378
    39   1 H        0.924     0.021     2.720     2.579
    40   1 H        0.925     0.065     2.140     2.288
    41   1 H        0.924     0.049     2.332     2.388
    42   1 H        0.925     0.082     1.957     2.188
    43   1 H        0.924     0.085     1.932     2.174
    44   1 H        0.925     0.093     1.849     2.127
    45   1 H        0.926     0.106     1.732     2.058
    46   1 H        0.926     0.099     1.792     2.093
    47   1 H        0.926     0.099     1.792     2.093
    48   1 H        0.926     0.103     1.761     2.075
    49   1 H        0.925     0.095     1.828     2.115
    50   1 H        0.924     0.104     1.752     2.070
    51   1 H        0.925     0.084     1.935     2.175

Wiberg/Mayer (AO) data.
largest (>0.10) Wiberg bond orders for each atom

     #   Z sym  total        # sym  WBO       # sym  WBO       # sym  WBO
 ---------------------------------------------------------------------------
     1   6 C    3.997 --     2 C    1.020    22 H    0.987    21 H    0.987
                            20 H    0.986
     2   6 C    3.998 --     1 C    1.020     3 C    1.008    24 H    0.978
                            23 H    0.976
     3   6 C    3.997 --     2 C    1.008     4 C    1.008    26 H    0.977
                            25 H    0.976
     4   6 C    3.997 --     5 C    1.008     3 C    1.008    27 H    0.975
                            28 H    0.975
     5   6 C    3.997 --     4 C    1.008     6 C    1.008    29 H    0.975
                            30 H    0.974
     6   6 C    3.997 --     5 C    1.008     7 C    1.007    31 H    0.976
                            32 H    0.974
     7   6 C    3.996 --     8 C    1.007     6 C    1.007    33 H    0.976
                            34 H    0.974
     8   6 C    3.995 --     7 C    1.007     9 C    1.007    35 H    0.975
                            36 H    0.973
     9   6 C    3.995 --     8 C    1.007    10 C    1.007    38 H    0.972
                            37 H    0.972
    10   6 C    3.993 --    11 C    1.009     9 C    1.007    39 H    0.973
                            40 H    0.967
    11   6 C    3.981 --    10 C    1.009    12 C    0.974    41 H    0.974
                            42 H    0.961
    12   6 C    3.934 --    11 C    0.974    13 N    0.965    43 H    0.963
                            44 H    0.960
    13   7 N    3.756 --    18 C    1.311    14 C    1.309    12 C    0.965
    14   6 C    3.959 --    15 C    1.489    13 N    1.309    45 H    0.952
    15   6 C    3.984 --    14 C    1.489    16 C    1.365    46 H    0.960
    16   6 C    3.970 --    15 C    1.365    17 C    1.363    19 C    1.063
    17   6 C    3.984 --    18 C    1.491    16 C    1.363    47 H    0.959
    18   6 C    3.960 --    17 C    1.491    13 N    1.311    48 H    0.955
    19   6 C    3.983 --    16 C    1.063    51 H    0.977    49 H    0.954
                            50 H    0.934
    20   1 H    0.999 --     1 C    0.986
    21   1 H    0.999 --     1 C    0.987
    22   1 H    0.999 --     1 C    0.987
    23   1 H    0.999 --     2 C    0.976
    24   1 H    0.999 --     2 C    0.978
    25   1 H    0.999 --     3 C    0.976
    26   1 H    0.999 --     3 C    0.977
    27   1 H    0.999 --     4 C    0.975
    28   1 H    0.999 --     4 C    0.975
    29   1 H    0.999 --     5 C    0.975
    30   1 H    0.999 --     5 C    0.974
    31   1 H    0.999 --     6 C    0.976
    32   1 H    0.998 --     6 C    0.974
    33   1 H    0.999 --     7 C    0.976
    34   1 H    0.998 --     7 C    0.974
    35   1 H    0.999 --     8 C    0.975
    36   1 H    0.998 --     8 C    0.973
    37   1 H    1.000 --     9 C    0.972
    38   1 H    0.997 --     9 C    0.972
    39   1 H    1.000 --    10 C    0.973
    40   1 H    0.995 --    10 C    0.967
    41   1 H    0.998 --    11 C    0.974
    42   1 H    0.991 --    11 C    0.961
    43   1 H    0.992 --    12 C    0.963
    44   1 H    0.991 --    12 C    0.960
    45   1 H    0.988 --    14 C    0.952
    46   1 H    0.990 --    15 C    0.960
    47   1 H    0.990 --    17 C    0.959
    48   1 H    0.989 --    18 C    0.955
    49   1 H    0.990 --    19 C    0.954
    50   1 H    0.988 --    19 C    0.934
    51   1 H    0.992 --    19 C    0.977
 ---------------------------------------------------------------------------

molecular dipole:
                 x           y           z       tot (Debye)
 q only:      -11.028      12.762     -10.141
   full:      -11.023      12.827     -10.216      50.222

           -------------------------------------------------
          | TOTAL ENERGY              -57.417733531229 Eh   |
          | GRADIENT NORM               0.000312896118 Eh/α |
          | HOMO-LUMO GAP               0.695105789513 eV   |
           -------------------------------------------------

 * finished run on 2024/12/20 at 07:18:33.116
