   * xtb version 6.7.1 (edcfbbe) compiled by 'conda@3ef47c1a292c' on 2024-11-25

   ID    Z sym.   atoms
    1    6 C      1-8, 10-12
    2    7 N      9
    3    1 H      13-24

          program call               : xtb C1299.xyz --opt --namespace C1299 --charge +1
          :  Hamiltonian                  GFN2-xTB          :
 * total energy  :   -32.2053861 Eh     change       -0.7120349E-10 Eh
 * total energy  :   -32.2091881 Eh     change       -0.3801962E-02 Eh
 * total energy  :   -32.2099732 Eh     change       -0.7850579E-03 Eh
 * total energy  :   -32.2100870 Eh     change       -0.1138105E-03 Eh
 * total energy  :   -32.2102314 Eh     change       -0.1444480E-03 Eh
 * total energy  :   -32.2103107 Eh     change       -0.7932355E-04 Eh
 * total energy  :   -32.2105063 Eh     change       -0.1955935E-03 Eh
 * total energy  :   -32.2106374 Eh     change       -0.1310735E-03 Eh
 * total energy  :   -32.2105985 Eh     change        0.3889295E-04 Eh
 * total energy  :   -32.2107417 Eh     change       -0.1432227E-03 Eh
 * total energy  :   -32.2107814 Eh     change       -0.3964712E-04 Eh
 * total energy  :   -32.2107989 Eh     change       -0.1749322E-04 Eh
 * total energy  :   -32.2108204 Eh     change       -0.2154581E-04 Eh
 * total energy  :   -32.2108151 Eh     change        0.5284660E-05 Eh
 * total energy  :   -32.2108263 Eh     change       -0.1113654E-04 Eh
 * total energy  :   -32.2108301 Eh     change       -0.3791969E-05 Eh
 * total energy  :   -32.2108327 Eh     change       -0.2582496E-05 Eh
   *** GEOMETRY OPTIMIZATION CONVERGED AFTER 17 ITERATIONS ***

 final structure:
================
24
 xtb: 6.7.1 (edcfbbe)
C            0.79209233590801        0.04293132614540        0.17559155291286
C            0.45499673997477        0.33904266952260       -1.23803895069612
C            0.08186631799372       -0.65213272034071       -2.11265445106238
C           -0.23879609343321       -0.38559922133037       -3.45477335905065
C           -0.62320994666981       -1.40103605432437       -4.35673987810077
C           -0.92712282924554       -1.10306225261184       -5.65482924729955
C           -0.85027471255417        0.23648270821253       -6.08047915297009
C           -0.47857130562547        1.20288874989153       -5.19867472441744
N           -0.17484542172736        0.90958821822121       -3.90109110424991
C            0.19319568952521        1.90108004474625       -3.04288806709195
C            0.51045296522224        1.67524052610634       -1.73336673676663
C            0.90396840840371        2.80106274008135       -0.84522299036434
H            0.68855143333839       -1.01607428561924        0.39122091517346
H            0.14310426463331        0.60402724801733        0.84686658673129
H            1.81559852452950        0.34696943114056        0.39254275211114
H            0.02622222048484       -1.67694830768839       -1.78032626210989
H           -0.66858295224339       -2.41330192333014       -3.98866308674847
H           -1.22149716605049       -1.87423129531118       -6.34770147070460
H           -1.08344477183282        0.50198271669261       -7.09837296102220
H           -0.40669612880819        2.24180606036493       -5.48210797825256
H            0.22254030633440        2.89755516182930       -3.45817736643984
H            0.90153971814004        3.74628052208750       -1.37983970642339
H            0.21804883344946        2.87473904989532       -0.00235916934029
H            1.89918357025280        2.63152888760152       -0.43748514381778

          :  Hamiltonian                  GFN2-xTB          :
         :: total energy             -32.210832656764 Eh    ::
         :: gradient norm              0.000404438480 Eh/a0 ::
         :: HOMO-LUMO gap              3.230600383032 eV    ::
         :: SCC energy               -32.796054722513 Eh    ::
         :: -> dispersion             -0.020694325953 Eh    ::
         :: repulsion energy           0.585222065749 Eh    ::

    * Orbital Energies and Occupations

         #    Occupation            Energy/Eh            Energy/eV
      -------------------------------------------------------------
         1        2.0000           -0.8637796             -23.5046
       ...           ...                  ...                  ...
        18        2.0000           -0.6513509             -17.7242
        19        2.0000           -0.6487239             -17.6527
        20        2.0000           -0.6296470             -17.1336
        21        2.0000           -0.6228862             -16.9496
        22        2.0000           -0.6188297             -16.8392
        23        2.0000           -0.6157574             -16.7556
        24        2.0000           -0.6068846             -16.5142
        25        2.0000           -0.6056194             -16.4797
        26        2.0000           -0.6027567             -16.4018
        27        2.0000           -0.5903130             -16.0632
        28        2.0000           -0.5880246             -16.0010
        29        2.0000           -0.5713622             -15.5476
        30        2.0000           -0.5547296             -15.0950 (HOMO)
        31                         -0.4360073             -11.8644 (LUMO)
        32                         -0.4306483             -11.7185
        33                         -0.3797152             -10.3326
        34                         -0.3185005              -8.6668
        35                         -0.2561363              -6.9698
        36                         -0.1368954              -3.7251
        37                         -0.0712530              -1.9389
        38                         -0.0409276              -1.1137
        39                         -0.0338942              -0.9223
        40                         -0.0156645              -0.4263
        41                         -0.0101266              -0.2756
       ...                                ...                  ...
        60                          0.5050051              13.7419
      -------------------------------------------------------------
                  HL-Gap            0.1187224 Eh            3.2306 eV

     #   Z          covCN         q      C6AA      α(0)
     1   6 C        3.759    -0.129    23.029     6.842
     2   6 C        2.967     0.048    26.916     8.510
     3   6 C        2.922    -0.043    29.076     8.843
     4   6 C        2.945     0.074    26.354     8.420
     5   6 C        2.918    -0.024    28.602     8.770
     6   6 C        2.918    -0.001    28.042     8.684
     7   6 C        2.914    -0.014    28.358     8.732
     8   6 C        2.885     0.016    27.653     8.621
     9   7 N        2.758     0.099    19.540     6.565
    10   6 C        2.891    -0.003    28.089     8.689
    11   6 C        2.964     0.035    27.208     8.556
    12   6 C        3.760    -0.129    23.029     6.841
    13   1 H        0.925     0.076     2.016     2.221
    14   1 H        0.925     0.090     1.875     2.141
    15   1 H        0.925     0.091     1.873     2.140
    16   1 H        0.926     0.089     1.886     2.147
    17   1 H        0.926     0.093     1.849     2.127
    18   1 H        0.926     0.095     1.836     2.119
    19   1 H        0.926     0.099     1.797     2.096
    20   1 H        0.926     0.094     1.840     2.121
    21   1 H        0.926     0.090     1.881     2.144
    22   1 H        0.925     0.073     2.054     2.241
    23   1 H        0.925     0.090     1.875     2.141
    24   1 H        0.925     0.090     1.874     2.141

Wiberg/Mayer (AO) data.
largest (>0.10) Wiberg bond orders for each atom

     #   Z sym  total        # sym  WBO       # sym  WBO       # sym  WBO
 ---------------------------------------------------------------------------
     1   6 C    3.984 --     2 C    1.056    13 H    0.980    14 H    0.948
                            15 H    0.947
     2   6 C    3.980 --     3 C    1.505    11 C    1.226     1 C    1.056
     3   6 C    3.986 --     2 C    1.505     4 C    1.297    16 H    0.958
     4   6 C    3.963 --     3 C    1.297     5 C    1.276     9 N    1.177
     5   6 C    3.981 --     6 C    1.560     4 C    1.276    17 H    0.960
                             8 C    0.109
     6   6 C    3.975 --     5 C    1.560     7 C    1.298    18 H    0.963
     7   6 C    3.979 --     8 C    1.582     6 C    1.298    19 H    0.961
     8   6 C    3.953 --     7 C    1.582     9 N    1.197    20 H    0.956
                             5 C    0.109
     9   7 N    3.759 --    10 C    1.199     8 C    1.197     4 C    1.177
    10   6 C    3.953 --    11 C    1.538     9 N    1.199    21 H    0.955
    11   6 C    3.984 --    10 C    1.538     2 C    1.226    12 C    1.047
    12   6 C    3.984 --    11 C    1.047    22 H    0.981    24 H    0.952
                            23 H    0.952
    13   1 H    0.994 --     1 C    0.980
    14   1 H    0.988 --     1 C    0.948
    15   1 H    0.988 --     1 C    0.947
    16   1 H    0.991 --     3 C    0.958
    17   1 H    0.991 --     5 C    0.960
    18   1 H    0.991 --     6 C    0.963
    19   1 H    0.990 --     7 C    0.961
    20   1 H    0.991 --     8 C    0.956
    21   1 H    0.991 --    10 C    0.955
    22   1 H    0.994 --    12 C    0.981
    23   1 H    0.988 --    12 C    0.952
    24   1 H    0.989 --    12 C    0.952
 ---------------------------------------------------------------------------

molecular dipole:
                 x           y           z       tot (Debye)
 q only:       -0.022       1.118      -5.897
   full:       -0.041       1.170      -5.997      15.530

           -------------------------------------------------
          | TOTAL ENERGY              -32.210832656764 Eh   |
          | GRADIENT NORM               0.000404438480 Eh/α |
          | HOMO-LUMO GAP               3.230600383032 eV   |
           -------------------------------------------------

 * finished run on 2024/12/20 at 07:18:51.899
