   * xtb version 6.7.1 (edcfbbe) compiled by 'conda@3ef47c1a292c' on 2024-11-25

   ID    Z sym.   atoms
    1    6 C      1-5, 7-9
    2    7 N      6
    3    1 H      10-21

          program call               : xtb C1293.xyz --opt --namespace C1293 --charge +1
          :  Hamiltonian                  GFN2-xTB          :
 * total energy  :   -25.7865696 Eh     change       -0.2602363E-09 Eh
 * total energy  :   -25.7882634 Eh     change       -0.1693795E-02 Eh
 * total energy  :   -25.7884321 Eh     change       -0.1686807E-03 Eh
 * total energy  :   -25.7884423 Eh     change       -0.1023871E-04 Eh
 * total energy  :   -25.7884443 Eh     change       -0.1985037E-05 Eh
   *** GEOMETRY OPTIMIZATION CONVERGED AFTER 5 ITERATIONS ***

 final structure:
================
21
 xtb: 6.7.1 (edcfbbe)
C            0.93663515286435        0.06264322554755       -0.05552294956729
C            0.46918418478066       -1.33291732240616        0.10435395444551
C           -0.83784061964561       -1.60647388723062        0.52094010546861
C           -1.27705076613489       -2.90658358506624        0.65415685426427
C           -2.64298063776396       -3.28410648094784        1.09230707773931
N           -0.41442373813685       -3.90499047420270        0.37283240591949
C            0.85619389860085       -3.71139059011459       -0.03478424399308
C            1.30881266217068       -2.41537655373188       -0.17264689323817
C            1.68092084053936       -4.91428589902579       -0.30447888605248
H            0.52430466390317        0.70506288681247        0.71905083742242
H            0.58807764886014        0.45118062508990       -1.01434676737806
H            2.02088349842358        0.12541819585068       -0.04414069637152
H           -1.51161398327503       -0.79406693085383        0.74224898780022
H           -3.13610604194289       -3.88933615633401        0.33159509817771
H           -2.60167252799224       -3.87440139476294        2.00788927415093
H           -3.24942328837221       -2.40345718607206        1.27834185358954
H           -0.74222636916684       -4.86252943030975        0.47651856303255
H            2.32244131075277       -2.24090211639814       -0.49655712576621
H            1.76540652809642       -5.52946734421511        0.59151892991113
H            1.22349782558513       -5.52584891119694       -1.08233904349609
H            2.67954975785337       -4.63748067043201       -0.62705733605878

          :  Hamiltonian                  GFN2-xTB          :
         :: total energy             -25.788444304832 Eh    ::
         :: gradient norm              0.000812391316 Eh/a0 ::
         :: HOMO-LUMO gap              3.760716608985 eV    ::
         :: SCC energy               -26.235819486293 Eh    ::
         :: -> dispersion             -0.014082750487 Eh    ::
         :: repulsion energy           0.447375181461 Eh    ::

    * Orbital Energies and Occupations

         #    Occupation            Energy/Eh            Energy/eV
      -------------------------------------------------------------
         1        2.0000           -0.8674342             -23.6041
       ...           ...                  ...                  ...
        12        2.0000           -0.6673031             -18.1582
        13        2.0000           -0.6612876             -17.9946
        14        2.0000           -0.6567442             -17.8709
        15        2.0000           -0.6531139             -17.7721
        16        2.0000           -0.6463186             -17.5872
        17        2.0000           -0.6322960             -17.2057
        18        2.0000           -0.6277986             -17.0833
        19        2.0000           -0.6230692             -16.9546
        20        2.0000           -0.6186513             -16.8344
        21        2.0000           -0.6060433             -16.4913
        22        2.0000           -0.5971606             -16.2496
        23        2.0000           -0.5871721             -15.9778
        24        2.0000           -0.5788544             -15.7514 (HOMO)
        25                         -0.4406506             -11.9907 (LUMO)
        26                         -0.4076596             -11.0930
        27                         -0.2941047              -8.0030
        28                         -0.1511271              -4.1124
        29                         -0.0815712              -2.2197
        30                         -0.0469889              -1.2786
        31                         -0.0437198              -1.1897
        32                         -0.0109806              -0.2988
        33                          0.0028243               0.0769
        34                          0.0310464               0.8448
        35                          0.0378531               1.0300
       ...                                ...                  ...
        48                          0.4437429              12.0749
      -------------------------------------------------------------
                  HL-Gap            0.1382038 Eh            3.7607 eV

     #   Z          covCN         q      C6AA      α(0)
     1   6 C        3.759    -0.133    23.108     6.853
     2   6 C        2.966     0.071    26.418     8.431
     3   6 C        2.924    -0.045    29.121     8.850
     4   6 C        2.903     0.099    25.800     8.328
     5   6 C        3.759    -0.142    23.292     6.880
     6   7 N        2.717    -0.035    21.917     6.953
     7   6 C        2.903     0.100    25.788     8.327
     8   6 C        2.924    -0.045    29.109     8.848
     9   6 C        3.759    -0.142    23.292     6.880
    10   1 H        0.925     0.091     1.871     2.139
    11   1 H        0.924     0.104     1.748     2.068
    12   1 H        0.925     0.085     1.929     2.172
    13   1 H        0.926     0.096     1.824     2.112
    14   1 H        0.925     0.096     1.820     2.110
    15   1 H        0.925     0.097     1.814     2.106
    16   1 H        0.925     0.096     1.818     2.109
    17   1 H        0.860     0.222     1.002     1.568
    18   1 H        0.926     0.096     1.826     2.113
    19   1 H        0.925     0.097     1.814     2.106
    20   1 H        0.925     0.097     1.816     2.107
    21   1 H        0.925     0.097     1.817     2.108

Wiberg/Mayer (AO) data.
largest (>0.10) Wiberg bond orders for each atom

     #   Z sym  total        # sym  WBO       # sym  WBO       # sym  WBO
 ---------------------------------------------------------------------------
     1   6 C    3.984 --     2 C    1.062    12 H    0.974    10 H    0.962
                            11 H    0.931
     2   6 C    3.970 --     8 C    1.370     3 C    1.366     1 C    1.062
     3   6 C    3.985 --     4 C    1.454     2 C    1.366    13 H    0.959
     4   6 C    3.956 --     3 C    1.454     6 N    1.269     5 C    1.047
     5   6 C    3.979 --     4 C    1.047    16 H    0.976    14 H    0.951
                            15 H    0.950
     6   7 N    3.662 --     7 C    1.272     4 C    1.269    17 H    0.915
     7   6 C    3.956 --     8 C    1.449     6 N    1.272     9 C    1.047
     8   6 C    3.985 --     7 C    1.449     2 C    1.370    18 H    0.959
     9   6 C    3.979 --     7 C    1.047    21 H    0.976    20 H    0.950
                            19 H    0.950
    10   1 H    0.991 --     1 C    0.962
    11   1 H    0.988 --     1 C    0.931
    12   1 H    0.992 --     1 C    0.974
    13   1 H    0.990 --     3 C    0.959
    14   1 H    0.990 --     5 C    0.951
    15   1 H    0.990 --     5 C    0.950
    16   1 H    0.990 --     5 C    0.976
    17   1 H    0.951 --     6 N    0.915
    18   1 H    0.990 --     8 C    0.959
    19   1 H    0.990 --     9 C    0.950
    20   1 H    0.990 --     9 C    0.950
    21   1 H    0.990 --     9 C    0.976
 ---------------------------------------------------------------------------

molecular dipole:
                 x           y           z       tot (Debye)
 q only:       -0.241      -5.715       0.496
   full:       -0.314      -5.901       0.507      15.074

           -------------------------------------------------
          | TOTAL ENERGY              -25.788444304832 Eh   |
          | GRADIENT NORM               0.000812391316 Eh/α |
          | HOMO-LUMO GAP               3.760716608985 eV   |
           -------------------------------------------------

 * finished run on 2024/12/20 at 07:18:33.295
