   * xtb version 6.7.1 (edcfbbe) compiled by 'conda@3ef47c1a292c' on 2024-11-25

   ID    Z sym.   atoms
    1    6 C      1, 2, 4, 5, 7-9
    2    7 N      3, 6
    3    9 F      10-13
    4    1 H      14-22

          program call               : xtb C1297.xyz --opt --namespace C1297 --charge +1
          :  Hamiltonian                  GFN2-xTB          :
 * total energy  :   -43.9411777 Eh     change       -0.1694787E-09 Eh
 * total energy  :   -43.9453247 Eh     change       -0.4146989E-02 Eh
 * total energy  :   -43.9465357 Eh     change       -0.1210974E-02 Eh
 * total energy  :   -43.9467796 Eh     change       -0.2439075E-03 Eh
 * total energy  :   -43.9470683 Eh     change       -0.2886763E-03 Eh
 * total energy  :   -43.9472244 Eh     change       -0.1560958E-03 Eh
 * total energy  :   -43.9474561 Eh     change       -0.2317147E-03 Eh
 * total energy  :   -43.9477158 Eh     change       -0.2597631E-03 Eh
 * total energy  :   -43.9479371 Eh     change       -0.2212485E-03 Eh
 * total energy  :   -43.9481093 Eh     change       -0.1722325E-03 Eh
 * total energy  :   -43.9540273 Eh     change       -0.2961156E-04 Eh
 * total energy  :   -43.9540487 Eh     change       -0.2134539E-04 Eh
 * total energy  :   -43.9540464 Eh     change        0.2223422E-05 Eh
 * total energy  :   -43.9540734 Eh     change       -0.2697254E-04 Eh
 * total energy  :   -43.9540818 Eh     change       -0.8433865E-05 Eh
 * total energy  :   -43.9540877 Eh     change       -0.5851959E-05 Eh
 * total energy  :   -43.9540933 Eh     change       -0.5636070E-05 Eh
 * total energy  :   -43.9540987 Eh     change       -0.5387130E-05 Eh
 * total energy  :   -43.9541022 Eh     change       -0.3485839E-05 Eh
   *** GEOMETRY OPTIMIZATION CONVERGED AFTER 72 ITERATIONS ***

 final structure:
================
22
 xtb: 6.7.1 (edcfbbe)
C            1.04469827506042        0.34629363356808       -0.11340150845644
C            0.12930466648211        0.37385385675332       -1.33372990504902
N            0.67000847518840       -0.45596592796573       -2.39063461782991
C            1.68107839377850       -0.09841770774009       -3.23405261987724
C            1.95063791021108       -1.16120411637020       -4.03686600435117
N            1.08711770626691       -2.15645389777406       -3.66277756941951
C            0.32480344537866       -1.70284884079415       -2.65588440282975
C            1.05296497669830       -3.50265055602277       -4.19510735896971
C            1.89198388823327       -4.46587862887332       -3.29838822474868
F            3.14528036033704       -3.99620780164709       -3.23991476795682
F            1.38098790536391       -4.40698708848540       -2.05641972683058
F           -0.21953119885051       -3.91848649839377       -4.23694154137827
F            1.52791553319816       -3.49228606297467       -5.44058888598374
H            1.13410332528332       -0.66182964402733        0.28301816057168
H            0.62478412372381        0.98151570582129        0.66044068789547
H            2.03618097559986        0.71773184569204       -0.35829165604009
H           -0.86190055562918       -0.00013509357830       -1.07291128720849
H            0.03666224978750        1.39370153013256       -1.71277469177813
H            2.13461362504386        0.87271084222865       -3.21570574437540
H            2.66398196185501       -1.28679412244592       -4.82730392221262
H           -0.44253623891898       -2.27238028568429       -2.16433064946027
H            1.88381019590681       -5.50130114141930       -3.66738376371142

          :  Hamiltonian                  GFN2-xTB          :
         :: total energy             -43.954102203014 Eh    ::
         :: gradient norm              0.000419024986 Eh/a0 ::
         :: HOMO-LUMO gap              4.307934828766 eV    ::
         :: SCC energy               -44.340655278229 Eh    ::
         :: -> dispersion             -0.016574956608 Eh    ::
         :: repulsion energy           0.386553075215 Eh    ::

    * Orbital Energies and Occupations

         #    Occupation            Energy/Eh            Energy/eV
      -------------------------------------------------------------
         1        2.0000           -1.0468802             -28.4871
       ...           ...                  ...                  ...
        25        2.0000           -0.7030290             -19.1304
        26        2.0000           -0.6998841             -19.0448
        27        2.0000           -0.6942330             -18.8910
        28        2.0000           -0.6888343             -18.7441
        29        2.0000           -0.6861256             -18.6704
        30        2.0000           -0.6838128             -18.6075
        31        2.0000           -0.6729381             -18.3116
        32        2.0000           -0.6713317             -18.2679
        33        2.0000           -0.6439285             -17.5222
        34        2.0000           -0.6293674             -17.1260
        35        2.0000           -0.6206702             -16.8893
        36        2.0000           -0.6167831             -16.7835
        37        2.0000           -0.6062716             -16.4975 (HOMO)
        38                         -0.4479579             -12.1896 (LUMO)
        39                         -0.4036634             -10.9842
        40                         -0.2403889              -6.5413
        41                         -0.1956315              -5.3234
        42                         -0.1714457              -4.6653
        43                         -0.1532087              -4.1690
        44                         -0.1118866              -3.0446
        45                         -0.0866293              -2.3573
        46                         -0.0758482              -2.0639
        47                         -0.0632714              -1.7217
        48                         -0.0556546              -1.5144
       ...                                ...                  ...
        61                          0.4340328              11.8106
      -------------------------------------------------------------
                  HL-Gap            0.1583137 Eh            4.3079 eV

     #   Z          covCN         q      C6AA      α(0)
     1   6 C        3.753    -0.128    23.025     6.843
     2   6 C        3.741    -0.029    21.163     6.563
     3   7 N        2.869     0.095    19.596     6.575
     4   6 C        3.077     0.003    27.881     8.657
     5   6 C        3.035     0.013    27.691     8.631
     6   7 N        2.886     0.021    20.878     6.786
     7   6 C        3.067     0.064    26.491     8.440
     8   6 C        3.459     0.385    16.755     6.168
     9   6 C        3.466     0.288    17.977     6.371
    10   9 F        0.788    -0.179    11.018     3.921
    11   9 F        0.788    -0.186    11.095     3.935
    12   9 F        0.790    -0.170    10.929     3.905
    13   9 F        0.790    -0.160    10.835     3.888
    14   1 H        0.925     0.071     2.075     2.253
    15   1 H        0.925     0.095     1.832     2.117
    16   1 H        0.925     0.073     2.054     2.241
    17   1 H        0.924     0.097     1.815     2.107
    18   1 H        0.924     0.105     1.743     2.065
    19   1 H        0.926     0.132     1.520     1.928
    20   1 H        0.926     0.136     1.487     1.907
    21   1 H        0.926     0.140     1.459     1.889
    22   1 H        0.923     0.134     1.502     1.917

Wiberg/Mayer (AO) data.
largest (>0.10) Wiberg bond orders for each atom

     #   Z sym  total        # sym  WBO       # sym  WBO       # sym  WBO
 ---------------------------------------------------------------------------
     1   6 C    3.975 --     2 C    0.996    14 H    0.983    16 H    0.983
                            15 H    0.973
     2   6 C    3.924 --     1 C    0.996    17 H    0.965    18 H    0.959
                             3 N    0.957
     3   7 N    3.737 --     7 C    1.414     4 C    1.219     2 C    0.957
     4   6 C    3.946 --     5 C    1.612     3 N    1.219    19 H    0.955
     5   6 C    3.932 --     4 C    1.612     6 N    1.190    20 H    0.955
                             7 C    0.105
     6   7 N    3.664 --     7 C    1.303     5 C    1.190     8 C    0.952
     7   6 C    3.938 --     3 N    1.414     6 N    1.303    21 H    0.948
                             5 C    0.105
     8   6 C    3.889 --    13 F    0.984    12 F    0.973     6 N    0.952
                             9 C    0.902
     9   6 C    3.864 --    10 F    0.982    11 F    0.974    22 H    0.931
                             8 C    0.902
    10   9 F    1.085 --     9 C    0.982
    11   9 F    1.077 --     9 C    0.974
    12   9 F    1.099 --     8 C    0.973
    13   9 F    1.110 --     8 C    0.984
    14   1 H    0.995 --     1 C    0.983
    15   1 H    0.990 --     1 C    0.973
    16   1 H    0.995 --     1 C    0.983
    17   1 H    0.990 --     2 C    0.965
    18   1 H    0.989 --     2 C    0.959
    19   1 H    0.982 --     4 C    0.955
    20   1 H    0.981 --     5 C    0.955
    21   1 H    0.980 --     7 C    0.948
    22   1 H    0.981 --     9 C    0.931
 ---------------------------------------------------------------------------

molecular dipole:
                 x           y           z       tot (Debye)
 q only:        1.829      -1.922      -4.913
   full:        1.749      -2.138      -5.042      14.613

           -------------------------------------------------
          | TOTAL ENERGY              -43.954102203014 Eh   |
          | GRADIENT NORM               0.000419024986 Eh/α |
          | HOMO-LUMO GAP               4.307934828766 eV   |
           -------------------------------------------------

 * finished run on 2024/12/20 at 07:18:50.792
