   * xtb version 6.7.1 (edcfbbe) compiled by 'conda@3ef47c1a292c' on 2024-11-25

   ID    Z sym.   atoms
    1    7 N      1, 7
    2    6 C      2-6, 8-11
    3    1 H      12-32

          program call               : xtb C1298.xyz --opt --namespace C1298 --charge +1
          :  Hamiltonian                  GFN2-xTB          :
 * total energy  :   -35.4408541 Eh     change       -0.4155964E-10 Eh
 * total energy  :   -35.4455275 Eh     change       -0.4673388E-02 Eh
 * total energy  :   -35.4468501 Eh     change       -0.1322594E-02 Eh
 * total energy  :   -35.4472628 Eh     change       -0.4127615E-03 Eh
 * total energy  :   -35.4473876 Eh     change       -0.1247432E-03 Eh
 * total energy  :   -35.4474236 Eh     change       -0.3603545E-04 Eh
 * total energy  :   -35.4474496 Eh     change       -0.2597969E-04 Eh
 * total energy  :   -35.4474643 Eh     change       -0.1474059E-04 Eh
 * total energy  :   -35.4474787 Eh     change       -0.1438663E-04 Eh
 * total energy  :   -35.4474870 Eh     change       -0.8248641E-05 Eh
 * total energy  :   -35.4474896 Eh     change       -0.2662587E-05 Eh
   *** GEOMETRY OPTIMIZATION CONVERGED AFTER 11 ITERATIONS ***

 final structure:
================
32
 xtb: 6.7.1 (edcfbbe)
N            1.32741800198528        0.00478159737375       -0.17532818642836
C            0.64700782089191       -0.96689732729579       -1.02063719330624
C           -0.87405119764184       -0.89040571182729       -0.83078634176781
C           -1.36557815460118       -1.33827128523320        0.54656806110741
C           -1.06334925264936       -0.32720431680475        1.64323056953966
C           -2.86982048246240       -1.60968675297877        0.50289783222873
N           -0.72446270719876       -2.67139014388249        0.87654189054446
C            0.75455702007337       -2.92014600478973        0.65805054151816
C            1.13728958276971       -2.39087241876752       -0.72495472833998
C            0.92269068615738       -4.43938910606153        0.70216080444308
C            1.56264760961872       -2.28669401889803        1.78143156432744
H            2.32791486111587       -0.03029970351147       -0.34295989961913
H            1.02263557499712        0.94365872297660       -0.41185756740864
H            0.84108624231250       -0.78228346152781       -2.09183377208847
H           -1.20532280204839        0.13490196050635       -0.99254786519972
H           -1.34021960297338       -1.50880788400916       -1.60050442218958
H           -1.71245225283409        0.53477270428015        1.51904384940158
H           -1.25953750337569       -0.74511525860888        2.62822959231862
H           -0.03832927869251        0.02000072174799        1.58859258621493
H           -3.12376482974649       -2.37485348104468       -0.22895426335004
H           -3.24366547772464       -1.91618948250766        1.47752850916866
H           -3.39743592084173       -0.70366497690549        0.21993760007200
H           -1.21839852947669       -3.37305752809543        0.31367372842282
H           -0.92603540640041       -2.87211291457035        1.86206206083114
H            0.72944279193710       -3.05263113445543       -1.49172537154535
H            2.22291833589902       -2.42250091324322       -0.81198951631793
H            1.95786498913515       -4.69933248659516        0.50174603294937
H            0.66887200125553       -4.83592121022999        1.68295461257851
H            0.31188546666435       -4.93792831047566       -0.04880676098778
H            1.60876589495426       -1.20920573936290        1.67559484438605
H            1.15185448800430       -2.54477208596646        2.75514019773968
H            2.57931203089612       -2.66729204923585        1.74462101075726

          :  Hamiltonian                  GFN2-xTB          :
         :: total energy             -35.447489642008 Eh    ::
         :: gradient norm              0.000392082871 Eh/a0 ::
         :: HOMO-LUMO gap              7.033294301159 eV    ::
         :: SCC energy               -35.940193202461 Eh    ::
         :: -> dispersion             -0.026255917645 Eh    ::
         :: repulsion energy           0.492703560453 Eh    ::

    * Orbital Energies and Occupations

         #    Occupation            Energy/Eh            Energy/eV
      -------------------------------------------------------------
         1        2.0000           -0.8492282             -23.1087
       ...           ...                  ...                  ...
        21        2.0000           -0.6259060             -17.0318
        22        2.0000           -0.6209275             -16.8963
        23        2.0000           -0.6087237             -16.5642
        24        2.0000           -0.6045281             -16.4500
        25        2.0000           -0.6043961             -16.4465
        26        2.0000           -0.6015370             -16.3687
        27        2.0000           -0.5991705             -16.3043
        28        2.0000           -0.5907857             -16.0761
        29        2.0000           -0.5870368             -15.9741
        30        2.0000           -0.5844973             -15.9050
        31        2.0000           -0.5827646             -15.8578
        32        2.0000           -0.5689327             -15.4814
        33        2.0000           -0.5000942             -13.6083 (HOMO)
        34                         -0.2416254              -6.5750 (LUMO)
        35                         -0.1501365              -4.0854
        36                         -0.1426226              -3.8810
        37                         -0.1118202              -3.0428
        38                         -0.0930238              -2.5313
        39                         -0.0905091              -2.4629
        40                         -0.0740856              -2.0160
        41                         -0.0555141              -1.5106
        42                         -0.0507316              -1.3805
        43                         -0.0302062              -0.8220
        44                         -0.0189482              -0.5156
       ...                                ...                  ...
        65                          0.1927898               5.2461
      -------------------------------------------------------------
                  HL-Gap            0.2584688 Eh            7.0333 eV

     #   Z          covCN         q      C6AA      α(0)
     1   7 N        2.631    -0.349    28.987     7.996
     2   6 C        3.780     0.057    19.647     6.315
     3   6 C        3.811    -0.088    22.163     6.701
     4   6 C        3.828     0.078    19.270     6.246
     5   6 C        3.758    -0.148    23.401     6.897
     6   6 C        3.762    -0.142    23.281     6.878
     7   7 N        3.538    -0.079    22.760     7.086
     8   6 C        3.828     0.078    19.270     6.246
     9   6 C        3.811    -0.088    22.163     6.701
    10   6 C        3.762    -0.142    23.281     6.878
    11   6 C        3.758    -0.148    23.401     6.897
    12   1 H        0.860     0.155     1.365     1.830
    13   1 H        0.860     0.155     1.365     1.830
    14   1 H        0.923     0.032     2.554     2.499
    15   1 H        0.925     0.079     1.988     2.205
    16   1 H        0.924     0.058     2.224     2.332
    17   1 H        0.925     0.080     1.979     2.200
    18   1 H        0.925     0.056     2.242     2.341
    19   1 H        0.925     0.098     1.804     2.101
    20   1 H        0.925     0.054     2.269     2.355
    21   1 H        0.925     0.063     2.159     2.298
    22   1 H        0.925     0.086     1.915     2.164
    23   1 H        0.859     0.238     0.931     1.511
    24   1 H        0.859     0.238     0.932     1.513
    25   1 H        0.924     0.058     2.224     2.332
    26   1 H        0.925     0.079     1.988     2.205
    27   1 H        0.925     0.086     1.915     2.164
    28   1 H        0.925     0.063     2.159     2.298
    29   1 H        0.925     0.054     2.269     2.355
    30   1 H        0.925     0.098     1.804     2.101
    31   1 H        0.925     0.056     2.242     2.341
    32   1 H        0.925     0.080     1.979     2.200

Wiberg/Mayer (AO) data.
largest (>0.10) Wiberg bond orders for each atom

     #   Z sym  total        # sym  WBO       # sym  WBO       # sym  WBO
 ---------------------------------------------------------------------------
     1   7 N    3.020 --     2 C    1.018    13 H    0.958    12 H    0.958
     2   6 C    3.988 --     1 N    1.018     9 C    0.990     3 C    0.990
                            14 H    0.957
     3   6 C    3.989 --     2 C    0.990     4 C    0.988    16 H    0.971
                            15 H    0.966
     4   6 C    3.919 --     5 C    1.004     6 C    0.998     3 C    0.988
                             7 N    0.885
     5   6 C    3.978 --     4 C    1.004    18 H    0.979    17 H    0.975
                            19 H    0.963
     6   6 C    3.984 --     4 C    0.998    21 H    0.981    20 H    0.980
                            22 H    0.975
     7   7 N    3.701 --    24 H    0.911    23 H    0.910     8 C    0.885
                             4 C    0.885
     8   6 C    3.919 --    11 C    1.004    10 C    0.998     9 C    0.988
                             7 N    0.885
     9   6 C    3.989 --     2 C    0.990     8 C    0.988    25 H    0.971
                            26 H    0.966
    10   6 C    3.984 --     8 C    0.998    28 H    0.981    29 H    0.980
                            27 H    0.975
    11   6 C    3.978 --     8 C    1.004    31 H    0.979    32 H    0.975
                            30 H    0.963
    12   1 H    0.976 --     1 N    0.958
    13   1 H    0.976 --     1 N    0.958
    14   1 H    0.998 --     2 C    0.957
    15   1 H    0.993 --     3 C    0.966
    16   1 H    0.997 --     3 C    0.971
    17   1 H    0.993 --     5 C    0.975
    18   1 H    0.997 --     5 C    0.979
    19   1 H    0.990 --     5 C    0.963
    20   1 H    0.997 --     6 C    0.980
    21   1 H    0.996 --     6 C    0.981
    22   1 H    0.992 --     6 C    0.975
    23   1 H    0.943 --     7 N    0.910
    24   1 H    0.943 --     7 N    0.911
    25   1 H    0.997 --     9 C    0.971
    26   1 H    0.993 --     9 C    0.966
    27   1 H    0.992 --    10 C    0.975
    28   1 H    0.996 --    10 C    0.981
    29   1 H    0.997 --    10 C    0.980
    30   1 H    0.990 --    11 C    0.963
    31   1 H    0.997 --    11 C    0.979
    32   1 H    0.993 --    11 C    0.975
 ---------------------------------------------------------------------------

molecular dipole:
                 x           y           z       tot (Debye)
 q only:       -0.713      -4.202       1.191
   full:       -0.805      -4.345       0.912      11.469

           -------------------------------------------------
          | TOTAL ENERGY              -35.447489642008 Eh   |
          | GRADIENT NORM               0.000392082871 Eh/α |
          | HOMO-LUMO GAP               7.033294301159 eV   |
           -------------------------------------------------

 * finished run on 2024/12/20 at 07:18:51.332
