   * xtb version 6.7.1 (edcfbbe) compiled by 'conda@3ef47c1a292c' on 2024-11-25

   ID    Z sym.   atoms
    1    8 O      1, 3
    2    6 C      2, 4-6, 8, 9, 11, 12
    3    7 N      7, 10
    4    1 H      13-25

          program call               : xtb C1302.xyz --opt --namespace C1302 --charge +1
          :  Hamiltonian                  GFN2-xTB          :
 * total energy  :   -37.3743637 Eh     change       -0.4763479E-09 Eh
 * total energy  :   -37.3790238 Eh     change       -0.4660148E-02 Eh
 * total energy  :   -37.3802854 Eh     change       -0.1261619E-02 Eh
 * total energy  :   -37.3805603 Eh     change       -0.2748474E-03 Eh
 * total energy  :   -37.3806965 Eh     change       -0.1362500E-03 Eh
 * total energy  :   -37.3807588 Eh     change       -0.6230155E-04 Eh
 * total energy  :   -37.3808173 Eh     change       -0.5851075E-04 Eh
 * total energy  :   -37.3808869 Eh     change       -0.6957824E-04 Eh
 * total energy  :   -37.3809648 Eh     change       -0.7788257E-04 Eh
 * total energy  :   -37.3810359 Eh     change       -0.7111564E-04 Eh
 * total energy  :   -37.3814121 Eh     change       -0.1713819E-04 Eh
 * total energy  :   -37.3814191 Eh     change       -0.6991286E-05 Eh
 * total energy  :   -37.3814262 Eh     change       -0.7162351E-05 Eh
 * total energy  :   -37.3814361 Eh     change       -0.9829157E-05 Eh
 * total energy  :   -37.3814432 Eh     change       -0.7195802E-05 Eh
 * total energy  :   -37.3814515 Eh     change       -0.8254696E-05 Eh
 * total energy  :   -37.3814596 Eh     change       -0.8140096E-05 Eh
 * total energy  :   -37.3814664 Eh     change       -0.6733862E-05 Eh
 * total energy  :   -37.3814679 Eh     change       -0.1489527E-05 Eh
   *** GEOMETRY OPTIMIZATION CONVERGED AFTER 33 ITERATIONS ***

 final structure:
================
25
 xtb: 6.7.1 (edcfbbe)
O            0.74829004063238       -1.50554903641978        0.44934936534405
C            0.33492056814656       -0.56139700871905        1.31307120570455
O            1.08576843496901        0.07887919039270        1.98649732007722
C           -1.17040913317127       -0.39485418720125        1.28130274393037
C           -1.55384716292205        1.07000760548053        1.06846107814687
C           -1.01376326912840        1.63659022788236       -0.25069521187671
N           -1.55766657198839        0.94148346385973       -1.39548313859266
C           -2.69495161694785        1.27615369783014       -2.06428187541350
C           -2.88692425666529        0.33908779775991       -3.03369159385001
N           -1.86535333331708       -0.55676500896628       -2.93747191304910
C           -1.07452729815029       -0.17384616533657       -1.93936754779015
C           -1.68462683922479       -1.70901774976322       -3.77872586607395
H            1.70014346812879       -1.67172133433105        0.55544327075761
H           -1.59522013277889       -1.05096331051241        0.52130659034135
H           -1.54724641923210       -0.71529320390470        2.25437867537057
H           -2.63899207176654        1.17272830579717        1.10272808608185
H           -1.12553543495980        1.66334342257386        1.87656546138824
H           -1.28143535191289        2.69130005857442       -0.33277500729605
H            0.07429635388627        1.54935965273148       -0.27027782063260
H           -3.27655514772142        2.14120859558508       -1.81845946984315
H           -3.66140292537106        0.25430119947719       -3.76855425443321
H           -0.18832160587281       -0.68804410079202       -1.61644339491640
H           -0.79398767798328       -2.25352664389734       -3.47397381977010
H           -2.55013503876171       -2.36772496254129       -3.70274847057969
H           -1.57657757788671       -1.40073050556016       -4.81913441302468

          :  Hamiltonian                  GFN2-xTB          :
         :: total energy             -37.381467864736 Eh    ::
         :: gradient norm              0.000790248236 Eh/a0 ::
         :: HOMO-LUMO gap              3.586700326404 eV    ::
         :: SCC energy               -37.862838425851 Eh    ::
         :: -> dispersion             -0.019230730982 Eh    ::
         :: repulsion energy           0.481370561115 Eh    ::

    * Orbital Energies and Occupations

         #    Occupation            Energy/Eh            Energy/eV
      -------------------------------------------------------------
         1        2.0000           -0.9011808             -24.5224
       ...           ...                  ...                  ...
        21        2.0000           -0.6747816             -18.3617
        22        2.0000           -0.6638492             -18.0643
        23        2.0000           -0.6531786             -17.7739
        24        2.0000           -0.6472787             -17.6134
        25        2.0000           -0.6425094             -17.4836
        26        2.0000           -0.6269674             -17.0607
        27        2.0000           -0.6177810             -16.8107
        28        2.0000           -0.6027431             -16.4015
        29        2.0000           -0.6007809             -16.3481
        30        2.0000           -0.5968184             -16.2403
        31        2.0000           -0.5908729             -16.0785
        32        2.0000           -0.5853063             -15.9270
        33        2.0000           -0.5427558             -14.7691 (HOMO)
        34                         -0.4109469             -11.1824 (LUMO)
        35                         -0.3755769             -10.2200
        36                         -0.3558569              -9.6834
        37                         -0.1888703              -5.1394
        38                         -0.1341785              -3.6512
        39                         -0.0822467              -2.2380
        40                         -0.0673667              -1.8331
        41                         -0.0568515              -1.5470
        42                         -0.0450998              -1.2272
        43                         -0.0282067              -0.7675
        44                         -0.0218416              -0.5943
       ...                                ...                  ...
        61                          0.5459699              14.8566
      -------------------------------------------------------------
                  HL-Gap            0.1318088 Eh            3.5867 eV

     #   Z          covCN         q      C6AA      α(0)
     1   8 O        1.659    -0.392    20.702     6.142
     2   6 C        2.689     0.357    20.937     7.488
     3   8 O        0.856    -0.375    21.195     6.172
     4   6 C        3.803    -0.101    22.433     6.743
     5   6 C        3.804    -0.071    21.854     6.655
     6   6 C        3.742    -0.030    21.188     6.567
     7   7 N        2.869     0.071    20.011     6.644
     8   6 C        3.072    -0.007    28.109     8.693
     9   6 C        3.071    -0.009    28.175     8.703
    10   7 N        2.868     0.079    19.868     6.620
    11   6 C        3.096     0.042    26.950     8.508
    12   6 C        3.692    -0.088    22.370     6.768
    13   1 H        0.804     0.342     0.607     1.224
    14   1 H        0.925     0.062     2.177     2.308
    15   1 H        0.924     0.102     1.768     2.079
    16   1 H        0.924     0.070     2.080     2.256
    17   1 H        0.925     0.099     1.795     2.095
    18   1 H        0.924     0.097     1.813     2.106
    19   1 H        0.924     0.090     1.878     2.143
    20   1 H        0.926     0.110     1.697     2.037
    21   1 H        0.926     0.111     1.688     2.032
    22   1 H        0.926     0.125     1.574     1.962
    23   1 H        0.925     0.101     1.773     2.083
    24   1 H        0.924     0.108     1.714     2.047
    25   1 H        0.924     0.108     1.712     2.046

Wiberg/Mayer (AO) data.
largest (>0.10) Wiberg bond orders for each atom

     #   Z sym  total        # sym  WBO       # sym  WBO       # sym  WBO
 ---------------------------------------------------------------------------
     1   8 O    2.185 --     2 C    1.116    13 H    0.858     3 O    0.176
     2   6 C    3.918 --     3 O    1.801     1 O    1.116     4 C    0.970
     3   8 O    2.077 --     2 C    1.801     1 O    0.176
     4   6 C    3.992 --     5 C    1.000    14 H    0.972     2 C    0.970
                            15 H    0.944
     5   6 C    3.983 --     4 C    1.000     6 C    0.985    16 H    0.973
                            17 H    0.963
     6   6 C    3.939 --     5 C    0.985     7 N    0.970    18 H    0.963
                            19 H    0.963
     7   7 N    3.718 --    11 C    1.358     8 C    1.230     6 C    0.970
     8   6 C    3.950 --     9 C    1.592     7 N    1.230    20 H    0.961
     9   6 C    3.948 --     8 C    1.592    10 N    1.226    21 H    0.961
    10   7 N    3.723 --    11 C    1.364     9 C    1.226    12 C    0.991
    11   6 C    3.943 --    10 N    1.364     7 N    1.358    22 H    0.947
    12   6 C    3.933 --    10 N    0.991    23 H    0.975    24 H    0.962
                            25 H    0.962
    13   1 H    0.883 --     1 O    0.858
    14   1 H    0.996 --     4 C    0.972
    15   1 H    0.990 --     4 C    0.944
    16   1 H    0.995 --     5 C    0.973
    17   1 H    0.989 --     5 C    0.963
    18   1 H    0.990 --     6 C    0.963
    19   1 H    0.992 --     6 C    0.963
    20   1 H    0.988 --     8 C    0.961
    21   1 H    0.988 --     9 C    0.961
    22   1 H    0.984 --    11 C    0.947
    23   1 H    0.989 --    12 C    0.975
    24   1 H    0.988 --    12 C    0.962
    25   1 H    0.988 --    12 C    0.962
 ---------------------------------------------------------------------------

molecular dipole:
                 x           y           z       tot (Debye)
 q only:       -3.472      -0.171      -4.011
   full:       -3.344      -0.299      -4.052      13.374

           -------------------------------------------------
          | TOTAL ENERGY              -37.381467864736 Eh   |
          | GRADIENT NORM               0.000790248236 Eh/α |
          | HOMO-LUMO GAP               3.586700326404 eV   |
           -------------------------------------------------

 * finished run on 2024/12/20 at 07:18:53.651
