   * xtb version 6.7.1 (edcfbbe) compiled by 'conda@3ef47c1a292c' on 2024-11-25

   ID    Z sym.   atoms
    1    6 C      1-4, 6-8, 10, 11, 13, 14
    2    7 N      5, 9
    3    8 O      12
    4    1 H      15-31

          program call               : xtb C1300.xyz --opt --namespace C1300 --charge +1
          :  Hamiltonian                  GFN2-xTB          :
 * total energy  :   -41.7367489 Eh     change       -0.1467768E-09 Eh
 * total energy  :   -41.7421320 Eh     change       -0.5383116E-02 Eh
 * total energy  :   -41.7434177 Eh     change       -0.1285660E-02 Eh
 * total energy  :   -41.7436963 Eh     change       -0.2786338E-03 Eh
 * total energy  :   -41.7438996 Eh     change       -0.2032851E-03 Eh
 * total energy  :   -41.7439529 Eh     change       -0.5331388E-04 Eh
 * total energy  :   -41.7439876 Eh     change       -0.3466577E-04 Eh
 * total energy  :   -41.7440181 Eh     change       -0.3055825E-04 Eh
 * total energy  :   -41.7440333 Eh     change       -0.1518504E-04 Eh
 * total energy  :   -41.7440546 Eh     change       -0.2131540E-04 Eh
 * total energy  :   -41.7440847 Eh     change       -0.3004392E-04 Eh
 * total energy  :   -41.7441044 Eh     change       -0.1975605E-04 Eh
 * total energy  :   -41.7441232 Eh     change       -0.1877235E-04 Eh
 * total energy  :   -41.7441398 Eh     change       -0.1658936E-04 Eh
 * total energy  :   -41.7441523 Eh     change       -0.1251376E-04 Eh
 * total energy  :   -41.7441618 Eh     change       -0.9488373E-05 Eh
 * total energy  :   -41.7441688 Eh     change       -0.7026344E-05 Eh
 * total energy  :   -41.7441730 Eh     change       -0.4183717E-05 Eh
   *** GEOMETRY OPTIMIZATION CONVERGED AFTER 18 ITERATIONS ***

 final structure:
================
31
 xtb: 6.7.1 (edcfbbe)
C            1.19040488931369       -0.08630028558335        0.88015052737044
C            0.63785472761470        1.27572043885696        0.71391072208937
C           -0.70578328380487        1.55916707030816        0.98430232343011
C           -1.19371246460950        2.83199269067567        0.80753733721041
N           -0.41005230062523        3.82846344791799        0.37617548223998
C            0.88135797137016        3.59204816328969        0.11353960489850
C            1.42934051038131        2.34093564199013        0.27031164203340
C           -1.01728922345058        5.18591581593855        0.04891412610694
N           -1.50095906554135        5.32452733232922       -1.24928553014485
C           -2.73114758806853        4.66574621089473       -1.65463226957468
C           -2.45012185142177        3.34739689527332       -2.38896856251761
O           -1.58370104689538        3.55131529943389       -3.47879734587169
C           -0.36057899111756        4.12510102848623       -3.08546897949914
C           -0.58576691778551        5.46399419956211       -2.36937849305703
H            1.04138655599218       -0.65093308831212       -0.04236589073695
H            0.68085581529552       -0.62444446265721        1.67546530556726
H            2.25838880620008       -0.05962538188742        1.07936639550388
H           -1.36545644544428        0.78295264912500        1.33918695258428
H           -2.22419384120598        3.07486251983988        1.02090860937803
H            1.47689009941547        4.43039012559876       -0.21662430959977
H            2.47542512817261        2.18972063944465        0.05485234137320
H           -1.82647386565632        5.32811200520273        0.77037276219489
H           -0.22560174719513        5.91626378160150        0.23645522485383
H           -3.24642848089141        5.34060147554317       -2.34499150638627
H           -3.37212305233229        4.50108549042730       -0.78868925622091
H           -2.01430433194728        2.60269487203801       -1.69940380196987
H           -3.37095814111424        2.94103587325718       -2.80803516850809
H            0.21069799067131        4.27455489493076       -4.00199336645111
H            0.18926159202445        3.42268558528766       -2.43415731366868
H           -1.04640234791637        6.15937189827508       -3.07766153394719
H            0.35905090057092        5.88944717291019       -2.03168602868258

          :  Hamiltonian                  GFN2-xTB          :
         :: total energy             -41.744173011376 Eh    ::
         :: gradient norm              0.000273430241 Eh/a0 ::
         :: HOMO-LUMO gap              1.200190724931 eV    ::
         :: SCC energy               -42.325417058438 Eh    ::
         :: -> dispersion             -0.028093964498 Eh    ::
         :: repulsion energy           0.581244047062 Eh    ::

    * Orbital Energies and Occupations

         #    Occupation            Energy/Eh            Energy/eV
      -------------------------------------------------------------
         1        2.0000           -0.8710166             -23.7016
       ...           ...                  ...                  ...
        26        2.0000           -0.6299655             -17.1422
        27        2.0000           -0.6232630             -16.9598
        28        2.0000           -0.6231874             -16.9578
        29        2.0000           -0.6175391             -16.8041
        30        2.0000           -0.6111997             -16.6316
        31        2.0000           -0.6075471             -16.5322
        32        2.0000           -0.6023612             -16.3911
        33        2.0000           -0.5921596             -16.1135
        34        2.0000           -0.5862037             -15.9514
        35        2.0000           -0.5753696             -15.6566
        36        2.0000           -0.5642298             -15.3535
        37        2.0000           -0.5402905             -14.7021
        38        2.0000           -0.4926186             -13.4048 (HOMO)
        39                         -0.4485124             -12.2046 (LUMO)
        40                         -0.4204279             -11.4404
        41                         -0.3020672              -8.2197
        42                         -0.2131801              -5.8009
        43                         -0.1336861              -3.6378
        44                         -0.0871623              -2.3718
        45                         -0.0849768              -2.3123
        46                         -0.0680119              -1.8507
        47                         -0.0461704              -1.2564
        48                         -0.0336841              -0.9166
        49                         -0.0295108              -0.8030
       ...                                ...                  ...
        73                          0.4368194              11.8865
      -------------------------------------------------------------
                  HL-Gap            0.0441062 Eh            1.2002 eV

     #   Z          covCN         q      C6AA      α(0)
     1   6 C        3.758    -0.133    23.113     6.854
     2   6 C        2.969     0.072    26.381     8.425
     3   6 C        2.920    -0.028    28.696     8.785
     4   6 C        2.883     0.038    27.149     8.542
     5   7 N        2.742     0.048    20.407     6.709
     6   6 C        2.883     0.038    27.145     8.541
     7   6 C        2.920    -0.028    28.693     8.784
     8   6 C        3.681     0.034    20.210     6.438
     9   7 N        2.728    -0.128    23.775     7.242
    10   6 C        3.753    -0.020    20.989     6.533
    11   6 C        3.710     0.074    19.475     6.307
    12   8 O        1.701    -0.298    18.964     5.880
    13   6 C        3.710     0.074    19.477     6.307
    14   6 C        3.753    -0.020    20.990     6.533
    15   1 H        0.924     0.107     1.720     2.051
    16   1 H        0.925     0.091     1.872     2.139
    17   1 H        0.925     0.089     1.887     2.148
    18   1 H        0.926     0.099     1.793     2.094
    19   1 H        0.926     0.097     1.808     2.103
    20   1 H        0.926     0.098     1.808     2.102
    21   1 H        0.926     0.099     1.793     2.094
    22   1 H        0.924     0.090     1.881     2.145
    23   1 H        0.924     0.090     1.880     2.144
    24   1 H        0.924     0.081     1.973     2.197
    25   1 H        0.925     0.049     2.336     2.390
    26   1 H        0.923     0.006     2.964     2.693
    27   1 H        0.924     0.074     2.045     2.236
    28   1 H        0.924     0.074     2.044     2.236
    29   1 H        0.923     0.006     2.961     2.691
    30   1 H        0.924     0.081     1.973     2.197
    31   1 H        0.925     0.049     2.335     2.390

Wiberg/Mayer (AO) data.
largest (>0.10) Wiberg bond orders for each atom

     #   Z sym  total        # sym  WBO       # sym  WBO       # sym  WBO
 ---------------------------------------------------------------------------
     1   6 C    3.983 --     2 C    1.065    17 H    0.969    16 H    0.966
                            15 H    0.927
     2   6 C    3.969 --     7 C    1.363     3 C    1.362     1 C    1.065
     3   6 C    3.984 --     4 C    1.490     2 C    1.362    18 H    0.959
     4   6 C    3.962 --     3 C    1.490     5 N    1.315    19 H    0.955
     5   7 N    3.722 --     6 C    1.316     4 C    1.315     8 C    0.853
     6   6 C    3.962 --     7 C    1.489     5 N    1.316    20 H    0.955
     7   6 C    3.984 --     6 C    1.489     2 C    1.363    21 H    0.959
     8   6 C    3.946 --     9 N    1.109    23 H    0.956    22 H    0.956
                             5 N    0.853
     9   7 N    3.283 --     8 C    1.109    10 C    0.990    14 C    0.990
    10   6 C    3.973 --     9 N    0.990    11 C    0.988    25 H    0.971
                            24 H    0.964
    11   6 C    3.958 --    12 O    0.993    10 C    0.988    27 H    0.967
                            26 H    0.963
    12   8 O    2.092 --    11 C    0.993    13 C    0.992
    13   6 C    3.958 --    12 O    0.992    14 C    0.988    28 H    0.967
                            29 H    0.963
    14   6 C    3.973 --     9 N    0.990    13 C    0.988    31 H    0.971
                            30 H    0.964
    15   1 H    0.987 --     1 C    0.927
    16   1 H    0.991 --     1 C    0.966
    17   1 H    0.991 --     1 C    0.969
    18   1 H    0.990 --     3 C    0.959
    19   1 H    0.990 --     4 C    0.955
    20   1 H    0.990 --     6 C    0.955
    21   1 H    0.990 --     7 C    0.959
    22   1 H    0.991 --     8 C    0.956
    23   1 H    0.991 --     8 C    0.956
    24   1 H    0.993 --    10 C    0.964
    25   1 H    0.998 --    10 C    0.971
    26   1 H    1.000 --    11 C    0.963
    27   1 H    0.994 --    11 C    0.967
    28   1 H    0.994 --    13 C    0.967
    29   1 H    1.000 --    13 C    0.963
    30   1 H    0.993 --    14 C    0.964
    31   1 H    0.998 --    14 C    0.971
 ---------------------------------------------------------------------------

molecular dipole:
                 x           y           z       tot (Debye)
 q only:       -0.345       5.878       0.526
   full:       -0.239       5.764       0.723      14.779

           -------------------------------------------------
          | TOTAL ENERGY              -41.744173011376 Eh   |
          | GRADIENT NORM               0.000273430241 Eh/α |
          | HOMO-LUMO GAP               1.200190724931 eV   |
           -------------------------------------------------

 * finished run on 2024/12/20 at 07:18:52.704
