   * xtb version 6.7.1 (edcfbbe) compiled by 'conda@3ef47c1a292c' on 2024-11-25

   ID    Z sym.   atoms
    1    7 N      1, 5
    2    6 C      2-4, 6-12
    3    1 H      13-25

          program call               : xtb C1305.xyz --opt --namespace C1305 --charge +1
          :  Hamiltonian                  GFN2-xTB          :
 * total energy  :   -33.4181218 Eh     change       -0.2008989E-08 Eh
 * total energy  :   -33.4506908 Eh     change       -0.3256900E-01 Eh
 * total energy  :   -33.4525144 Eh     change       -0.1823602E-02 Eh
 * total energy  :   -33.4529604 Eh     change       -0.4460161E-03 Eh
 * total energy  :   -33.4532207 Eh     change       -0.2603039E-03 Eh
 * total energy  :   -33.4534745 Eh     change       -0.2537565E-03 Eh
 * total energy  :   -33.4536960 Eh     change       -0.2215039E-03 Eh
 * total energy  :   -33.4539429 Eh     change       -0.2469276E-03 Eh
 * total energy  :   -33.4541838 Eh     change       -0.2408959E-03 Eh
 * total energy  :   -33.4543850 Eh     change       -0.2011953E-03 Eh
 * total energy  :   -33.4577244 Eh     change       -0.5036186E-04 Eh
 * total energy  :   -33.4577413 Eh     change       -0.1680675E-04 Eh
 * total energy  :   -33.4577535 Eh     change       -0.1222636E-04 Eh
 * total energy  :   -33.4577615 Eh     change       -0.7977853E-05 Eh
 * total energy  :   -33.4577658 Eh     change       -0.4329765E-05 Eh
 * total energy  :   -33.4577813 Eh     change       -0.1555303E-04 Eh
 * total energy  :   -33.4577950 Eh     change       -0.1362819E-04 Eh
 * total energy  :   -33.4578059 Eh     change       -0.1092134E-04 Eh
 * total energy  :   -33.4578081 Eh     change       -0.2248030E-05 Eh
   *** GEOMETRY OPTIMIZATION CONVERGED AFTER 48 ITERATIONS ***

 final structure:
================
25
 xtb: 6.7.1 (edcfbbe)
N            1.53257118115613       -1.27498517798898        1.47126367820536
C            2.35410575538988       -0.72762946160599        0.89848724474273
C            3.43523572170287       -0.13453509731643        0.14423098300542
C            4.62344946726711       -1.11225166027669        0.07607280052122
N            4.17998412048908       -2.41233944883971       -0.40246565849268
C            3.79416480418878       -3.34973441410461        0.47107795880623
C            3.28174521761022       -4.54872127117124        0.03290206521588
C            3.14875418992217       -4.81341945242367       -1.32931962389752
C            3.57015634631882       -3.81494747103408       -2.23424879760491
C            4.07140882746536       -2.63636400646831       -1.72081502289185
C            3.47520002833920       -4.01812667207153       -3.70475227759572
C            2.58616426500049       -6.09324894316465       -1.81237680446987
H            3.06768544844578        0.10864589363600       -0.85680623846233
H            3.75009020941822        0.79146747732358        0.63049886116944
H            5.38731836905019       -0.71664469641009       -0.59628864812006
H            5.05807167462070       -1.23400244835620        1.07045157567410
H            3.89496204039305       -3.13014534946663        1.52259477361387
H            2.97732220661024       -5.28383156953831        0.76068245823743
H            4.40097158573973       -1.84556250110022       -2.37925516726969
H            4.05242769115525       -4.89191191644413       -4.00383443857332
H            2.44169957766010       -4.20043780934821       -3.99590486076567
H            3.84380191465716       -3.15499369683656       -4.25038388979705
H            1.69757024194484       -5.91001795492192       -2.41673895964041
H            3.30175507799677       -6.60584001100740       -2.45518030625312
H            2.32093403745619       -6.74696234106528       -0.98730170535272

          :  Hamiltonian                  GFN2-xTB          :
         :: total energy             -33.457808137210 Eh    ::
         :: gradient norm              0.000436677858 Eh/a0 ::
         :: HOMO-LUMO gap              2.933593836702 eV    ::
         :: SCC energy               -34.055258020728 Eh    ::
         :: -> dispersion             -0.020386812618 Eh    ::
         :: repulsion energy           0.597449883519 Eh    ::

    * Orbital Energies and Occupations

         #    Occupation            Energy/Eh            Energy/eV
      -------------------------------------------------------------
         1        2.0000           -0.8739054             -23.7802
       ...           ...                  ...                  ...
        19        2.0000           -0.6543189             -17.8049
        20        2.0000           -0.6480293             -17.6338
        21        2.0000           -0.6404349             -17.4271
        22        2.0000           -0.6304911             -17.1565
        23        2.0000           -0.6261060             -17.0372
        24        2.0000           -0.6210343             -16.8992
        25        2.0000           -0.6093365             -16.5809
        26        2.0000           -0.6034629             -16.4211
        27        2.0000           -0.5988532             -16.2956
        28        2.0000           -0.5978112             -16.2673
        29        2.0000           -0.5933192             -16.1450
        30        2.0000           -0.5804502             -15.7949
        31        2.0000           -0.5554549             -15.1147 (HOMO)
        32                         -0.4476473             -12.1811 (LUMO)
        33                         -0.4140457             -11.2668
        34                         -0.3433401              -9.3428
        35                         -0.3355816              -9.1316
        36                         -0.2987417              -8.1292
        37                         -0.1784582              -4.8561
        38                         -0.0793797              -2.1600
        39                         -0.0610386              -1.6609
        40                         -0.0577783              -1.5722
        41                         -0.0409967              -1.1156
        42                         -0.0286453              -0.7795
       ...                                ...                  ...
        61                          1.0133856              27.5756
      -------------------------------------------------------------
                  HL-Gap            0.1078076 Eh            2.9336 eV

     #   Z          covCN         q      C6AA      α(0)
     1   7 N        0.911    -0.197    25.269     7.270
     2   6 C        1.899     0.109    28.403     8.607
     3   6 C        3.804    -0.064    21.719     6.635
     4   6 C        3.764    -0.021    20.991     6.530
     5   7 N        2.749     0.084    19.781     6.606
     6   6 C        2.887     0.029    27.359     8.575
     7   6 C        2.918    -0.027    28.673     8.781
     8   6 C        2.973     0.060    26.653     8.468
     9   6 C        2.965     0.034    27.243     8.561
    10   6 C        2.894     0.014    27.690     8.628
    11   6 C        3.759    -0.131    23.068     6.847
    12   6 C        3.759    -0.132    23.091     6.851
    13   1 H        0.924     0.092     1.860     2.133
    14   1 H        0.924     0.111     1.687     2.031
    15   1 H        0.924     0.094     1.837     2.120
    16   1 H        0.924     0.095     1.833     2.117
    17   1 H        0.926     0.105     1.740     2.063
    18   1 H        0.926     0.104     1.748     2.068
    19   1 H        0.926     0.096     1.825     2.112
    20   1 H        0.925     0.093     1.854     2.130
    21   1 H        0.925     0.093     1.850     2.127
    22   1 H        0.925     0.075     2.032     2.229
    23   1 H        0.925     0.100     1.784     2.089
    24   1 H        0.925     0.099     1.795     2.095
    25   1 H        0.925     0.084     1.936     2.176

Wiberg/Mayer (AO) data.
largest (>0.10) Wiberg bond orders for each atom

     #   Z sym  total        # sym  WBO       # sym  WBO       # sym  WBO
 ---------------------------------------------------------------------------
     1   7 N    3.022 --     2 C    2.869
     2   6 C    3.951 --     1 N    2.869     3 C    1.047
     3   6 C    3.987 --     2 C    1.047     4 C    0.966    13 H    0.944
                            14 H    0.937
     4   6 C    3.946 --     5 N    0.970     3 C    0.966    16 H    0.965
                            15 H    0.963
     5   7 N    3.743 --     6 C    1.312    10 C    1.295     4 C    0.970
     6   6 C    3.958 --     7 C    1.470     5 N    1.312    17 H    0.955
     7   6 C    3.983 --     6 C    1.470     8 C    1.388    18 H    0.957
     8   6 C    3.974 --     7 C    1.388     9 C    1.307    12 C    1.068
     9   6 C    3.984 --    10 C    1.457     8 C    1.307    11 C    1.047
    10   6 C    3.958 --     9 C    1.457     5 N    1.295    19 H    0.955
    11   6 C    3.984 --     9 C    1.047    22 H    0.980    20 H    0.952
                            21 H    0.952
    12   6 C    3.984 --     8 C    1.068    25 H    0.979    24 H    0.941
                            23 H    0.939
    13   1 H    0.992 --     3 C    0.944
    14   1 H    0.987 --     3 C    0.937
    15   1 H    0.991 --     4 C    0.963
    16   1 H    0.990 --     4 C    0.965
    17   1 H    0.988 --     6 C    0.955
    18   1 H    0.989 --     7 C    0.957
    19   1 H    0.990 --    10 C    0.955
    20   1 H    0.991 --    11 C    0.952
    21   1 H    0.991 --    11 C    0.952
    22   1 H    0.994 --    11 C    0.980
    23   1 H    0.989 --    12 C    0.939
    24   1 H    0.989 --    12 C    0.941
    25   1 H    0.992 --    12 C    0.979
 ---------------------------------------------------------------------------

molecular dipole:
                 x           y           z       tot (Debye)
 q only:        7.546      -5.919      -2.378
   full:        7.932      -5.586      -2.537      25.489

           -------------------------------------------------
          | TOTAL ENERGY              -33.457808137210 Eh   |
          | GRADIENT NORM               0.000436677858 Eh/α |
          | HOMO-LUMO GAP               2.933593836702 eV   |
           -------------------------------------------------

 * finished run on 2024/12/20 at 07:18:56.739
