   * xtb version 6.7.1 (edcfbbe) compiled by 'conda@3ef47c1a292c' on 2024-11-25

   ID    Z sym.   atoms
    1    6 C      1-9, 11, 13-27
    2    7 N      10, 12
    3    1 H      28-70

          program call               : xtb C1308.xyz --opt --namespace C1308 --charge +1
          :  Hamiltonian                  GFN2-xTB          :
 * total energy  :   -80.9928911 Eh     change       -0.5945253E-09 Eh
 * total energy  :   -80.9973390 Eh     change       -0.4447822E-02 Eh
 * total energy  :   -80.9980896 Eh     change       -0.7506691E-03 Eh
 * total energy  :   -80.9982567 Eh     change       -0.1671038E-03 Eh
 * total energy  :   -80.9984536 Eh     change       -0.1968957E-03 Eh
 * total energy  :   -80.9985599 Eh     change       -0.1063101E-03 Eh
 * total energy  :   -80.9986331 Eh     change       -0.7312354E-04 Eh
 * total energy  :   -80.9986827 Eh     change       -0.4962877E-04 Eh
 * total energy  :   -80.9987397 Eh     change       -0.5700942E-04 Eh
 * total energy  :   -80.9987818 Eh     change       -0.4212541E-04 Eh
 * total energy  :   -81.0022434 Eh     change       -0.5257724E-05 Eh
 * total energy  :   -81.0022485 Eh     change       -0.5164095E-05 Eh
 * total energy  :   -81.0022538 Eh     change       -0.5299884E-05 Eh
 * total energy  :   -81.0022593 Eh     change       -0.5500932E-05 Eh
 * total energy  :   -81.0022651 Eh     change       -0.5796675E-05 Eh
 * total energy  :   -81.0022710 Eh     change       -0.5831522E-05 Eh
 * total energy  :   -81.0022767 Eh     change       -0.5772620E-05 Eh
 * total energy  :   -81.0022822 Eh     change       -0.5488409E-05 Eh
 * total energy  :   -81.0022854 Eh     change       -0.3182895E-05 Eh
   *** GEOMETRY OPTIMIZATION CONVERGED AFTER 94 ITERATIONS ***

 final structure:
================
70
 xtb: 6.7.1 (edcfbbe)
C            1.82704183410142       -0.60604616273445        0.38383448429382
C            1.87482771389259       -0.62844598807907       -1.13908159075300
C            1.74462148304685       -2.03475178154950       -1.72733300904646
C            0.43397741256723       -2.75459923125425       -1.40024379440548
C           -0.83395202183274       -2.01036753065718       -1.82224088633053
C           -0.92129095775418       -1.68189468685271       -3.31423859398955
C           -0.92048254550026       -2.89853970313065       -4.24413848429196
C           -2.07636944009034       -3.87825032800208       -4.03648512233931
C           -3.46381424377372       -3.26275842848099       -4.25447485575752
N           -3.64438228680663       -2.82992905145119       -5.62036427982041
C           -3.24535638425586       -1.66643414102052       -6.12281000539877
N           -3.48634080532092       -1.58742941498759       -7.42701638136469
C           -4.08891514122413       -2.76725519910183       -7.81117317949869
C           -4.17605295563488       -3.57004085059335       -6.65591378564261
C           -4.72692672906631       -4.84537502736756       -6.70438904877734
C           -5.18669452209431       -5.28206138354819       -7.92887681819605
C           -5.10601190167000       -4.48311014065651       -9.07368953195730
C           -4.55882224782620       -3.21786661682390       -9.03933330915283
C           -3.24192305727173       -0.43291859902760       -8.25936018538625
C           -4.40855721989399        0.56048093122956       -8.20116185095332
C           -4.63792948931354        1.17064885484467       -6.81769539551492
C           -3.46156663171271        1.97401564925120       -6.25587664505369
C           -3.03939802032169        3.17702070807423       -7.10214065081458
C           -4.12152748157198        4.24096218263238       -7.29366320863209
C           -4.67864197981105        4.83614016720760       -5.99818700577415
C           -3.63526016920615        5.47066010071050       -5.07658697416611
C           -2.89947508226336        6.64168514450420       -5.71639119552511
H            0.85200290233356       -0.91292573495449        0.75387331398238
H            2.02519030413767        0.39829972612027        0.75025035603389
H            2.57868479521894       -1.27429832077925        0.79717070695412
H            1.09141973382619        0.01984145560226       -1.53726511484557
H            2.83168256087423       -0.21535174949508       -1.46636898439974
H            1.86918311472957       -1.97469475284742       -2.81130604538511
H            2.56465262895489       -2.64639304233764       -1.34493896916395
H            0.45584880299706       -3.73965280477760       -1.87211079048631
H            0.38086553424506       -2.92117857364484       -0.32362904813301
H           -1.70062128344791       -2.60580095454323       -1.52519844287092
H           -0.89277635758847       -1.07128847576652       -1.27016175846114
H           -1.82218652303187       -1.08166139896212       -3.47363206837891
H           -0.07218494032882       -1.05364700060087       -3.58637844695299
H           -0.91819490082079       -2.55244580669842       -5.28306334327392
H            0.00929756625634       -3.44781041242851       -4.09760967176624
H           -1.95155167676862       -4.72221754077053       -4.71844668372324
H           -2.04588448687093       -4.26810519435271       -3.02001887666374
H           -4.23665219805344       -3.99908621814766       -4.02901759194003
H           -3.60091866719975       -2.40325003601891       -3.59627347468882
H           -2.78545577746724       -0.88642059740505       -5.54624390920548
H           -4.79110650835845       -5.46936781613954       -5.82824335107178
H           -5.62083415296555       -6.26571993075015       -8.00882328918935
H           -5.48270936209083       -4.86952247690143      -10.00708413508292
H           -4.50326329054206       -2.60841228279855       -9.92623413261812
H           -2.32164847436878        0.04845578979030       -7.92454189723554
H           -3.09932338272601       -0.77955835617248       -9.28399431408312
H           -4.20218986852795        1.35253132304378       -8.91960160489670
H           -5.32206558395930        0.05389873675182       -8.52022738662803
H           -5.50627558612149        1.82572923580456       -6.88460498228742
H           -4.89853641010626        0.37812687409467       -6.10834533743943
H           -3.74183933573449        2.32434912075767       -5.26165861823369
H           -2.58662625179659        1.32937359290407       -6.12857262790010
H           -2.17407549493183        3.63545768018675       -6.62131371384119
H           -2.70968382692745        2.83674446413270       -8.08674235002109
H           -3.69765768502076        5.04361150734184       -7.89843766414774
H           -4.95298063397574        3.82041663998233       -7.86402195965840
H           -5.40947447352433        5.60069068388344       -6.27047986491834
H           -5.21572410711051        4.06431611088413       -5.44146796702160
H           -4.15064757584521        5.82669371305145       -4.18162525012872
H           -2.91181491699147        4.71903790504834       -4.75376514615671
H           -3.60772573755497        7.38435279275992       -6.07583209296040
H           -2.24687942310243        7.11720538645976       -4.98823200195545
H           -2.28784617901827        6.31500726541640       -6.55363016499173

          :  Hamiltonian                  GFN2-xTB          :
         :: total energy             -81.002285419879 Eh    ::
         :: gradient norm              0.000156337895 Eh/a0 ::
         :: HOMO-LUMO gap              2.172175770144 eV    ::
         :: SCC energy               -82.263561143217 Eh    ::
         :: -> dispersion             -0.064839905589 Eh    ::
         :: repulsion energy           1.261275723338 Eh    ::

    * Orbital Energies and Occupations

         #    Occupation            Energy/Eh            Energy/eV
      -------------------------------------------------------------
         1        2.0000           -0.8725850             -23.7442
       ...           ...                  ...                  ...
        64        2.0000           -0.5342782             -14.5384
        65        2.0000           -0.5232207             -14.2376
        66        2.0000           -0.5232183             -14.2375
        67        2.0000           -0.5163996             -14.0519
        68        2.0000           -0.5163179             -14.0497
        69        2.0000           -0.5130142             -13.9598
        70        2.0000           -0.5130014             -13.9595
        71        2.0000           -0.4935738             -13.4308
        72        2.0000           -0.4935445             -13.4300
        73        2.0000           -0.4903458             -13.3430
        74        2.0000           -0.4903365             -13.3427
        75        2.0000           -0.4871195             -13.2552
        76        2.0000           -0.4871014             -13.2547 (HOMO)
        77                         -0.4072754             -11.0825 (LUMO)
        78                         -0.3584693              -9.7544
        79                         -0.3498489              -9.5199
        80                         -0.2330032              -6.3403
        81                         -0.1682408              -4.5781
        82                         -0.1249646              -3.4005
        83                         -0.0705097              -1.9187
        84                         -0.0475315              -1.2934
        85                         -0.0455315              -1.2390
        86                         -0.0326174              -0.8876
        87                         -0.0292480              -0.7959
       ...                                ...                  ...
       151                          0.5454981              14.8438
      -------------------------------------------------------------
                  HL-Gap            0.0798260 Eh            2.1722 eV

     #   Z          covCN         q      C6AA      α(0)
     1   6 C        3.751    -0.104    22.556     6.773
     2   6 C        3.799    -0.053    21.526     6.606
     3   6 C        3.800    -0.059    21.641     6.623
     4   6 C        3.800    -0.061    21.665     6.627
     5   6 C        3.800    -0.060    21.664     6.627
     6   6 C        3.800    -0.060    21.653     6.625
     7   6 C        3.800    -0.064    21.728     6.637
     8   6 C        3.801    -0.069    21.821     6.651
     9   6 C        3.741    -0.019    20.996     6.538
    10   7 N        2.825     0.032    20.681     6.754
    11   6 C        3.080     0.068    26.404     8.424
    12   7 N        2.825     0.032    20.680     6.754
    13   6 C        3.122     0.039    26.945     8.501
    14   6 C        3.122     0.039    26.946     8.501
    15   6 C        2.908    -0.033    28.816     8.802
    16   6 C        2.925    -0.019    28.473     8.751
    17   6 C        2.925    -0.019    28.473     8.751
    18   6 C        2.908    -0.033    28.816     8.802
    19   6 C        3.741    -0.019    20.996     6.537
    20   6 C        3.801    -0.069    21.820     6.651
    21   6 C        3.800    -0.064    21.727     6.637
    22   6 C        3.800    -0.060    21.652     6.625
    23   6 C        3.800    -0.060    21.664     6.627
    24   6 C        3.800    -0.061    21.665     6.627
    25   6 C        3.800    -0.059    21.641     6.623
    26   6 C        3.799    -0.053    21.526     6.606
    27   6 C        3.751    -0.104    22.556     6.773
    28   1 H        0.925     0.034     2.529     2.487
    29   1 H        0.925     0.037     2.494     2.469
    30   1 H        0.925     0.039     2.466     2.456
    31   1 H        0.924     0.026     2.641     2.541
    32   1 H        0.924     0.032     2.556     2.500
    33   1 H        0.924     0.024     2.668     2.554
    34   1 H        0.924     0.037     2.485     2.465
    35   1 H        0.924     0.027     2.626     2.534
    36   1 H        0.924     0.043     2.413     2.429
    37   1 H        0.924     0.026     2.648     2.545
    38   1 H        0.924     0.044     2.395     2.420
    39   1 H        0.924     0.013     2.845     2.638
    40   1 H        0.924     0.047     2.358     2.401
    41   1 H        0.924     0.019     2.750     2.593
    42   1 H        0.925     0.062     2.177     2.308
    43   1 H        0.924     0.049     2.327     2.385
    44   1 H        0.925     0.074     2.042     2.235
    45   1 H        0.924     0.080     1.983     2.202
    46   1 H        0.924     0.081     1.966     2.193
    47   1 H        0.926     0.109     1.705     2.042
    48   1 H        0.926     0.069     2.096     2.264
    49   1 H        0.926     0.078     2.000     2.211
    50   1 H        0.926     0.078     2.000     2.211
    51   1 H        0.926     0.069     2.096     2.264
    52   1 H        0.924     0.081     1.967     2.193
    53   1 H        0.924     0.080     1.983     2.202
    54   1 H        0.925     0.074     2.041     2.234
    55   1 H        0.924     0.049     2.327     2.385
    56   1 H        0.925     0.062     2.178     2.308
    57   1 H        0.924     0.019     2.752     2.594
    58   1 H        0.924     0.047     2.358     2.402
    59   1 H        0.924     0.013     2.844     2.637
    60   1 H        0.924     0.044     2.395     2.420
    61   1 H        0.924     0.026     2.648     2.545
    62   1 H        0.924     0.043     2.412     2.429
    63   1 H        0.924     0.027     2.627     2.535
    64   1 H        0.924     0.037     2.485     2.465
    65   1 H        0.924     0.024     2.668     2.554
    66   1 H        0.924     0.032     2.556     2.500
    67   1 H        0.924     0.026     2.640     2.541
    68   1 H        0.925     0.039     2.466     2.456
    69   1 H        0.925     0.037     2.493     2.469
    70   1 H        0.925     0.034     2.528     2.487

Wiberg/Mayer (AO) data.
largest (>0.10) Wiberg bond orders for each atom

     #   Z sym  total        # sym  WBO       # sym  WBO       # sym  WBO
 ---------------------------------------------------------------------------
     1   6 C    3.996 --     2 C    1.020    30 H    0.987    29 H    0.987
                            28 H    0.986
     2   6 C    3.998 --     1 C    1.020     3 C    1.008    32 H    0.978
                            31 H    0.976
     3   6 C    3.997 --     2 C    1.008     4 C    1.007    34 H    0.976
                            33 H    0.976
     4   6 C    3.996 --     5 C    1.008     3 C    1.007    35 H    0.975
                            36 H    0.974
     5   6 C    3.996 --     4 C    1.008     6 C    1.007    37 H    0.975
                            38 H    0.973
     6   6 C    3.996 --     7 C    1.007     5 C    1.007    40 H    0.973
                            39 H    0.972
     7   6 C    3.993 --     8 C    1.009     6 C    1.007    41 H    0.973
                            42 H    0.969
     8   6 C    3.985 --     7 C    1.009     9 C    0.983    43 H    0.975
                            44 H    0.964
     9   6 C    3.941 --     8 C    0.983    10 N    0.970    45 H    0.965
                            46 H    0.961
    10   7 N    3.682 --    11 C    1.365    14 C    1.130     9 C    0.970
                            12 N    0.100
    11   6 C    3.953 --    12 N    1.365    10 N    1.365    47 H    0.945
    12   7 N    3.682 --    11 C    1.365    13 C    1.130    19 C    0.970
                            10 N    0.100
    13   6 C    3.954 --    18 C    1.338    14 C    1.272    12 N    1.130
    14   6 C    3.954 --    15 C    1.338    13 C    1.272    10 N    1.130
    15   6 C    3.986 --    16 C    1.497    14 C    1.338    48 H    0.963
                            18 C    0.119
    16   6 C    3.986 --    15 C    1.497    17 C    1.376    49 H    0.966
    17   6 C    3.986 --    18 C    1.497    16 C    1.376    50 H    0.966
    18   6 C    3.986 --    17 C    1.497    13 C    1.338    51 H    0.963
                            15 C    0.119
    19   6 C    3.941 --    20 C    0.983    12 N    0.970    53 H    0.965
                            52 H    0.961
    20   6 C    3.985 --    21 C    1.009    19 C    0.983    55 H    0.975
                            54 H    0.964
    21   6 C    3.993 --    20 C    1.009    22 C    1.007    57 H    0.973
                            56 H    0.969
    22   6 C    3.996 --    21 C    1.007    23 C    1.007    58 H    0.973
                            59 H    0.972
    23   6 C    3.996 --    24 C    1.008    22 C    1.007    61 H    0.975
                            60 H    0.973
    24   6 C    3.996 --    23 C    1.008    25 C    1.007    63 H    0.975
                            62 H    0.974
    25   6 C    3.997 --    26 C    1.008    24 C    1.007    64 H    0.976
                            65 H    0.976
    26   6 C    3.998 --    27 C    1.020    25 C    1.008    66 H    0.978
                            67 H    0.976
    27   6 C    3.996 --    26 C    1.020    68 H    0.987    69 H    0.987
                            70 H    0.986
    28   1 H    0.999 --     1 C    0.986
    29   1 H    0.999 --     1 C    0.987
    30   1 H    0.998 --     1 C    0.987
    31   1 H    0.999 --     2 C    0.976
    32   1 H    0.999 --     2 C    0.978
    33   1 H    0.999 --     3 C    0.976
    34   1 H    0.999 --     3 C    0.976
    35   1 H    0.999 --     4 C    0.975
    36   1 H    0.998 --     4 C    0.974
    37   1 H    0.999 --     5 C    0.975
    38   1 H    0.998 --     5 C    0.973
    39   1 H    1.000 --     6 C    0.972
    40   1 H    0.998 --     6 C    0.973
    41   1 H    1.000 --     7 C    0.973
    42   1 H    0.996 --     7 C    0.969
    43   1 H    0.998 --     8 C    0.975
    44   1 H    0.993 --     8 C    0.964
    45   1 H    0.993 --     9 C    0.965
    46   1 H    0.992 --     9 C    0.961
    47   1 H    0.987 --    11 C    0.945
    48   1 H    0.995 --    15 C    0.963
    49   1 H    0.994 --    16 C    0.966
    50   1 H    0.994 --    17 C    0.966
    51   1 H    0.995 --    18 C    0.963
    52   1 H    0.992 --    19 C    0.961
    53   1 H    0.993 --    19 C    0.965
    54   1 H    0.993 --    20 C    0.964
    55   1 H    0.998 --    20 C    0.975
    56   1 H    0.996 --    21 C    0.969
    57   1 H    1.000 --    21 C    0.973
    58   1 H    0.998 --    22 C    0.973
    59   1 H    1.000 --    22 C    0.972
    60   1 H    0.998 --    23 C    0.973
    61   1 H    0.999 --    23 C    0.975
    62   1 H    0.998 --    24 C    0.974
    63   1 H    0.999 --    24 C    0.975
    64   1 H    0.999 --    25 C    0.976
    65   1 H    0.999 --    25 C    0.976
    66   1 H    0.999 --    26 C    0.978
    67   1 H    0.999 --    26 C    0.976
    68   1 H    0.998 --    27 C    0.987
    69   1 H    0.999 --    27 C    0.987
    70   1 H    0.999 --    27 C    0.986
 ---------------------------------------------------------------------------

molecular dipole:
                 x           y           z       tot (Debye)
 q only:       -6.647      -4.010     -12.208
   full:       -6.629      -3.980     -12.185      36.681

           -------------------------------------------------
          | TOTAL ENERGY              -81.002285419879 Eh   |
          | GRADIENT NORM               0.000156337895 Eh/α |
          | HOMO-LUMO GAP               2.172175770144 eV   |
           -------------------------------------------------

 * finished run on 2024/12/20 at 07:19:07.487
