   * xtb version 6.7.1 (edcfbbe) compiled by 'conda@3ef47c1a292c' on 2024-11-25

   ID    Z sym.   atoms
    1    6 C      1-6, 8-12, 14, 15
    2    7 N      7, 13
    3    1 H      16-38

          program call               : xtb C1309.xyz --opt --namespace C1309 --charge +1
          :  Hamiltonian                  GFN2-xTB          :
 * total energy  :   -45.0416502 Eh     change       -0.3473133E-09 Eh
 * total energy  :   -45.0479221 Eh     change       -0.6271897E-02 Eh
 * total energy  :   -45.0505362 Eh     change       -0.2614134E-02 Eh
 * total energy  :   -45.0514664 Eh     change       -0.9301480E-03 Eh
 * total energy  :   -45.0524124 Eh     change       -0.9459837E-03 Eh
 * total energy  :   -45.0530175 Eh     change       -0.6050982E-03 Eh
 * total energy  :   -45.0536579 Eh     change       -0.6404143E-03 Eh
 * total energy  :   -45.0541944 Eh     change       -0.5365117E-03 Eh
 * total energy  :   -45.0545954 Eh     change       -0.4010409E-03 Eh
 * total energy  :   -45.0547523 Eh     change       -0.1568480E-03 Eh
 * total energy  :   -45.0560953 Eh     change       -0.1920638E-04 Eh
 * total energy  :   -45.0561146 Eh     change       -0.1926659E-04 Eh
 * total energy  :   -45.0561404 Eh     change       -0.2582192E-04 Eh
 * total energy  :   -45.0561728 Eh     change       -0.3239050E-04 Eh
 * total energy  :   -45.0562093 Eh     change       -0.3651759E-04 Eh
 * total energy  :   -45.0562381 Eh     change       -0.2875953E-04 Eh
 * total energy  :   -45.0562550 Eh     change       -0.1688571E-04 Eh
 * total energy  :   -45.0562615 Eh     change       -0.6511474E-05 Eh
 * total energy  :   -45.0562646 Eh     change       -0.3144930E-05 Eh
   *** GEOMETRY OPTIMIZATION CONVERGED AFTER 37 ITERATIONS ***

 final structure:
================
38
 xtb: 6.7.1 (edcfbbe)
C            1.33685370161482        0.07058737909667        0.62674740893464
C            0.30290254217885        1.06457525342726        1.14154648377194
C            0.67019266223653        2.52238857735177        0.85645803501025
C            0.82894585138788        2.87142796752345       -0.62629692767468
C           -0.40265078950411        2.59903148749680       -1.49056028974115
C           -1.61402175937852        3.47200133709971       -1.14085947835853
N           -1.35786752537255        4.86707775646003       -1.44512304182334
C           -0.92623394092540        5.71990061832424       -0.49806561632850
C           -0.60718019565645        7.01533430344461       -0.77335018177129
C           -0.70971155084650        7.52410006246526       -2.09731469006251
C           -1.16560949435930        6.58847594685431       -3.06790652079599
C           -1.46812964901642        5.31007829018781       -2.71260930755406
N           -0.40622753045001        8.78164111021784       -2.40562035837228
C           -0.02887596033059        9.72747040770101       -1.37724451420983
C           -0.44425398809143        9.23997322342616       -3.77791839053714
H            1.38095691306879        0.06624460159210       -0.45949979486762
H            1.08254695679212       -0.93345028895286        0.95547328120573
H            2.32372777852837        0.31487961041490        1.01251752708995
H           -0.67482506297360        0.83027674801013        0.71521370691237
H            0.21515130485499        0.95023425010038        2.22377326724856
H           -0.08333304075431        3.16551022790868        1.31907678482598
H            1.61977226240265        2.74165715352484        1.34888365692067
H            1.11128710420566        3.92536869404929       -0.71174559552941
H            1.65599978093208        2.28960174643828       -1.03265751525267
H           -0.14199223384711        2.76102661088162       -2.53905008580522
H           -0.70003892199644        1.55699971402233       -1.38403511736687
H           -2.48053914498216        3.14403041785620       -1.71932998357868
H           -1.85075778898207        3.37868093131825       -0.08081510355147
H           -0.84614701735197        5.33285089516967        0.50595990116087
H           -0.26527731652551        7.63862595352733        0.03357924284757
H           -1.29268819228966        6.87707735059300       -4.09617901491217
H           -1.82073859597982        4.59885388773489       -3.44405560008375
H            0.02858868136033       10.72424620314387       -1.80450712283325
H           -0.77108827004137        9.74691738256356       -0.57780348971442
H            0.94694541324449        9.47917624926052       -0.95295158024515
H            0.14646950001882        8.58608635745902       -4.42126158622148
H           -1.46985520024449        9.27822158267150       -4.15243441792228
H           -0.02174728292462       10.23846999963868       -3.83854397081265

          :  Hamiltonian                  GFN2-xTB          :
         :: total energy             -45.056264608750 Eh    ::
         :: gradient norm              0.000429442731 Eh/a0 ::
         :: HOMO-LUMO gap              2.857299310247 eV    ::
         :: SCC energy               -45.763046202798 Eh    ::
         :: -> dispersion             -0.031054022220 Eh    ::
         :: repulsion energy           0.706781594048 Eh    ::

    * Orbital Energies and Occupations

         #    Occupation            Energy/Eh            Energy/eV
      -------------------------------------------------------------
         1        2.0000           -0.8415108             -22.8987
       ...           ...                  ...                  ...
        30        2.0000           -0.6015208             -16.3682
        31        2.0000           -0.5925691             -16.1246
        32        2.0000           -0.5865673             -15.9613
        33        2.0000           -0.5837642             -15.8850
        34        2.0000           -0.5807531             -15.8031
        35        2.0000           -0.5752616             -15.6537
        36        2.0000           -0.5577540             -15.1773
        37        2.0000           -0.5507841             -14.9876
        38        2.0000           -0.5433004             -14.7840
        39        2.0000           -0.5233894             -14.2422
        40        2.0000           -0.5193146             -14.1313
        41        2.0000           -0.5157996             -14.0356
        42        2.0000           -0.5105773             -13.8935 (HOMO)
        43                         -0.4055735             -11.0362 (LUMO)
        44                         -0.3906329             -10.6297
        45                         -0.2685270              -7.3070
        46                         -0.1493367              -4.0637
        47                         -0.1401823              -3.8146
        48                         -0.0624205              -1.6985
        49                         -0.0532464              -1.4489
        50                         -0.0399072              -1.0859
        51                         -0.0218809              -0.5954
        52                         -0.0194580              -0.5295
        53                         -0.0174188              -0.4740
       ...                                ...                  ...
        83                          0.4893956              13.3171
      -------------------------------------------------------------
                  HL-Gap            0.1050038 Eh            2.8573 eV

     #   Z          covCN         q      C6AA      α(0)
     1   6 C        3.751    -0.108    22.629     6.784
     2   6 C        3.799    -0.057    21.592     6.616
     3   6 C        3.800    -0.061    21.675     6.629
     4   6 C        3.800    -0.064    21.730     6.637
     5   6 C        3.801    -0.068    21.810     6.649
     6   6 C        3.754    -0.028    21.126     6.554
     7   7 N        2.748     0.063    20.137     6.665
     8   6 C        2.885     0.028    27.374     8.578
     9   6 C        2.917    -0.059    29.458     8.900
    10   6 C        2.922     0.089    26.015     8.364
    11   6 C        2.917    -0.057    29.420     8.895
    12   6 C        2.887     0.026    27.412     8.584
    13   7 N        2.735    -0.005    21.359     6.864
    14   6 C        3.700    -0.074    22.079     6.720
    15   6 C        3.699    -0.074    22.080     6.720
    16   1 H        0.925     0.035     2.517     2.481
    17   1 H        0.925     0.044     2.390     2.418
    18   1 H        0.925     0.042     2.425     2.435
    19   1 H        0.924     0.029     2.598     2.521
    20   1 H        0.924     0.041     2.438     2.442
    21   1 H        0.924     0.019     2.749     2.593
    22   1 H        0.924     0.045     2.385     2.415
    23   1 H        0.924     0.023     2.691     2.565
    24   1 H        0.925     0.059     2.209     2.324
    25   1 H        0.924     0.046     2.374     2.410
    26   1 H        0.925     0.075     2.033     2.230
    27   1 H        0.924     0.076     2.023     2.224
    28   1 H        0.925     0.084     1.936     2.176
    29   1 H        0.926     0.091     1.865     2.135
    30   1 H        0.926     0.083     1.946     2.182
    31   1 H        0.926     0.084     1.942     2.179
    32   1 H        0.926     0.090     1.883     2.146
    33   1 H        0.925     0.087     1.904     2.158
    34   1 H        0.924     0.077     2.014     2.219
    35   1 H        0.924     0.077     2.013     2.218
    36   1 H        0.924     0.076     2.017     2.221
    37   1 H        0.924     0.077     2.010     2.217
    38   1 H        0.925     0.087     1.904     2.158

Wiberg/Mayer (AO) data.
largest (>0.10) Wiberg bond orders for each atom

     #   Z sym  total        # sym  WBO       # sym  WBO       # sym  WBO
 ---------------------------------------------------------------------------
     1   6 C    3.995 --     2 C    1.021    18 H    0.987    17 H    0.986
                            16 H    0.986
     2   6 C    3.997 --     1 C    1.021     3 C    1.007    20 H    0.977
                            19 H    0.976
     3   6 C    3.996 --     2 C    1.007     4 C    1.007    22 H    0.976
                            21 H    0.974
     4   6 C    3.994 --     5 C    1.009     3 C    1.007    23 H    0.975
                            24 H    0.970
     5   6 C    3.982 --     4 C    1.009     6 C    0.984    25 H    0.974
                            26 H    0.964
     6   6 C    3.943 --     5 C    0.984     7 N    0.968    27 H    0.965
                            28 H    0.963
     7   7 N    3.714 --     8 C    1.263    12 C    1.259     6 C    0.968
     8   6 C    3.965 --     9 C    1.569     7 N    1.263    29 H    0.955
     9   6 C    3.985 --     8 C    1.569    10 C    1.234    30 H    0.959
    10   6 C    3.976 --    13 N    1.352     9 C    1.234    11 C    1.229
    11   6 C    3.985 --    12 C    1.578    10 C    1.229    31 H    0.959
    12   6 C    3.966 --    11 C    1.578     7 N    1.259    32 H    0.958
    13   7 N    3.589 --    10 C    1.352    14 C    0.996    15 C    0.996
    14   6 C    3.956 --    13 N    0.996    33 H    0.975    34 H    0.970
                            35 H    0.968
    15   6 C    3.956 --    13 N    0.996    38 H    0.975    36 H    0.971
                            37 H    0.968
    16   1 H    0.999 --     1 C    0.986
    17   1 H    0.998 --     1 C    0.986
    18   1 H    0.998 --     1 C    0.987
    19   1 H    0.999 --     2 C    0.976
    20   1 H    0.998 --     2 C    0.977
    21   1 H    1.000 --     3 C    0.974
    22   1 H    0.998 --     3 C    0.976
    23   1 H    0.999 --     4 C    0.975
    24   1 H    0.996 --     4 C    0.970
    25   1 H    0.998 --     5 C    0.974
    26   1 H    0.993 --     5 C    0.964
    27   1 H    0.992 --     6 C    0.965
    28   1 H    0.992 --     6 C    0.963
    29   1 H    0.991 --     8 C    0.955
    30   1 H    0.993 --     9 C    0.959
    31   1 H    0.993 --    11 C    0.959
    32   1 H    0.991 --    12 C    0.958
    33   1 H    0.992 --    14 C    0.975
    34   1 H    0.994 --    14 C    0.970
    35   1 H    0.994 --    14 C    0.968
    36   1 H    0.994 --    15 C    0.971
    37   1 H    0.994 --    15 C    0.968
    38   1 H    0.992 --    15 C    0.975
 ---------------------------------------------------------------------------

molecular dipole:
                 x           y           z       tot (Debye)
 q only:       -1.403      12.036      -3.403
   full:       -1.474      12.050      -3.417      32.056

           -------------------------------------------------
          | TOTAL ENERGY              -45.056264608750 Eh   |
          | GRADIENT NORM               0.000429442731 Eh/α |
          | HOMO-LUMO GAP               2.857299310247 eV   |
           -------------------------------------------------

 * finished run on 2024/12/20 at 07:19:08.756
