   * xtb version 6.7.1 (edcfbbe) compiled by 'conda@3ef47c1a292c' on 2024-11-25

   ID    Z sym.   atoms
    1    6 C      1-4, 6, 9-16, 18-23
    2    7 N      5, 7, 8
    3    8 O      17
    4    1 H      24-45

          program call               : xtb C1306.xyz --opt --namespace C1306 --charge +1
          :  Hamiltonian                  GFN2-xTB          :
 * total energy  :   -64.3863385 Eh     change       -0.4501999E-09 Eh
 * total energy  :   -64.3921338 Eh     change       -0.5795221E-02 Eh
 * total energy  :   -64.3932734 Eh     change       -0.1139651E-02 Eh
 * total energy  :   -64.3935455 Eh     change       -0.2720427E-03 Eh
 * total energy  :   -64.3937350 Eh     change       -0.1895322E-03 Eh
 * total energy  :   -64.3938541 Eh     change       -0.1191649E-03 Eh
 * total energy  :   -64.3940017 Eh     change       -0.1475729E-03 Eh
 * total energy  :   -64.3941844 Eh     change       -0.1826874E-03 Eh
 * total energy  :   -64.3943662 Eh     change       -0.1818161E-03 Eh
 * total energy  :   -64.3945163 Eh     change       -0.1500474E-03 Eh
 * total energy  :   -64.3949546 Eh     change       -0.3604374E-04 Eh
 * total energy  :   -64.3949873 Eh     change       -0.3270769E-04 Eh
 * total energy  :   -64.3950135 Eh     change       -0.2614352E-04 Eh
 * total energy  :   -64.3950385 Eh     change       -0.2505250E-04 Eh
 * total energy  :   -64.3950495 Eh     change       -0.1095085E-04 Eh
 * total energy  :   -64.3950611 Eh     change       -0.1160442E-04 Eh
 * total energy  :   -64.3950567 Eh     change        0.4340910E-05 Eh
 * total energy  :   -64.3950642 Eh     change       -0.7460116E-05 Eh
 * total energy  :   -64.3950691 Eh     change       -0.4914776E-05 Eh
   *** GEOMETRY OPTIMIZATION CONVERGED AFTER 26 ITERATIONS ***

 final structure:
================
45
 xtb: 6.7.1 (edcfbbe)
C            1.87960042586094       -0.48245636205802        0.01428858113642
C            1.13426410299395       -1.22510800241213        1.11667590686917
C            1.25643730194756       -0.54120098038555        2.48104726021428
C            0.37991223957141        0.70971936441725        2.61072255709920
N           -1.03050289751259        0.38002811529380        2.63707429781113
C           -1.69155019252510       -0.12555692728906        3.69401862900687
N           -1.18875710995515       -0.30240598480542        4.91208020000255
N           -2.97843044331290       -0.37019687258971        3.36352367297413
C           -3.15901287082637       -0.00414101247048        2.03402390637584
C           -1.91914520216054        0.46399683724019        1.57174397024786
C           -1.76200216880959        0.91159837423669        0.27100810324242
C           -2.87492537457175        0.87827740491262       -0.54971818282813
C           -4.10653171046127        0.42405611253491       -0.08804799400258
C           -4.27217871671949       -0.02256454744194        1.21108075724363
C           -4.00250541472888       -0.84938030388005        4.26725502948042
C           -3.64842425239253       -2.23937963108042        4.83666194882636
O           -2.81764533285787       -2.29984042848525        5.72532969853533
C           -4.32280143327410       -3.41380054557540        4.29709250796494
C           -4.86919714284532       -3.45316747074337        3.00957764035322
C           -5.46947679316283       -4.60879307653727        2.55134439458625
C           -5.55073690953368       -5.72821603891213        3.36802667539167
C           -5.00482318119194       -5.70200490144513        4.64313668004923
C           -4.38370718286823       -4.55870292450028        5.10206910235138
H            1.51952836527710        0.53624697551351       -0.10464076882671
H            1.75197885921601       -0.99685632397278       -0.93395930728272
H            2.94239871481512       -0.44168920586098        0.23782833366109
H            0.08019208053360       -1.33097461880889        0.84819372041480
H            1.55077048392474       -2.23000773002928        1.19842101287840
H            0.98652867892332       -1.25298380714230        3.26486176252928
H            2.29438896776905       -0.24760590010373        2.64191157456822
H            0.62814563026901        1.25994483641348        3.52294755126944
H            0.54578575589098        1.37636980256163        1.76511158111222
H           -0.20774950660756       -0.15432494078882        5.07376511748365
H           -1.69769437313601       -0.90020278385950        5.56933686417805
H           -0.81631067536187        1.27089025152188       -0.09807823748962
H           -2.78701691579697        1.21759222332970       -1.56907791337710
H           -4.95279691224428        0.42358626696117       -0.75580038866400
H           -5.23814231641027       -0.35416224885878        1.55660009836272
H           -4.08222593534044       -0.16222736178712        5.11870229264490
H           -4.95341179336730       -0.86341411091514        3.73922004674174
H           -4.78578834178530       -2.60449740102199        2.34815209745387
H           -5.87860537085931       -4.63958423706869        1.55350767860151
H           -6.03480373429284       -6.62203230639300        3.00640935058351
H           -5.06036944059093       -6.57481359711120        5.27447197928905
H           -3.95143196151297       -4.51898398060349        6.09022021093888

          :  Hamiltonian                  GFN2-xTB          :
         :: total energy             -64.395069112617 Eh    ::
         :: gradient norm              0.000691434727 Eh/a0 ::
         :: HOMO-LUMO gap              2.794871161123 eV    ::
         :: SCC energy               -65.430587175195 Eh    ::
         :: -> dispersion             -0.047550642031 Eh    ::
         :: repulsion energy           1.035518062578 Eh    ::

    * Orbital Energies and Occupations

         #    Occupation            Energy/Eh            Energy/eV
      -------------------------------------------------------------
         1        2.0000           -0.8670011             -23.5923
       ...           ...                  ...                  ...
        47        2.0000           -0.5725521             -15.5799
        48        2.0000           -0.5661179             -15.4049
        49        2.0000           -0.5593104             -15.2196
        50        2.0000           -0.5530911             -15.0504
        51        2.0000           -0.5500454             -14.9675
        52        2.0000           -0.5422647             -14.7558
        53        2.0000           -0.5371575             -14.6168
        54        2.0000           -0.5364603             -14.5978
        55        2.0000           -0.5324462             -14.4886
        56        2.0000           -0.5271192             -14.3436
        57        2.0000           -0.5232901             -14.2394
        58        2.0000           -0.5217443             -14.1974
        59        2.0000           -0.5150727             -14.0158 (HOMO)
        60                         -0.4123631             -11.2210 (LUMO)
        61                         -0.3763856             -10.2420
        62                         -0.3463228              -9.4239
        63                         -0.3399512              -9.2505
        64                         -0.3327258              -9.0539
        65                         -0.3193254              -8.6893
        66                         -0.2210626              -6.0154
        67                         -0.2066608              -5.6235
        68                         -0.1774664              -4.8291
        69                         -0.1278374              -3.4786
        70                         -0.1105048              -3.0070
       ...                                ...                  ...
       114                          0.5614373              15.2775
      -------------------------------------------------------------
                  HL-Gap            0.1027096 Eh            2.7949 eV

     #   Z          covCN         q      C6AA      α(0)
     1   6 C        3.752    -0.110    22.674     6.790
     2   6 C        3.800    -0.058    21.616     6.620
     3   6 C        3.801    -0.070    21.843     6.654
     4   6 C        3.739    -0.014    20.905     6.524
     5   7 N        2.817    -0.030    21.828     6.939
     6   6 C        2.986     0.199    23.775     7.998
     7   7 N        2.637    -0.255    26.624     7.663
     8   7 N        2.819    -0.033    21.877     6.947
     9   6 C        3.078     0.036    27.112     8.537
    10   6 C        3.084     0.040    27.003     8.519
    11   6 C        2.911    -0.036    28.891     8.814
    12   6 C        2.925    -0.024    28.613     8.772
    13   6 C        2.925    -0.024    28.615     8.772
    14   6 C        2.911    -0.039    28.981     8.827
    15   6 C        3.738    -0.038    21.336     6.591
    16   6 C        2.822     0.224    23.293     7.908
    17   8 O        0.858    -0.365    20.987     6.142
    18   6 C        2.971    -0.015    28.377     8.738
    19   6 C        2.919    -0.026    28.662     8.779
    20   6 C        2.917    -0.020    28.513     8.756
    21   6 C        2.920    -0.007    28.203     8.709
    22   6 C        2.916    -0.017    28.444     8.746
    23   6 C        2.926    -0.009    28.245     8.716
    24   1 H        0.925     0.033     2.541     2.493
    25   1 H        0.925     0.050     2.316     2.380
    26   1 H        0.925     0.049     2.330     2.387
    27   1 H        0.924     0.030     2.585     2.515
    28   1 H        0.924     0.050     2.319     2.381
    29   1 H        0.924     0.038     2.474     2.460
    30   1 H        0.924     0.067     2.117     2.276
    31   1 H        0.924     0.062     2.172     2.305
    32   1 H        0.925     0.087     1.908     2.160
    33   1 H        0.860     0.215     1.034     1.593
    34   1 H        0.859     0.261     0.842     1.438
    35   1 H        0.926     0.066     2.127     2.281
    36   1 H        0.926     0.072     2.061     2.245
    37   1 H        0.926     0.071     2.075     2.252
    38   1 H        0.926     0.056     2.241     2.341
    39   1 H        0.924     0.089     1.893     2.152
    40   1 H        0.925     0.091     1.867     2.137
    41   1 H        0.926     0.041     2.429     2.437
    42   1 H        0.926     0.059     2.215     2.327
    43   1 H        0.926     0.066     2.125     2.279
    44   1 H        0.926     0.066     2.128     2.281
    45   1 H        0.926     0.072     2.063     2.246

Wiberg/Mayer (AO) data.
largest (>0.10) Wiberg bond orders for each atom

     #   Z sym  total        # sym  WBO       # sym  WBO       # sym  WBO
 ---------------------------------------------------------------------------
     1   6 C    3.994 --     2 C    1.021    26 H    0.986    25 H    0.985
                            24 H    0.983
     2   6 C    3.995 --     1 C    1.021     3 C    1.007    27 H    0.976
                            28 H    0.976
     3   6 C    3.988 --     2 C    1.007     4 C    0.992    29 H    0.975
                            30 H    0.970
     4   6 C    3.946 --     3 C    0.992     5 N    0.969    31 H    0.964
                            32 H    0.961
     5   7 N    3.598 --     6 C    1.261    10 C    1.090     4 C    0.969
     6   6 C    3.972 --     7 N    1.308     5 N    1.261     8 N    1.241
     7   7 N    3.372 --     6 C    1.308    33 H    0.929    34 H    0.859
     8   7 N    3.584 --     6 C    1.241     9 C    1.085    15 C    0.975
     9   6 C    3.948 --    14 C    1.369    10 C    1.283     8 N    1.085
    10   6 C    3.952 --    11 C    1.368     9 C    1.283     5 N    1.090
    11   6 C    3.986 --    12 C    1.462    10 C    1.368    35 H    0.961
                            14 C    0.113
    12   6 C    3.981 --    11 C    1.462    13 C    1.410    36 H    0.967
    13   6 C    3.981 --    14 C    1.460    12 C    1.410    37 H    0.967
    14   6 C    3.986 --    13 C    1.460     9 C    1.369    38 H    0.961
                            11 C    0.113
    15   6 C    3.951 --     8 N    0.975    40 H    0.963    39 H    0.953
                            16 C    0.942
    16   6 C    3.924 --    17 O    1.773    18 C    1.088    15 C    0.942
    17   8 O    2.098 --    16 C    1.773
    18   6 C    3.986 --    19 C    1.351    23 C    1.348    16 C    1.088
    19   6 C    3.991 --    20 C    1.471    18 C    1.351    41 H    0.964
                            22 C    0.102
    20   6 C    3.990 --    19 C    1.471    21 C    1.419    42 H    0.968
    21   6 C    3.984 --    22 C    1.426    20 C    1.419    43 H    0.968
    22   6 C    3.989 --    23 C    1.465    21 C    1.426    44 H    0.967
                            19 C    0.102
    23   6 C    3.984 --    22 C    1.465    18 C    1.348    45 H    0.965
    24   1 H    0.999 --     1 C    0.983
    25   1 H    0.997 --     1 C    0.985
    26   1 H    0.998 --     1 C    0.986
    27   1 H    0.999 --     2 C    0.976
    28   1 H    0.997 --     2 C    0.976
    29   1 H    0.999 --     3 C    0.975
    30   1 H    0.995 --     3 C    0.970
    31   1 H    0.995 --     4 C    0.964
    32   1 H    0.992 --     4 C    0.961
    33   1 H    0.953 --     7 N    0.929
    34   1 H    0.931 --     7 N    0.859
    35   1 H    0.995 --    11 C    0.961
    36   1 H    0.994 --    12 C    0.967
    37   1 H    0.995 --    13 C    0.967
    38   1 H    0.996 --    14 C    0.961
    39   1 H    0.991 --    15 C    0.953
    40   1 H    0.991 --    15 C    0.963
    41   1 H    0.998 --    19 C    0.964
    42   1 H    0.996 --    20 C    0.968
    43   1 H    0.995 --    21 C    0.968
    44   1 H    0.995 --    22 C    0.967
    45   1 H    0.995 --    23 C    0.965
 ---------------------------------------------------------------------------

molecular dipole:
                 x           y           z       tot (Debye)
 q only:       -4.444      -1.671       5.189
   full:       -4.470      -1.641       5.308      18.124

           -------------------------------------------------
          | TOTAL ENERGY              -64.395069112617 Eh   |
          | GRADIENT NORM               0.000691434727 Eh/α |
          | HOMO-LUMO GAP               2.794871161123 eV   |
           -------------------------------------------------

 * finished run on 2024/12/20 at 07:18:58.242
