   * xtb version 6.7.1 (edcfbbe) compiled by 'conda@3ef47c1a292c' on 2024-11-25

   ID    Z sym.   atoms
    1    6 C      1, 2, 4, 5, 7-12
    2    8 O      3
    3    7 N      6
    4    1 H      13-34

          program call               : xtb C1303.xyz --opt --namespace C1303 --charge +1
          :  Hamiltonian                  GFN2-xTB          :
 * total energy  :   -39.1740803 Eh     change       -0.4170531E-09 Eh
 * total energy  :   -39.1821878 Eh     change       -0.8107524E-02 Eh
 * total energy  :   -39.1843639 Eh     change       -0.2176160E-02 Eh
 * total energy  :   -39.1846007 Eh     change       -0.2367814E-03 Eh
 * total energy  :   -39.1850103 Eh     change       -0.4095432E-03 Eh
 * total energy  :   -39.1852534 Eh     change       -0.2430933E-03 Eh
 * total energy  :   -39.1858048 Eh     change       -0.5514524E-03 Eh
 * total energy  :   -39.1860785 Eh     change       -0.2736485E-03 Eh
 * total energy  :   -39.1865246 Eh     change       -0.4461691E-03 Eh
 * total energy  :   -39.1868943 Eh     change       -0.3696602E-03 Eh
 * total energy  :   -39.1900146 Eh     change       -0.4158929E-04 Eh
 * total energy  :   -39.1900480 Eh     change       -0.3341073E-04 Eh
 * total energy  :   -39.1900820 Eh     change       -0.3405722E-04 Eh
 * total energy  :   -39.1901072 Eh     change       -0.2517707E-04 Eh
 * total energy  :   -39.1900586 Eh     change        0.4858180E-04 Eh
 * total energy  :   -39.1901271 Eh     change       -0.6844220E-04 Eh
 * total energy  :   -39.1901356 Eh     change       -0.8489958E-05 Eh
 * total energy  :   -39.1901385 Eh     change       -0.2967326E-05 Eh
 * total energy  :   -39.1901411 Eh     change       -0.2600680E-05 Eh
   *** GEOMETRY OPTIMIZATION CONVERGED AFTER 35 ITERATIONS ***

 final structure:
================
34
 xtb: 6.7.1 (edcfbbe)
C           -0.45307305785921        2.81658988570789        0.14160409830253
C            0.33639722772387        1.94699045143713       -0.45770157611168
O            0.20387917407855        0.58323334642432       -0.51690951741861
C           -0.93383208740735        0.01591381188453        0.08895017422683
C           -1.00517836150646       -1.48392943463061       -0.21717403475101
N            0.23335813218669       -2.27141167992587        0.04504469200867
C            0.84716460257670       -1.89449112535938        1.36131858281338
C            0.00368703653159       -2.16459528181273        2.59910538310521
C           -0.11789201068241       -3.72679381119990        0.11018688518866
C           -0.59572240107571       -4.37875470552303       -1.17693035238293
C            1.29988700143792       -2.03397807351315       -0.99586543765070
C            0.85355783018318       -1.73709049276336       -2.42014013856715
H           -1.34528101450230        2.55195546334154        0.67996897787186
H           -0.21445604919881        3.86158110924699        0.09933335508477
H            1.22933369909774        2.23352208570956       -0.99309699760660
H           -0.92129147521724        0.20778155562794        1.16997100881810
H           -1.84765675874524        0.47138337830432       -0.31719952864333
H           -1.81313392558647       -1.90106188828282        0.38585692145035
H           -1.26034630665638       -1.61547168299321       -1.26692754314023
H            1.78626349869369       -2.44576207188455        1.44782046563801
H            1.08947801391230       -0.83279611502743        1.31059573255980
H           -0.09845090348399       -3.22494158308776        2.81024766733040
H            0.51434001443058       -1.71681990159864        3.44842254147301
H           -0.98441689715369       -1.71788342811388        2.54046926151872
H            0.77091811610594       -4.25556540859893        0.46170843146100
H           -0.89881354306567       -3.83852043711732        0.86295058936703
H            0.18972521186176       -4.44414433458476       -1.92293431084744
H           -0.89499233498494       -5.39623759133948       -0.93510501412077
H           -1.46202777652647       -3.87863176429936       -1.59945179036004
H            1.88704803102180       -1.17598244038474       -0.66858307148491
H            1.94336436273204       -2.91524817431082       -0.98559244118676
H            0.39289499450858       -0.75679275799504       -2.48997087221313
H            1.75141078589846       -1.71395098352648       -3.03345673121168
H            0.19033717065991       -2.48429591980541       -2.84100541052138

          :  Hamiltonian                  GFN2-xTB          :
         :: total energy             -39.190141126399 Eh    ::
         :: gradient norm              0.000900745261 Eh/a0 ::
         :: HOMO-LUMO gap              5.388893196969 eV    ::
         :: SCC energy               -39.726237826057 Eh    ::
         :: -> dispersion             -0.026684916246 Eh    ::
         :: repulsion energy           0.536096699657 Eh    ::

    * Orbital Energies and Occupations

         #    Occupation            Energy/Eh            Energy/eV
      -------------------------------------------------------------
         1        2.0000           -0.8535889             -23.2273
       ...           ...                  ...                  ...
        24        2.0000           -0.6298272             -17.1385
        25        2.0000           -0.6209444             -16.8968
        26        2.0000           -0.6184681             -16.8294
        27        2.0000           -0.6128378             -16.6762
        28        2.0000           -0.6089175             -16.5695
        29        2.0000           -0.6034605             -16.4210
        30        2.0000           -0.5995032             -16.3133
        31        2.0000           -0.5950017             -16.1908
        32        2.0000           -0.5860308             -15.9467
        33        2.0000           -0.5812467             -15.8165
        34        2.0000           -0.5741512             -15.6234
        35        2.0000           -0.5552468             -15.1090
        36        2.0000           -0.5014336             -13.6447 (HOMO)
        37                         -0.3033954              -8.2558 (LUMO)
        38                         -0.2392387              -6.5100
        39                         -0.1745347              -4.7493
        40                         -0.1640209              -4.4632
        41                         -0.1589339              -4.3248
        42                         -0.1081735              -2.9436
        43                         -0.0648111              -1.7636
        44                         -0.0532624              -1.4493
        45                         -0.0421111              -1.1459
        46                         -0.0332469              -0.9047
        47                         -0.0211714              -0.5761
       ...                                ...                  ...
        70                          0.5281621              14.3720
      -------------------------------------------------------------
                  HL-Gap            0.1980382 Eh            5.3889 eV

     #   Z          covCN         q      C6AA      α(0)
     1   6 C        2.833    -0.129    31.291     9.167
     2   6 C        2.782     0.089    26.001     8.352
     3   8 O        1.704    -0.283    18.703     5.839
     4   6 C        3.695     0.071    19.566     6.328
     5   6 C        3.750    -0.039    21.330     6.587
     6   7 N        3.616     0.106    19.407     6.543
     7   6 C        3.763    -0.034    21.227     6.567
     8   6 C        3.750    -0.129    23.043     6.846
     9   6 C        3.758    -0.032    21.193     6.563
    10   6 C        3.751    -0.128    23.026     6.843
    11   6 C        3.753    -0.031    21.188     6.564
    12   6 C        3.751    -0.131    23.075     6.851
    13   1 H        0.926     0.051     2.301     2.372
    14   1 H        0.926     0.068     2.110     2.271
    15   1 H        0.926     0.065     2.147     2.291
    16   1 H        0.923     0.053     2.281     2.362
    17   1 H        0.923     0.066     2.125     2.280
    18   1 H        0.924     0.086     1.919     2.166
    19   1 H        0.925     0.105     1.739     2.062
    20   1 H        0.924     0.080     1.975     2.197
    21   1 H        0.925     0.095     1.829     2.115
    22   1 H        0.925     0.066     2.125     2.280
    23   1 H        0.925     0.086     1.923     2.169
    24   1 H        0.925     0.062     2.177     2.307
    25   1 H        0.924     0.082     1.957     2.188
    26   1 H        0.924     0.085     1.931     2.173
    27   1 H        0.925     0.072     2.066     2.248
    28   1 H        0.925     0.083     1.946     2.182
    29   1 H        0.925     0.063     2.163     2.300
    30   1 H        0.925     0.097     1.816     2.107
    31   1 H        0.924     0.079     1.993     2.208
    32   1 H        0.925     0.080     1.980     2.200
    33   1 H        0.925     0.081     1.967     2.193
    34   1 H        0.925     0.065     2.139     2.287

Wiberg/Mayer (AO) data.
largest (>0.10) Wiberg bond orders for each atom

     #   Z sym  total        # sym  WBO       # sym  WBO       # sym  WBO
 ---------------------------------------------------------------------------
     1   6 C    3.984 --     2 C    1.908    14 H    0.972    13 H    0.971
                             3 O    0.115
     2   6 C    3.922 --     1 C    1.908     3 O    1.030    15 H    0.954
     3   8 O    2.206 --     2 C    1.030     4 C    0.984     1 C    0.115
     4   6 C    3.956 --     5 C    1.002     3 O    0.984    16 H    0.961
                            17 H    0.958
     5   6 C    3.943 --     4 C    1.002    18 H    0.964    19 H    0.958
                             6 N    0.945
     6   7 N    3.799 --     5 C    0.945     9 C    0.930     7 C    0.928
                            11 C    0.918
     7   6 C    3.934 --     8 C    1.022    20 H    0.968    21 H    0.963
                             6 N    0.928
     8   6 C    3.983 --     7 C    1.022    22 H    0.981    24 H    0.980
                            23 H    0.973
     9   6 C    3.935 --    10 C    1.022    25 H    0.967    26 H    0.964
                             6 N    0.930
    10   6 C    3.982 --     9 C    1.022    29 H    0.981    27 H    0.979
                            28 H    0.973
    11   6 C    3.927 --    12 C    1.023    31 H    0.969    30 H    0.964
                             6 N    0.918
    12   6 C    3.980 --    11 C    1.023    32 H    0.977    34 H    0.977
                            33 H    0.971
    13   1 H    0.997 --     1 C    0.971
    14   1 H    0.995 --     1 C    0.972
    15   1 H    0.995 --     2 C    0.954
    16   1 H    0.997 --     4 C    0.961
    17   1 H    0.995 --     4 C    0.958
    18   1 H    0.992 --     5 C    0.964
    19   1 H    0.989 --     5 C    0.958
    20   1 H    0.994 --     7 C    0.968
    21   1 H    0.991 --     7 C    0.963
    22   1 H    0.996 --     8 C    0.981
    23   1 H    0.992 --     8 C    0.973
    24   1 H    0.996 --     8 C    0.980
    25   1 H    0.993 --     9 C    0.967
    26   1 H    0.993 --     9 C    0.964
    27   1 H    0.995 --    10 C    0.979
    28   1 H    0.993 --    10 C    0.973
    29   1 H    0.996 --    10 C    0.981
    30   1 H    0.991 --    11 C    0.964
    31   1 H    0.994 --    11 C    0.969
    32   1 H    0.994 --    12 C    0.977
    33   1 H    0.993 --    12 C    0.971
    34   1 H    0.996 --    12 C    0.977
 ---------------------------------------------------------------------------

molecular dipole:
                 x           y           z       tot (Debye)
 q only:        0.080      -3.993       0.076
   full:        0.005      -3.967       0.204      10.096

           -------------------------------------------------
          | TOTAL ENERGY              -39.190141126399 Eh   |
          | GRADIENT NORM               0.000900745261 Eh/α |
          | HOMO-LUMO GAP               5.388893196969 eV   |
           -------------------------------------------------

 * finished run on 2024/12/20 at 07:18:54.733
