   * xtb version 6.7.1 (edcfbbe) compiled by 'conda@3ef47c1a292c' on 2024-11-25

   ID    Z sym.   atoms
    1    6 C      1, 2, 4, 5
    2    7 N      3
    3    1 H      6-17

          program call               : xtb C1301.xyz --opt --namespace C1301 --charge +1
          :  Hamiltonian                  GFN2-xTB          :
 * total energy  :   -17.1794864 Eh     change       -0.1546141E-10 Eh
 * total energy  :   -17.1803080 Eh     change       -0.8215881E-03 Eh
 * total energy  :   -17.1804424 Eh     change       -0.1344197E-03 Eh
 * total energy  :   -17.1804556 Eh     change       -0.1316558E-04 Eh
 * total energy  :   -17.1804596 Eh     change       -0.4060005E-05 Eh
   *** GEOMETRY OPTIMIZATION CONVERGED AFTER 5 ITERATIONS ***

 final structure:
================
17
 xtb: 6.7.1 (edcfbbe)
C            1.09733266013935        0.06469371034706       -0.25056683922322
C            0.49416114029373       -1.28761131823508       -0.58003728241095
N            0.89617368118981       -2.33202058265380        0.41209923833227
C            0.38435896032744       -2.14785898525943        1.80525027694471
C           -1.12511809787154       -2.28172220814102        1.87349550343369
H            0.67749102589477        0.49160701700079        0.65533994547918
H            0.88238942717209        0.75257638733119       -1.06339424327220
H            2.17831497409527        0.00138832885037       -0.14862888405348
H           -0.59407025609628       -1.23213359698064       -0.60133059960694
H            0.84126494816687       -1.61794529411181       -1.56093534436251
H            0.56669031269180       -3.24526889160397        0.07666859316368
H            1.92264965791298       -2.35583016879405        0.44166728096242
H            0.85169136762285       -2.91245196178573        2.42875675144851
H            0.70360831820835       -1.16950929359391        2.16398427640885
H           -1.45852724570723       -3.22346120157972        1.44350969976154
H           -1.43220420167511       -2.26777581682472        2.91540465724707
H           -1.63282667236515       -1.46163612396551        1.37461696974738

          :  Hamiltonian                  GFN2-xTB          :
         :: total energy             -17.180459639838 Eh    ::
         :: gradient norm              0.000392185244 Eh/a0 ::
         :: HOMO-LUMO gap              9.713653374510 eV    ::
         :: SCC energy               -17.429753417073 Eh    ::
         :: -> dispersion             -0.007530991724 Eh    ::
         :: repulsion energy           0.249293777235 Eh    ::

    * Orbital Energies and Occupations

         #    Occupation            Energy/Eh            Energy/eV
      -------------------------------------------------------------
         1        2.0000           -0.8852350             -24.0885
       ...           ...                  ...                  ...
         4        2.0000           -0.8003779             -21.7794
         5        2.0000           -0.7687971             -20.9200
         6        2.0000           -0.7624852             -20.7483
         7        2.0000           -0.7368508             -20.0507
         8        2.0000           -0.7174464             -19.5227
         9        2.0000           -0.6890775             -18.7508
        10        2.0000           -0.6778493             -18.4452
        11        2.0000           -0.6539354             -17.7945
        12        2.0000           -0.6458851             -17.5754
        13        2.0000           -0.6313537             -17.1800
        14        2.0000           -0.6242781             -16.9875
        15        2.0000           -0.6189813             -16.8433
        16        2.0000           -0.6110031             -16.6262 (HOMO)
        17                         -0.2540329              -6.9126 (LUMO)
        18                         -0.1592905              -4.3345
        19                         -0.1526420              -4.1536
        20                         -0.1001676              -2.7257
        21                         -0.0569571              -1.5499
        22                         -0.0564245              -1.5354
        23                         -0.0469030              -1.2763
        24                         -0.0052589              -0.1431
        25                         -0.0023665              -0.0644
        26                          0.0357191               0.9720
        27                          0.0386202               1.0509
       ...                                ...                  ...
        32                          0.1300708               3.5394
      -------------------------------------------------------------
                  HL-Gap            0.3569702 Eh            9.7137 eV

     #   Z          covCN         q      C6AA      α(0)
     1   6 C        3.752    -0.136    23.179     6.866
     2   6 C        3.731    -0.029    21.177     6.569
     3   7 N        3.529    -0.040    22.014     6.969
     4   6 C        3.731    -0.029    21.178     6.569
     5   6 C        3.752    -0.136    23.179     6.866
     6   1 H        0.925     0.076     2.023     2.224
     7   1 H        0.925     0.096     1.826     2.113
     8   1 H        0.925     0.069     2.097     2.265
     9   1 H        0.925     0.105     1.737     2.061
    10   1 H        0.924     0.094     1.842     2.122
    11   1 H        0.859     0.245     0.902     1.488
    12   1 H        0.859     0.245     0.902     1.488
    13   1 H        0.924     0.094     1.842     2.122
    14   1 H        0.925     0.105     1.737     2.061
    15   1 H        0.925     0.069     2.097     2.265
    16   1 H        0.925     0.096     1.826     2.113
    17   1 H        0.925     0.076     2.023     2.224

Wiberg/Mayer (AO) data.
largest (>0.10) Wiberg bond orders for each atom

     #   Z sym  total        # sym  WBO       # sym  WBO       # sym  WBO
 ---------------------------------------------------------------------------
     1   6 C    3.978 --     2 C    1.026     8 H    0.980     6 H    0.979
                             7 H    0.971
     2   6 C    3.911 --     1 C    1.026    10 H    0.968     9 H    0.964
                             3 N    0.926
     3   7 N    3.726 --     4 C    0.926     2 C    0.926    12 H    0.915
                            11 H    0.915
     4   6 C    3.911 --     5 C    1.026    13 H    0.968    14 H    0.964
                             3 N    0.926
     5   6 C    3.978 --     4 C    1.026    15 H    0.980    17 H    0.979
                            16 H    0.971
     6   1 H    0.994 --     1 C    0.979
     7   1 H    0.991 --     1 C    0.971
     8   1 H    0.995 --     1 C    0.980
     9   1 H    0.989 --     2 C    0.964
    10   1 H    0.991 --     2 C    0.968
    11   1 H    0.940 --     3 N    0.915
    12   1 H    0.940 --     3 N    0.915
    13   1 H    0.991 --     4 C    0.968
    14   1 H    0.989 --     4 C    0.964
    15   1 H    0.995 --     5 C    0.980
    16   1 H    0.991 --     5 C    0.971
    17   1 H    0.994 --     5 C    0.979
 ---------------------------------------------------------------------------

molecular dipole:
                 x           y           z       tot (Debye)
 q only:        1.225      -3.777       0.984
   full:        1.400      -4.013       0.907      11.045

           -------------------------------------------------
          | TOTAL ENERGY              -17.180459639838 Eh   |
          | GRADIENT NORM               0.000392185244 Eh/α |
          | HOMO-LUMO GAP               9.713653374510 eV   |
           -------------------------------------------------

 * finished run on 2024/12/20 at 07:18:52.961
