   * xtb version 6.7.1 (edcfbbe) compiled by 'conda@3ef47c1a292c' on 2024-11-25

   ID    Z sym.   atoms
    1    6 C      1-3, 5-9
    2    7 N      4
    3    1 H      10-29

          program call               : xtb C1304.xyz --opt --namespace C1304 --charge +1
          :  Hamiltonian                  GFN2-xTB          :
 * total energy  :   -29.8429445 Eh     change       -0.1565823E-09 Eh
 * total energy  :   -29.8450478 Eh     change       -0.2103340E-02 Eh
 * total energy  :   -29.8454182 Eh     change       -0.3703744E-03 Eh
 * total energy  :   -29.8455550 Eh     change       -0.1367576E-03 Eh
 * total energy  :   -29.8456405 Eh     change       -0.8557759E-04 Eh
 * total energy  :   -29.8457138 Eh     change       -0.7324920E-04 Eh
 * total energy  :   -29.8457897 Eh     change       -0.7594440E-04 Eh
 * total energy  :   -29.8458685 Eh     change       -0.7873666E-04 Eh
 * total energy  :   -29.8459493 Eh     change       -0.8078436E-04 Eh
 * total energy  :   -29.8460297 Eh     change       -0.8039511E-04 Eh
 * total energy  :   -29.8480648 Eh     change       -0.9645357E-05 Eh
 * total energy  :   -29.8480736 Eh     change       -0.8801109E-05 Eh
 * total energy  :   -29.8480816 Eh     change       -0.7975951E-05 Eh
 * total energy  :   -29.8480889 Eh     change       -0.7288407E-05 Eh
 * total energy  :   -29.8480955 Eh     change       -0.6685304E-05 Eh
 * total energy  :   -29.8481017 Eh     change       -0.6124966E-05 Eh
 * total energy  :   -29.8481073 Eh     change       -0.5611148E-05 Eh
 * total energy  :   -29.8481124 Eh     change       -0.5110280E-05 Eh
 * total energy  :   -29.8481171 Eh     change       -0.4692917E-05 Eh
   *** GEOMETRY OPTIMIZATION CONVERGED AFTER 92 ITERATIONS ***

 final structure:
================
29
 xtb: 6.7.1 (edcfbbe)
C            1.65682228138805       -0.09225210591676       -0.09347727544200
C            0.78460404245701       -0.46851359855873       -1.29093867360151
C            0.67475636152229       -1.99104899577300       -1.44707691472730
N            0.09067414026340       -2.64091460962061       -0.23630301466867
C           -1.35025399833828       -3.00495701181214       -0.32469648567814
C           -1.58035348057011       -4.26286053221012       -1.16917945391646
C           -0.81631321705362       -5.45864036469410       -0.60304321472523
C           -3.08053818123203       -4.54969864681100       -1.19711640420799
C           -0.57974419211461        0.21196519178459       -1.20497028303311
H            1.16261222302194       -0.28611253334995        0.85970285264346
H            1.86941932469629        0.97231604694961       -0.12077483797385
H            2.60768080730504       -0.61942846843487       -0.11429564270923
H            1.28242341208692       -0.11603393739047       -2.19866602991280
H            0.05394782434891       -2.23629808523671       -2.30874683639527
H            1.67132204331503       -2.40212151859790       -1.61679358161868
H            0.59197259479937       -3.51277812387344       -0.02703046519833
H            0.24759566170483       -1.98984962357710        0.54451055854288
H           -1.71699930413558       -3.18938702861581        0.68796195317490
H           -1.90015856763710       -2.16270883112040       -0.74388123869553
H           -1.24647890822373       -4.08296243472399       -2.19559940193898
H           -1.05215525460177       -5.60898724440166        0.44829731984875
H           -1.10741660419146       -6.35876251739888       -1.13644378148688
H            0.26336437156774       -5.36182583215825       -0.72019862817987
H           -3.63349347439656       -3.69907856915972       -1.58654673486873
H           -3.28616396104053       -5.40499200632694       -1.83291924766820
H           -3.44705849066879       -4.77335472962044       -0.19870446575915
H           -0.45056342811432        1.28930414164484       -1.25096938090677
H           -1.21513844374866       -0.07728427377707       -2.03840242732249
H           -1.08918558240290       -0.01175375722119       -0.26966826357327

          :  Hamiltonian                  GFN2-xTB          :
         :: total energy             -29.848117081553 Eh    ::
         :: gradient norm              0.000136179856 Eh/a0 ::
         :: HOMO-LUMO gap              9.041821273611 eV    ::
         :: SCC energy               -30.284776647790 Eh    ::
         :: -> dispersion             -0.018276736725 Eh    ::
         :: repulsion energy           0.436659566238 Eh    ::

    * Orbital Energies and Occupations

         #    Occupation            Energy/Eh            Energy/eV
      -------------------------------------------------------------
         1        2.0000           -0.8687679             -23.6404
       ...           ...                  ...                  ...
        16        2.0000           -0.6455791             -17.5671
        17        2.0000           -0.6404487             -17.4275
        18        2.0000           -0.6296675             -17.1341
        19        2.0000           -0.6143467             -16.7172
        20        2.0000           -0.6113236             -16.6350
        21        2.0000           -0.5989860             -16.2992
        22        2.0000           -0.5948112             -16.1856
        23        2.0000           -0.5888144             -16.0225
        24        2.0000           -0.5858909             -15.9429
        25        2.0000           -0.5841225             -15.8948
        26        2.0000           -0.5791523             -15.7595
        27        2.0000           -0.5771374             -15.7047
        28        2.0000           -0.5716253             -15.5547 (HOMO)
        29                         -0.2393445              -6.5129 (LUMO)
        30                         -0.1482362              -4.0337
        31                         -0.1424247              -3.8756
        32                         -0.1055303              -2.8716
        33                         -0.0771831              -2.1003
        34                         -0.0640833              -1.7438
        35                         -0.0564000              -1.5347
        36                         -0.0496616              -1.3514
        37                         -0.0463009              -1.2599
        38                         -0.0233082              -0.6342
        39                         -0.0125486              -0.3415
       ...                                ...                  ...
        56                          0.1652012               4.4954
      -------------------------------------------------------------
                  HL-Gap            0.3322808 Eh            9.0418 eV

     #   Z          covCN         q      C6AA      α(0)
     1   6 C        3.754    -0.128    23.006     6.839
     2   6 C        3.849    -0.025    20.987     6.516
     3   6 C        3.734    -0.039    21.364     6.597
     4   7 N        3.529    -0.047    22.143     6.989
     5   6 C        3.739    -0.041    21.381     6.598
     6   6 C        3.849    -0.019    20.887     6.501
     7   6 C        3.755    -0.128    23.004     6.839
     8   6 C        3.759    -0.125    22.947     6.829
     9   6 C        3.754    -0.126    22.979     6.835
    10   1 H        0.924     0.037     2.489     2.467
    11   1 H        0.925     0.077     2.009     2.217
    12   1 H        0.925     0.052     2.289     2.366
    13   1 H        0.924     0.077     2.014     2.219
    14   1 H        0.925     0.100     1.786     2.090
    15   1 H        0.924     0.087     1.913     2.163
    16   1 H        0.859     0.245     0.903     1.488
    17   1 H        0.859     0.249     0.886     1.474
    18   1 H        0.924     0.089     1.891     2.150
    19   1 H        0.925     0.101     1.774     2.083
    20   1 H        0.924     0.053     2.285     2.364
    21   1 H        0.925     0.054     2.277     2.359
    22   1 H        0.925     0.077     2.013     2.219
    23   1 H        0.924     0.033     2.540     2.492
    24   1 H        0.925     0.054     2.274     2.358
    25   1 H        0.925     0.071     2.075     2.253
    26   1 H        0.925     0.057     2.230     2.336
    27   1 H        0.925     0.072     2.065     2.247
    28   1 H        0.925     0.052     2.295     2.369
    29   1 H        0.925     0.041     2.433     2.439

Wiberg/Mayer (AO) data.
largest (>0.10) Wiberg bond orders for each atom

     #   Z sym  total        # sym  WBO       # sym  WBO       # sym  WBO
 ---------------------------------------------------------------------------
     1   6 C    3.990 --     2 C    1.008    12 H    0.984    11 H    0.979
                            10 H    0.973
     2   6 C    3.985 --     9 C    1.009     1 C    1.008     3 C    0.993
                            13 H    0.957
     3   6 C    3.914 --     2 C    0.993    15 H    0.971    14 H    0.963
                             4 N    0.931
     4   7 N    3.722 --     5 C    0.934     3 C    0.931    16 H    0.901
                            17 H    0.894
     5   6 C    3.911 --     6 C    0.993    18 H    0.967    19 H    0.963
                             4 N    0.934
     6   6 C    3.986 --     7 C    1.009     8 C    1.002     5 C    0.993
                            20 H    0.963
     7   6 C    3.990 --     6 C    1.009    21 H    0.984    22 H    0.978
                            23 H    0.975
     8   6 C    3.987 --     6 C    1.002    26 H    0.984    24 H    0.984
                            25 H    0.981
     9   6 C    3.990 --     2 C    1.009    28 H    0.983    29 H    0.983
                            27 H    0.981
    10   1 H    0.999 --     1 C    0.973
    11   1 H    0.994 --     1 C    0.979
    12   1 H    0.997 --     1 C    0.984
    13   1 H    0.994 --     2 C    0.957
    14   1 H    0.990 --     3 C    0.963
    15   1 H    0.992 --     3 C    0.971
    16   1 H    0.940 --     4 N    0.901
    17   1 H    0.938 --     4 N    0.894
    18   1 H    0.992 --     5 C    0.967
    19   1 H    0.990 --     5 C    0.963
    20   1 H    0.997 --     6 C    0.963
    21   1 H    0.997 --     7 C    0.984
    22   1 H    0.994 --     7 C    0.978
    23   1 H    0.999 --     7 C    0.975
    24   1 H    0.997 --     8 C    0.984
    25   1 H    0.995 --     8 C    0.981
    26   1 H    0.997 --     8 C    0.984
    27   1 H    0.995 --     9 C    0.981
    28   1 H    0.997 --     9 C    0.983
    29   1 H    0.998 --     9 C    0.983
 ---------------------------------------------------------------------------

molecular dipole:
                 x           y           z       tot (Debye)
 q only:       -0.273      -4.817      -0.978
   full:       -0.100      -4.866      -0.784      12.530

           -------------------------------------------------
          | TOTAL ENERGY              -29.848117081553 Eh   |
          | GRADIENT NORM               0.000136179856 Eh/α |
          | HOMO-LUMO GAP               9.041821273611 eV   |
           -------------------------------------------------

 * finished run on 2024/12/20 at 07:18:55.904
