   * xtb version 6.7.1 (edcfbbe) compiled by 'conda@3ef47c1a292c' on 2024-11-25

   ID    Z sym.   atoms
    1    6 C      1-4, 7-11, 13, 15-17, 19-24
    2    8 O      5, 6, 18
    3    7 N      12, 14
    4    1 H      25-49

          program call               : xtb C1307.xyz --opt --namespace C1307 --charge +1
          :  Hamiltonian                  GFN2-xTB          :
 * total energy  :   -71.1253906 Eh     change       -0.5776002E-09 Eh
 * total energy  :   -71.1336576 Eh     change       -0.8266922E-02 Eh
 * total energy  :   -71.1354727 Eh     change       -0.1815166E-02 Eh
 * total energy  :   -71.1359536 Eh     change       -0.4808693E-03 Eh
 * total energy  :   -71.1362273 Eh     change       -0.2737484E-03 Eh
 * total energy  :   -71.1363338 Eh     change       -0.1064905E-03 Eh
 * total energy  :   -71.1364271 Eh     change       -0.9323928E-04 Eh
 * total energy  :   -71.1365296 Eh     change       -0.1025005E-03 Eh
 * total energy  :   -71.1366676 Eh     change       -0.1380205E-03 Eh
 * total energy  :   -71.1368342 Eh     change       -0.1665941E-03 Eh
 * total energy  :   -71.1413936 Eh     change       -0.8582585E-05 Eh
 * total energy  :   -71.1414032 Eh     change       -0.9583244E-05 Eh
 * total energy  :   -71.1414133 Eh     change       -0.1004649E-04 Eh
 * total energy  :   -71.1414230 Eh     change       -0.9752099E-05 Eh
 * total energy  :   -71.1414319 Eh     change       -0.8856619E-05 Eh
 * total energy  :   -71.1414395 Eh     change       -0.7642795E-05 Eh
 * total energy  :   -71.1414459 Eh     change       -0.6368839E-05 Eh
 * total energy  :   -71.1414512 Eh     change       -0.5297788E-05 Eh
 * total energy  :   -71.1414558 Eh     change       -0.4582296E-05 Eh
   *** GEOMETRY OPTIMIZATION CONVERGED AFTER 78 ITERATIONS ***

 final structure:
================
49
 xtb: 6.7.1 (edcfbbe)
C            0.64737014175250       -0.48654020323289        0.73742083992021
C           -0.11079513430211        0.79898616273929        1.04983879033918
C            0.61669719139902        2.01820513981561        0.48477043766081
C            1.86131462572474        2.42494512282545        1.27182233284757
O            2.56252991101346        1.75633333868348        1.96128616349771
O            2.05311889100455        3.76324703198353        1.12031289484977
C            1.05420299862385        4.29834415282229        0.26610193429537
C           -0.14058258907951        3.35497360181224        0.43728086395703
C           -0.88489746574566        3.60032942460984        1.77084995859304
C           -1.22415856927246        5.02874646990133        1.99156166848573
C           -2.23410618000975        5.78546626301552        1.46499172361018
N           -2.10197987024524        7.05334464412966        1.94575512580412
C           -1.04328292813405        7.07670067829945        2.75043342048394
N           -0.49149322300523        5.86759785793395        2.79524754448567
C            0.64339503508755        5.50118880592178        3.60259883144050
C           -3.03752528779684        8.13724812937784        1.78000818004264
C           -4.03000747105883        8.17081090888430        2.96750332945098
O           -3.34613682999551        8.29626484023607        4.18341237431014
C           -2.96460178257477        7.19016488673517        4.91124316787585
C           -3.28470952207176        5.86972554587475        4.62401202359584
C           -2.80458906715378        4.85476965550979        5.43879992236791
C           -2.01003993705941        5.13943369158615        6.53303428147536
C           -1.70370193326318        6.45969146379847        6.82820085988422
C           -2.17335592027731        7.47738261437816        6.02394212276482
H            0.72945739876179       -0.63547746499887       -0.33664641708616
H            0.12548466051163       -1.33949184450606        1.16158838879639
H            1.64555913575596       -0.44623195363430        1.16295015081718
H           -1.10884814117572        0.75023078412688        0.60823167994512
H           -0.21661385891944        0.89085116500224        2.13158293658827
H            0.95585171441183        1.77606560850006       -0.53023815659086
H            1.41374622682537        4.28201357101951       -0.76918259511121
H            0.87687637008853        5.33545507484844        0.55291666810805
H           -0.83365607733956        3.42918682981882       -0.40010618550214
H           -1.80167021502593        3.01024419534514        1.76579869360380
H           -0.26175790124028        3.25108761722713        2.59434691984399
H           -3.01907283752885        5.50550493764558        0.79258463876927
H           -0.69231807748864        7.93978049780856        3.28193560915177
H            1.07132982472832        6.39579849106575        4.04809075760734
H            0.32643492414058        4.83171681643349        4.40409613139659
H            1.40601106983724        5.00230172855824        3.00216521173071
H           -2.48328700653156        9.07762209728363        1.75780387728645
H           -3.58158935468467        8.01071051339658        0.84386673223196
H           -4.64534148386698        9.06905749138467        2.86939943716555
H           -4.68648744205525        7.29639437258150        2.94778124412939
H           -3.91727172859473        5.60444083779878        3.79009487426658
H           -3.06847988102985        3.83295643897433        5.21125490962840
H           -1.64625623366400        4.34284356493330        7.16218297674149
H           -1.10120507267146        6.69683849618880        7.69075518140813
H           -1.95669109685735        8.51061990541611        6.24310754306358

          :  Hamiltonian                  GFN2-xTB          :
         :: total energy             -71.141455757024 Eh    ::
         :: gradient norm              0.000166055100 Eh/a0 ::
         :: HOMO-LUMO gap              2.577411274212 eV    ::
         :: SCC energy               -72.125657170247 Eh    ::
         :: -> dispersion             -0.053104294869 Eh    ::
         :: repulsion energy           0.984201413222 Eh    ::

    * Orbital Energies and Occupations

         #    Occupation            Energy/Eh            Energy/eV
      -------------------------------------------------------------
         1        2.0000           -0.8940051             -24.3271
       ...           ...                  ...                  ...
        52        2.0000           -0.5811369             -15.8135
        53        2.0000           -0.5788561             -15.7515
        54        2.0000           -0.5695367             -15.4979
        55        2.0000           -0.5674140             -15.4401
        56        2.0000           -0.5552874             -15.1101
        57        2.0000           -0.5464298             -14.8691
        58        2.0000           -0.5457271             -14.8500
        59        2.0000           -0.5347665             -14.5517
        60        2.0000           -0.5335267             -14.5180
        61        2.0000           -0.5306604             -14.4400
        62        2.0000           -0.5202735             -14.1574
        63        2.0000           -0.5073952             -13.8069
        64        2.0000           -0.4990030             -13.5786 (HOMO)
        65                         -0.4042849             -11.0012 (LUMO)
        66                         -0.3696072             -10.0575
        67                         -0.3387019              -9.2165
        68                         -0.3345796              -9.1044
        69                         -0.3306732              -8.9981
        70                         -0.2053034              -5.5866
        71                         -0.1839109              -5.0045
        72                         -0.1437719              -3.9122
        73                         -0.1105915              -3.0093
        74                         -0.1087604              -2.9595
        75                         -0.0877553              -2.3879
       ...                                ...                  ...
       121                          0.5869590              15.9720
      -------------------------------------------------------------
                  HL-Gap            0.0947181 Eh            2.5774 eV

     #   Z          covCN         q      C6AA      α(0)
     1   6 C        3.753    -0.116    22.778     6.806
     2   6 C        3.800    -0.055    21.572     6.613
     3   6 C        3.893    -0.057    21.548     6.599
     4   6 C        2.784     0.354    21.003     7.507
     5   8 O        0.856    -0.342    20.558     6.079
     6   8 O        1.706    -0.273    18.532     5.812
     7   6 C        3.783     0.065    19.511     6.292
     8   6 C        3.878    -0.031    21.075     6.527
     9   6 C        3.805    -0.078    21.984     6.675
    10   6 C        3.097     0.045    26.868     8.495
    11   6 C        3.073    -0.025    28.556     8.762
    12   7 N        2.859     0.060    20.190     6.674
    13   6 C        3.084     0.051    26.763     8.481
    14   7 N        2.867     0.055    20.275     6.688
    15   6 C        3.692    -0.086    22.329     6.762
    16   6 C        3.741    -0.034    21.263     6.579
    17   6 C        3.687     0.068    19.622     6.341
    18   8 O        1.706    -0.276    18.583     5.820
    19   6 C        2.857     0.131    25.135     8.217
    20   6 C        2.917    -0.075    29.875     8.963
    21   6 C        2.922    -0.034    28.859     8.810
    22   6 C        2.918    -0.040    28.993     8.830
    23   6 C        2.920    -0.026    28.661     8.779
    24   6 C        2.921    -0.056    29.383     8.889
    25   1 H        0.925     0.044     2.396     2.421
    26   1 H        0.925     0.054     2.268     2.355
    27   1 H        0.925     0.065     2.138     2.286
    28   1 H        0.924     0.044     2.398     2.422
    29   1 H        0.924     0.044     2.396     2.421
    30   1 H        0.924     0.080     1.984     2.203
    31   1 H        0.924     0.063     2.161     2.299
    32   1 H        0.924     0.048     2.346     2.395
    33   1 H        0.925     0.057     2.229     2.335
    34   1 H        0.924     0.087     1.906     2.159
    35   1 H        0.925     0.081     1.970     2.195
    36   1 H        0.926     0.099     1.798     2.097
    37   1 H        0.926     0.116     1.650     2.008
    38   1 H        0.925     0.095     1.828     2.114
    39   1 H        0.924     0.101     1.777     2.084
    40   1 H        0.924     0.122     1.596     1.976
    41   1 H        0.924     0.098     1.807     2.102
    42   1 H        0.925     0.093     1.847     2.125
    43   1 H        0.924     0.090     1.880     2.144
    44   1 H        0.924     0.058     2.219     2.330
    45   1 H        0.926     0.025     2.665     2.553
    46   1 H        0.926     0.043     2.411     2.428
    47   1 H        0.926     0.052     2.297     2.370
    48   1 H        0.926     0.058     2.226     2.333
    49   1 H        0.926     0.060     2.195     2.317

Wiberg/Mayer (AO) data.
largest (>0.10) Wiberg bond orders for each atom

     #   Z sym  total        # sym  WBO       # sym  WBO       # sym  WBO
 ---------------------------------------------------------------------------
     1   6 C    3.990 --     2 C    1.017    25 H    0.987    26 H    0.985
                            27 H    0.984
     2   6 C    3.991 --     1 C    1.017     3 C    0.991    29 H    0.976
                            28 H    0.975
     3   6 C    3.987 --     2 C    0.991     8 C    0.978     4 C    0.948
                            30 H    0.934
     4   6 C    3.912 --     5 O    1.825     6 O    1.074     3 C    0.948
     5   8 O    2.113 --     4 C    1.825     6 O    0.159
     6   8 O    2.278 --     4 C    1.074     7 C    0.963     5 O    0.159
     7   6 C    3.939 --     8 C    0.989    32 H    0.969    31 H    0.966
                             6 O    0.963
     8   6 C    3.990 --     7 C    0.989     3 C    0.978    33 H    0.969
                             9 C    0.967
     9   6 C    3.985 --    10 C    1.028     8 C    0.967    35 H    0.962
                            34 H    0.958
    10   6 C    3.951 --    11 C    1.549    14 N    1.190     9 C    1.028
    11   6 C    3.942 --    10 C    1.549    12 N    1.213    36 H    0.963
    12   7 N    3.707 --    13 C    1.355    11 C    1.213    16 C    0.979
    13   6 C    3.946 --    14 N    1.359    12 N    1.355    37 H    0.952
    14   7 N    3.707 --    13 C    1.359    10 C    1.190    15 C    0.988
    15   6 C    3.929 --    14 N    0.988    38 H    0.975    39 H    0.959
                            40 H    0.955
    16   6 C    3.941 --    12 N    0.979    42 H    0.966    17 C    0.964
                            41 H    0.963
    17   6 C    3.949 --    18 O    0.998    16 C    0.964    44 H    0.961
                            43 H    0.959
    18   8 O    2.221 --    19 C    1.022    17 C    0.998
    19   6 C    3.926 --    20 C    1.389    24 C    1.356    18 O    1.022
    20   6 C    3.986 --    21 C    1.428    19 C    1.389    45 H    0.962
                            23 C    0.105
    21   6 C    3.991 --    22 C    1.452    20 C    1.428    46 H    0.970
                            24 C    0.111
    22   6 C    3.989 --    21 C    1.452    23 C    1.419    47 H    0.970
    23   6 C    3.989 --    24 C    1.467    22 C    1.419    48 H    0.969
                            20 C    0.105
    24   6 C    3.986 --    23 C    1.467    19 C    1.356    49 H    0.967
                            21 C    0.111
    25   1 H    0.998 --     1 C    0.987
    26   1 H    0.997 --     1 C    0.985
    27   1 H    0.996 --     1 C    0.984
    28   1 H    0.998 --     2 C    0.975
    29   1 H    0.998 --     2 C    0.976
    30   1 H    0.992 --     3 C    0.934
    31   1 H    0.996 --     7 C    0.966
    32   1 H    0.997 --     7 C    0.969
    33   1 H    0.997 --     8 C    0.969
    34   1 H    0.992 --     9 C    0.958
    35   1 H    0.993 --     9 C    0.962
    36   1 H    0.990 --    11 C    0.963
    37   1 H    0.987 --    13 C    0.952
    38   1 H    0.990 --    15 C    0.975
    39   1 H    0.989 --    15 C    0.959
    40   1 H    0.985 --    15 C    0.955
    41   1 H    0.990 --    16 C    0.963
    42   1 H    0.990 --    16 C    0.966
    43   1 H    0.991 --    17 C    0.959
    44   1 H    0.997 --    17 C    0.961
    45   1 H    0.999 --    20 C    0.962
    46   1 H    0.998 --    21 C    0.970
    47   1 H    0.997 --    22 C    0.970
    48   1 H    0.996 --    23 C    0.969
    49   1 H    0.996 --    24 C    0.967
 ---------------------------------------------------------------------------

molecular dipole:
                 x           y           z       tot (Debye)
 q only:       -3.423      11.469       3.788
   full:       -3.728      11.723       3.518      32.522

           -------------------------------------------------
          | TOTAL ENERGY              -71.141455757024 Eh   |
          | GRADIENT NORM               0.000166055100 Eh/α |
          | HOMO-LUMO GAP               2.577411274212 eV   |
           -------------------------------------------------

 * finished run on 2024/12/20 at 07:19:01.530
