   * xtb version 6.7.1 (edcfbbe) compiled by 'conda@3ef47c1a292c' on 2024-11-25

   ID    Z sym.   atoms
    1    6 C      1-9, 11, 12, 14, 15
    2    7 N      10
    3    8 O      13
    4    1 H      16-45

          program call               : xtb C1310.xyz --opt --namespace C1310 --charge +1
          :  Hamiltonian                  GFN2-xTB          :
 * total energy  :   -49.7209913 Eh     change       -0.8896706E-10 Eh
 * total energy  :   -49.7286080 Eh     change       -0.7616767E-02 Eh
 * total energy  :   -49.7305113 Eh     change       -0.1903305E-02 Eh
 * total energy  :   -49.7306739 Eh     change       -0.1625616E-03 Eh
 * total energy  :   -49.7309114 Eh     change       -0.2375404E-03 Eh
 * total energy  :   -49.7310231 Eh     change       -0.1116373E-03 Eh
 * total energy  :   -49.7311866 Eh     change       -0.1634880E-03 Eh
 * total energy  :   -49.7312566 Eh     change       -0.7009448E-04 Eh
 * total energy  :   -49.7313165 Eh     change       -0.5983813E-04 Eh
 * total energy  :   -49.7313558 Eh     change       -0.3929868E-04 Eh
 * total energy  :   -49.7329459 Eh     change       -0.8550843E-05 Eh
 * total energy  :   -49.7329558 Eh     change       -0.9902796E-05 Eh
 * total energy  :   -49.7329646 Eh     change       -0.8750213E-05 Eh
 * total energy  :   -49.7329717 Eh     change       -0.7141808E-05 Eh
 * total energy  :   -49.7329789 Eh     change       -0.7192986E-05 Eh
 * total energy  :   -49.7329874 Eh     change       -0.8522867E-05 Eh
 * total energy  :   -49.7329963 Eh     change       -0.8885739E-05 Eh
 * total energy  :   -49.7330032 Eh     change       -0.6900228E-05 Eh
 * total energy  :   -49.7330078 Eh     change       -0.4585406E-05 Eh
   *** GEOMETRY OPTIMIZATION CONVERGED AFTER 62 ITERATIONS ***

 final structure:
================
45
 xtb: 6.7.1 (edcfbbe)
C            1.57557549448553        0.61199265107449       -0.45144238859967
C            1.15392950274834        0.05781230601091        0.90421343554610
C            1.33896917237940        1.05534275193403        2.04885712761467
C            0.51646711718758        2.33976690286319        1.92477902853966
C           -0.99817852684117        2.13222020924962        1.85997314947762
C           -1.60508102119213        1.40685524707474        3.06286201042682
C           -1.33853235153591        2.06018177727794        4.42176277320065
C           -1.79808925965425        3.51941381526950        4.53313806325760
C           -3.31431420401495        3.71258097075992        4.39933194655083
N           -4.05083751582880        4.00376195121541        5.66651482523319
C           -3.58141566826945        5.25294336299207        6.33858092074247
C           -3.25285602276032        6.43219532741162        5.41615428713192
O           -4.34785132461187        6.71635361610401        4.57613293302644
C           -5.48459713345342        4.14653663549698        5.33204277895687
C           -3.90720270549814        2.88130787021547        6.61133974567043
H            0.92248634604727        1.42085206481022       -0.76960204038645
H            1.53265902063580       -0.17011245511684       -1.20523912423321
H            2.59523307851972        0.98800012583601       -0.40813320381367
H            0.11392066404093       -0.27078853510861        0.85660761464909
H            1.76029184803503       -0.82284266801638        1.12699669110648
H            1.09982275182512        0.55633234520329        2.99080158448946
H            2.39331749698916        1.33792070890395        2.09350067565182
H            0.76455364888179        2.98811384160945        2.76904036743326
H            0.82159845733588        2.86832951171000        1.02060072829722
H           -1.47891490346450        3.10641428231207        1.73663601548555
H           -1.23728515641116        1.55201132465082        0.96823428653079
H           -2.68149481542131        1.31142266821232        2.89448720607948
H           -1.20549054259929        0.39332170302433        3.10272126230333
H           -1.81437851661683        1.45120803978892        5.19367042213437
H           -0.26562775500203        2.03804271358772        4.61324751526228
H           -1.43467285690982        3.92698830049807        5.47678207611684
H           -1.30599468002996        4.08425632116238        3.74186573019858
H           -3.54317864391829        4.52750198642290        3.71251541914548
H           -3.74817443848579        2.80227524548281        3.98251484533406
H           -4.36973713037608        5.55993589707569        7.02835587721599
H           -2.68508659815290        5.03214202671709        6.91941988078838
H           -3.02779756942735        7.28172114525599        6.07244733913079
H           -2.35569821209049        6.22133506461943        4.81956004585131
H           -4.25014697513398        7.59403766313135        4.19270150713869
H           -5.83283554273596        3.26879933913008        4.79179271524956
H           -6.07149525408505        4.25015972177915        6.24258851259917
H           -5.62994988514943        5.03198914391661        4.71684418493589
H           -4.32438850575850        1.97620705678689        6.17350401703156
H           -2.85977881047178        2.70702916836965        6.84517286704008
H           -4.44005207317349        3.09904085338932        7.53552434440360

          :  Hamiltonian                  GFN2-xTB          :
         :: total energy             -49.733007791005 Eh    ::
         :: gradient norm              0.000222279757 Eh/a0 ::
         :: HOMO-LUMO gap              7.109655311913 eV    ::
         :: SCC energy               -50.398311450138 Eh    ::
         :: -> dispersion             -0.035075524528 Eh    ::
         :: repulsion energy           0.665303659133 Eh    ::

    * Orbital Energies and Occupations

         #    Occupation            Energy/Eh            Energy/eV
      -------------------------------------------------------------
         1        2.0000           -0.8582782             -23.3549
       ...           ...                  ...                  ...
        34        2.0000           -0.5740242             -15.6200
        35        2.0000           -0.5703087             -15.5189
        36        2.0000           -0.5631959             -15.3253
        37        2.0000           -0.5608737             -15.2622
        38        2.0000           -0.5522366             -15.0271
        39        2.0000           -0.5442102             -14.8087
        40        2.0000           -0.5382114             -14.6455
        41        2.0000           -0.5248793             -14.2827
        42        2.0000           -0.5186849             -14.1141
        43        2.0000           -0.5147071             -14.0059
        44        2.0000           -0.4955684             -13.4851
        45        2.0000           -0.4918217             -13.3832
        46        2.0000           -0.4878746             -13.2757 (HOMO)
        47                         -0.2265996              -6.1661 (LUMO)
        48                         -0.1687219              -4.5912
        49                         -0.1470190              -4.0006
        50                         -0.1401607              -3.8140
        51                         -0.1053305              -2.8662
        52                         -0.0643513              -1.7511
        53                         -0.0517999              -1.4095
        54                         -0.0469410              -1.2773
        55                         -0.0334158              -0.9093
        56                         -0.0259884              -0.7072
        57                         -0.0139679              -0.3801
       ...                                ...                  ...
        90                          0.2362266               6.4281
      -------------------------------------------------------------
                  HL-Gap            0.2612750 Eh            7.1097 eV

     #   Z          covCN         q      C6AA      α(0)
     1   6 C        3.751    -0.104    22.556     6.773
     2   6 C        3.799    -0.054    21.544     6.609
     3   6 C        3.800    -0.060    21.647     6.624
     4   6 C        3.800    -0.060    21.655     6.626
     5   6 C        3.800    -0.062    21.684     6.630
     6   6 C        3.800    -0.063    21.714     6.635
     7   6 C        3.800    -0.068    21.808     6.649
     8   6 C        3.799    -0.072    21.887     6.661
     9   6 C        3.759    -0.045    21.429     6.599
    10   7 N        3.621     0.137    18.907     6.458
    11   6 C        3.760    -0.040    21.341     6.586
    12   6 C        3.672     0.072    19.612     6.347
    13   8 O        1.656    -0.440    21.637     6.279
    14   6 C        3.727    -0.104    22.588     6.786
    15   6 C        3.723    -0.095    22.434     6.764
    16   1 H        0.925     0.033     2.541     2.493
    17   1 H        0.925     0.038     2.477     2.461
    18   1 H        0.925     0.038     2.478     2.462
    19   1 H        0.924     0.029     2.599     2.521
    20   1 H        0.924     0.034     2.535     2.490
    21   1 H        0.924     0.026     2.641     2.541
    22   1 H        0.924     0.036     2.500     2.473
    23   1 H        0.924     0.023     2.695     2.567
    24   1 H        0.924     0.042     2.426     2.436
    25   1 H        0.924     0.021     2.715     2.577
    26   1 H        0.924     0.047     2.356     2.400
    27   1 H        0.924     0.022     2.710     2.575
    28   1 H        0.925     0.053     2.284     2.364
    29   1 H        0.924     0.031     2.567     2.506
    30   1 H        0.925     0.059     2.216     2.328
    31   1 H        0.924     0.044     2.399     2.422
    32   1 H        0.925     0.072     2.065     2.247
    33   1 H        0.925     0.096     1.817     2.108
    34   1 H        0.924     0.091     1.869     2.138
    35   1 H        0.924     0.098     1.801     2.099
    36   1 H        0.924     0.087     1.906     2.159
    37   1 H        0.924     0.062     2.177     2.307
    38   1 H        0.924     0.053     2.280     2.362
    39   1 H        0.805     0.314     0.679     1.295
    40   1 H        0.925     0.093     1.852     2.128
    41   1 H        0.925     0.093     1.847     2.125
    42   1 H        0.925     0.129     1.539     1.940
    43   1 H        0.925     0.100     1.785     2.089
    44   1 H        0.925     0.101     1.779     2.086
    45   1 H        0.925     0.093     1.850     2.127

Wiberg/Mayer (AO) data.
largest (>0.10) Wiberg bond orders for each atom

     #   Z sym  total        # sym  WBO       # sym  WBO       # sym  WBO
 ---------------------------------------------------------------------------
     1   6 C    3.996 --     2 C    1.020    18 H    0.987    17 H    0.987
                            16 H    0.986
     2   6 C    3.998 --     1 C    1.020     3 C    1.008    20 H    0.978
                            19 H    0.976
     3   6 C    3.997 --     2 C    1.008     4 C    1.007    22 H    0.976
                            21 H    0.976
     4   6 C    3.997 --     5 C    1.008     3 C    1.007    23 H    0.975
                            24 H    0.974
     5   6 C    3.996 --     4 C    1.008     6 C    1.007    25 H    0.975
                            26 H    0.973
     6   6 C    3.995 --     5 C    1.007     7 C    1.007    27 H    0.973
                            28 H    0.972
     7   6 C    3.992 --     6 C    1.007     8 C    1.004    29 H    0.975
                            30 H    0.971
     8   6 C    3.986 --     7 C    1.004     9 C    1.002    31 H    0.968
                            32 H    0.967
     9   6 C    3.921 --     8 C    1.002    33 H    0.966    34 H    0.960
                            10 N    0.923
    10   7 N    3.812 --    15 C    0.961    14 C    0.954    11 C    0.939
                             9 C    0.923
    11   6 C    3.943 --    12 C    1.004    36 H    0.965    35 H    0.965
                            10 N    0.939
    12   6 C    3.958 --    13 O    1.004    11 C    1.004    37 H    0.964
                            38 H    0.964
    13   8 O    1.959 --    12 C    1.004    39 H    0.885
    14   6 C    3.918 --    40 H    0.976    41 H    0.975    42 H    0.961
                            10 N    0.954
    15   6 C    3.930 --    45 H    0.976    43 H    0.974    44 H    0.971
                            10 N    0.961
    16   1 H    0.999 --     1 C    0.986
    17   1 H    0.999 --     1 C    0.987
    18   1 H    0.999 --     1 C    0.987
    19   1 H    0.999 --     2 C    0.976
    20   1 H    0.999 --     2 C    0.978
    21   1 H    0.999 --     3 C    0.976
    22   1 H    0.999 --     3 C    0.976
    23   1 H    0.999 --     4 C    0.975
    24   1 H    0.998 --     4 C    0.974
    25   1 H    1.000 --     5 C    0.975
    26   1 H    0.998 --     5 C    0.973
    27   1 H    1.000 --     6 C    0.973
    28   1 H    0.997 --     6 C    0.972
    29   1 H    0.999 --     7 C    0.975
    30   1 H    0.996 --     7 C    0.971
    31   1 H    0.998 --     8 C    0.968
    32   1 H    0.995 --     8 C    0.967
    33   1 H    0.991 --     9 C    0.966
    34   1 H    0.992 --     9 C    0.960
    35   1 H    0.990 --    11 C    0.965
    36   1 H    0.992 --    11 C    0.965
    37   1 H    0.996 --    12 C    0.964
    38   1 H    0.997 --    12 C    0.964
    39   1 H    0.901 --    13 O    0.885
    40   1 H    0.991 --    14 C    0.976
    41   1 H    0.991 --    14 C    0.975
    42   1 H    0.983 --    14 C    0.961
    43   1 H    0.990 --    15 C    0.974
    44   1 H    0.990 --    15 C    0.971
    45   1 H    0.991 --    15 C    0.976
 ---------------------------------------------------------------------------

molecular dipole:
                 x           y           z       tot (Debye)
 q only:       -6.774       7.851      10.273
   full:       -6.702       8.064      10.376      37.494

           -------------------------------------------------
          | TOTAL ENERGY              -49.733007791005 Eh   |
          | GRADIENT NORM               0.000222279757 Eh/α |
          | HOMO-LUMO GAP               7.109655311913 eV   |
           -------------------------------------------------

 * finished run on 2024/12/20 at 07:19:10.898
