   * xtb version 6.7.1 (edcfbbe) compiled by 'conda@3ef47c1a292c' on 2024-11-25

   ID    Z sym.   atoms
    1    6 C      1-8, 10, 12, 13, 15, 16, 18-25
    2    8 O      9, 17
    3    7 N      11, 14
    4    1 H      26-66

          program call               : xtb C1315.xyz --opt --namespace C1315 --charge +1
          :  Hamiltonian                  GFN2-xTB          :
 * total energy  :   -79.4794817 Eh     change       -0.1220570E-09 Eh
 * total energy  :   -79.4882212 Eh     change       -0.8739533E-02 Eh
 * total energy  :   -79.4901554 Eh     change       -0.1934211E-02 Eh
 * total energy  :   -79.4905445 Eh     change       -0.3891131E-03 Eh
 * total energy  :   -79.4908056 Eh     change       -0.2610755E-03 Eh
 * total energy  :   -79.4909262 Eh     change       -0.1205443E-03 Eh
 * total energy  :   -79.4910756 Eh     change       -0.1494868E-03 Eh
 * total energy  :   -79.4912773 Eh     change       -0.2016241E-03 Eh
 * total energy  :   -79.4915310 Eh     change       -0.2537525E-03 Eh
 * total energy  :   -79.4918117 Eh     change       -0.2807153E-03 Eh
 * total energy  :   -79.4982334 Eh     change       -0.9386729E-05 Eh
 * total energy  :   -79.4982431 Eh     change       -0.9690016E-05 Eh
 * total energy  :   -79.4982536 Eh     change       -0.1047365E-04 Eh
 * total energy  :   -79.4982648 Eh     change       -0.1123231E-04 Eh
 * total energy  :   -79.4982763 Eh     change       -0.1152699E-04 Eh
 * total energy  :   -79.4982879 Eh     change       -0.1157366E-04 Eh
 * total energy  :   -79.4983000 Eh     change       -0.1204733E-04 Eh
 * total energy  :   -79.4983131 Eh     change       -0.1311123E-04 Eh
 * total energy  :   -79.4983163 Eh     change       -0.3247320E-05 Eh
   *** GEOMETRY OPTIMIZATION CONVERGED AFTER 94 ITERATIONS ***

 final structure:
================
66
 xtb: 6.7.1 (edcfbbe)
C            2.80252627289267       -1.18849926535575        2.50882607037913
C            2.14467874746972       -0.85024267548866        3.84152313434867
C            2.38118630262541        0.59503676194526        4.28406271795343
C            1.83625720263139        1.65966316643733        3.32973215235319
C            0.33303202251737        1.57383732961394        3.05751372250931
C           -0.55324735559818        1.70110281612388        4.29974618848380
C           -0.40464913416496        3.01402121422599        5.07962791779163
C           -0.66484989533400        4.31056716491965        4.30477909217774
O           -1.98642944893146        4.84722816915260        4.44748492057081
C           -3.02357549339215        4.13002751616463        3.90455621900866
N           -3.02283761866205        4.23394668691428        2.43504251982820
C           -2.65737417654436        3.26134748897766        1.55135111758282
C           -2.67626267414743        3.81662947331883        0.30939204559958
N           -3.04152419087395        5.12383048652734        0.45517126642203
C           -3.24970087591384        5.34968186451462        1.74853866271914
C           -3.32211115170795        6.07116523779013       -0.63675489777401
O           -4.65581600802580        6.05928860226845       -0.96459413481095
C           -5.13232986101745        4.96680665322786       -1.76065930694897
C           -4.58242903464138        4.93715105785218       -3.19191522281915
C           -3.43152635440976        3.95867534167209       -3.45711749159700
C           -3.77317460422563        2.48223301369930       -3.23601825737064
C           -4.87795527748666        1.93586190554792       -4.14296991125671
C           -4.59685623575411        2.04107992189424       -5.64336648189295
C           -3.31862037773632        1.34304125121232       -6.11179462876114
C           -3.32252078281962       -0.15896440027026       -5.85280927182563
H            2.34515088845311       -0.63959714997499        1.68897151354281
H            2.70134449316809       -2.25059324555349        2.29982017178116
H            3.86224555948101       -0.94634122143250        2.53664814975495
H            1.07380092723875       -1.05585459790744        3.78298476909908
H            2.55564022428448       -1.50673034441007        4.61111225048405
H            1.94646573705813        0.73457172066149        5.27599387440616
H            3.45711702409702        0.75539825843564        4.38005198380707
H            2.07461451204205        2.64505359016257        3.73587852760675
H            2.35515982577482        1.57585377095539        2.37347224123861
H            0.07738938488022        2.35049509071128        2.32909695106038
H            0.11361481745033        0.61432922717028        2.58565826663312
H           -1.59431144202550        1.54150668660510        4.00310750944869
H           -0.30485889614060        0.89033861038748        4.98534631282988
H           -1.07254491999119        2.99719784328412        5.94361514258297
H            0.61242525769452        3.06026522072575        5.46710499982235
H           -0.04312467198957        5.11067042789988        4.70848731712812
H           -0.42437173316844        4.19443549147904        3.24157563508461
H           -3.00088219065182        3.06255396190664        4.15301802122560
H           -3.94801067648469        4.58138271559892        4.27997754172873
H           -2.41979307165451        2.26221741365231        1.85523507184835
H           -2.44684341516595        3.38221761811101       -0.64273822390571
H           -3.54772601681108        6.28721348286871        2.17696543434621
H           -3.09126877540071        7.07807623921313       -0.27530038655765
H           -2.66233886028965        5.81141007951408       -1.47325127689339
H           -4.94791463097407        4.01948657814737       -1.24049185191778
H           -6.20892506798906        5.13982948080386       -1.77692115187985
H           -5.40105716165198        4.68335195817713       -3.86372795009920
H           -4.26417360953356        5.94945561195362       -3.45120708300465
H           -3.12473619938770        4.09032406429798       -4.49507986111845
H           -2.55948393552745        4.21071089208203       -2.84516407196763
H           -2.86442817954262        1.89899405113778       -3.39620687608673
H           -4.08066888150533        2.31619999250691       -2.19850870187823
H           -5.03287755728029        0.88709856508846       -3.88502316750264
H           -5.81342541307404        2.45673978134730       -3.92801574476301
H           -5.44481177126181        1.59935131845114       -6.17097358775215
H           -4.55089437319264        3.09243262469454       -5.93522254784294
H           -3.21949597213922        1.51267890779851       -7.18590353232284
H           -2.44635878465690        1.79387538305077       -5.63382447386217
H           -4.20865463700886       -0.61624266467460       -6.28640218840026
H           -2.44663602234215       -0.61936729050769       -6.30330808583260
H           -3.30771178160519       -0.37862692706637       -4.78790906436592

          :  Hamiltonian                  GFN2-xTB          :
         :: total energy             -79.498316318779 Eh    ::
         :: gradient norm              0.000203117070 Eh/a0 ::
         :: HOMO-LUMO gap              2.099854707486 eV    ::
         :: SCC energy               -80.564454254739 Eh    ::
         :: -> dispersion             -0.056851186482 Eh    ::
         :: repulsion energy           1.066137935960 Eh    ::

    * Orbital Energies and Occupations

         #    Occupation            Energy/Eh            Energy/eV
      -------------------------------------------------------------
         1        2.0000           -0.8989477             -24.4616
       ...           ...                  ...                  ...
        61        2.0000           -0.5334128             -14.5149
        62        2.0000           -0.5290827             -14.3971
        63        2.0000           -0.5277527             -14.3609
        64        2.0000           -0.5249375             -14.2843
        65        2.0000           -0.5227860             -14.2257
        66        2.0000           -0.5187741             -14.1166
        67        2.0000           -0.5172416             -14.0749
        68        2.0000           -0.4991299             -13.5820
        69        2.0000           -0.4971076             -13.5270
        70        2.0000           -0.4963344             -13.5059
        71        2.0000           -0.4943866             -13.4529
        72        2.0000           -0.4925740             -13.4036
        73        2.0000           -0.4907576             -13.3542 (HOMO)
        74                         -0.4135894             -11.2543 (LUMO)
        75                         -0.3755961             -10.2205
        76                         -0.2027297              -5.5166
        77                         -0.1495658              -4.0699
        78                         -0.1158449              -3.1523
        79                         -0.1135190              -3.0890
        80                         -0.0673266              -1.8320
        81                         -0.0586104              -1.5949
        82                         -0.0548048              -1.4913
        83                         -0.0341723              -0.9299
        84                         -0.0325761              -0.8864
       ...                                ...                  ...
       141                          0.4603560              12.5269
      -------------------------------------------------------------
                  HL-Gap            0.0771682 Eh            2.0999 eV

     #   Z          covCN         q      C6AA      α(0)
     1   6 C        3.751    -0.104    22.552     6.772
     2   6 C        3.799    -0.054    21.547     6.609
     3   6 C        3.801    -0.061    21.670     6.628
     4   6 C        3.800    -0.061    21.673     6.628
     5   6 C        3.799    -0.058    21.620     6.620
     6   6 C        3.799    -0.061    21.674     6.629
     7   6 C        3.798    -0.078    21.999     6.678
     8   6 C        3.687     0.063    19.709     6.355
     9   8 O        1.701    -0.290    18.827     5.858
    10   6 C        3.630     0.122    18.964     6.271
    11   7 N        2.866     0.036    20.619     6.744
    12   6 C        3.066    -0.001    27.981     8.674
    13   6 C        3.068    -0.001    27.981     8.674
    14   7 N        2.866     0.035    20.631     6.746
    15   6 C        3.090     0.070    26.330     8.411
    16   6 C        3.630     0.122    18.963     6.271
    17   8 O        1.701    -0.289    18.810     5.856
    18   6 C        3.687     0.062    19.720     6.357
    19   6 C        3.798    -0.079    22.005     6.679
    20   6 C        3.799    -0.061    21.670     6.628
    21   6 C        3.799    -0.058    21.627     6.621
    22   6 C        3.800    -0.061    21.678     6.629
    23   6 C        3.801    -0.061    21.670     6.628
    24   6 C        3.799    -0.054    21.543     6.609
    25   6 C        3.751    -0.104    22.553     6.772
    26   1 H        0.925     0.030     2.589     2.516
    27   1 H        0.925     0.038     2.477     2.461
    28   1 H        0.925     0.039     2.456     2.451
    29   1 H        0.924     0.027     2.627     2.535
    30   1 H        0.924     0.036     2.498     2.472
    31   1 H        0.924     0.030     2.585     2.514
    32   1 H        0.924     0.040     2.453     2.449
    33   1 H        0.924     0.029     2.603     2.523
    34   1 H        0.924     0.041     2.438     2.442
    35   1 H        0.924     0.008     2.927     2.675
    36   1 H        0.924     0.042     2.424     2.435
    37   1 H        0.924     0.012     2.864     2.646
    38   1 H        0.924     0.057     2.234     2.337
    39   1 H        0.924     0.056     2.250     2.346
    40   1 H        0.925     0.064     2.151     2.293
    41   1 H        0.924     0.078     2.004     2.214
    42   1 H        0.924     0.031     2.576     2.510
    43   1 H        0.924     0.082     1.958     2.188
    44   1 H        0.924     0.097     1.812     2.105
    45   1 H        0.926     0.113     1.671     2.021
    46   1 H        0.926     0.114     1.661     2.015
    47   1 H        0.926     0.125     1.570     1.959
    48   1 H        0.924     0.095     1.831     2.116
    49   1 H        0.924     0.082     1.958     2.188
    50   1 H        0.924     0.033     2.541     2.493
    51   1 H        0.924     0.079     1.994     2.208
    52   1 H        0.925     0.065     2.140     2.287
    53   1 H        0.924     0.054     2.268     2.355
    54   1 H        0.924     0.057     2.239     2.340
    55   1 H        0.924     0.010     2.887     2.657
    56   1 H        0.924     0.042     2.426     2.436
    57   1 H        0.924     0.011     2.872     2.650
    58   1 H        0.924     0.042     2.423     2.434
    59   1 H        0.924     0.029     2.595     2.519
    60   1 H        0.924     0.040     2.453     2.449
    61   1 H        0.924     0.029     2.596     2.519
    62   1 H        0.924     0.036     2.508     2.477
    63   1 H        0.924     0.027     2.635     2.538
    64   1 H        0.925     0.040     2.455     2.450
    65   1 H        0.925     0.037     2.483     2.464
    66   1 H        0.925     0.031     2.578     2.511

Wiberg/Mayer (AO) data.
largest (>0.10) Wiberg bond orders for each atom

     #   Z sym  total        # sym  WBO       # sym  WBO       # sym  WBO
 ---------------------------------------------------------------------------
     1   6 C    3.997 --     2 C    1.020    28 H    0.987    27 H    0.987
                            26 H    0.986
     2   6 C    3.998 --     1 C    1.020     3 C    1.008    30 H    0.978
                            29 H    0.976
     3   6 C    3.996 --     2 C    1.008     4 C    1.008    32 H    0.976
                            31 H    0.975
     4   6 C    3.996 --     3 C    1.008     5 C    1.007    33 H    0.976
                            34 H    0.974
     5   6 C    3.997 --     6 C    1.007     4 C    1.007    36 H    0.973
                            35 H    0.971
     6   6 C    3.995 --     5 C    1.007     7 C    1.006    38 H    0.971
                            37 H    0.969
     7   6 C    3.990 --     6 C    1.006     8 C    1.000    39 H    0.972
                            40 H    0.970
     8   6 C    3.925 --     7 C    1.000    41 H    0.968    42 H    0.966
                             9 O    0.942
     9   8 O    2.127 --    10 C    1.048     8 C    0.942
    10   6 C    3.926 --     9 O    1.048    44 H    0.952    43 H    0.948
                            11 N    0.919
    11   7 N    3.699 --    15 C    1.374    12 C    1.221    10 C    0.919
    12   6 C    3.946 --    13 C    1.597    11 N    1.221    45 H    0.957
    13   6 C    3.946 --    12 C    1.597    14 N    1.219    46 H    0.955
    14   7 N    3.698 --    15 C    1.374    13 C    1.219    16 C    0.919
    15   6 C    3.947 --    11 N    1.374    14 N    1.374    47 H    0.951
    16   6 C    3.926 --    17 O    1.047    48 H    0.955    49 H    0.947
                            14 N    0.919
    17   8 O    2.130 --    16 C    1.047    18 C    0.942
    18   6 C    3.924 --    19 C    0.999    51 H    0.968    50 H    0.965
                            17 O    0.942
    19   6 C    3.990 --    20 C    1.007    18 C    0.999    53 H    0.972
                            52 H    0.970
    20   6 C    3.995 --    21 C    1.007    19 C    1.007    54 H    0.971
                            55 H    0.969
    21   6 C    3.997 --    20 C    1.007    22 C    1.007    56 H    0.974
                            57 H    0.972
    22   6 C    3.996 --    23 C    1.008    21 C    1.007    59 H    0.975
                            58 H    0.974
    23   6 C    3.996 --    24 C    1.008    22 C    1.008    60 H    0.976
                            61 H    0.975
    24   6 C    3.998 --    25 C    1.020    23 C    1.008    62 H    0.978
                            63 H    0.976
    25   6 C    3.997 --    24 C    1.020    64 H    0.987    65 H    0.987
                            66 H    0.986
    26   1 H    0.999 --     1 C    0.986
    27   1 H    0.999 --     1 C    0.987
    28   1 H    0.998 --     1 C    0.987
    29   1 H    0.999 --     2 C    0.976
    30   1 H    0.999 --     2 C    0.978
    31   1 H    0.999 --     3 C    0.975
    32   1 H    0.998 --     3 C    0.976
    33   1 H    0.999 --     4 C    0.976
    34   1 H    0.998 --     4 C    0.974
    35   1 H    1.000 --     5 C    0.971
    36   1 H    0.998 --     5 C    0.973
    37   1 H    1.000 --     6 C    0.969
    38   1 H    0.997 --     6 C    0.971
    39   1 H    0.997 --     7 C    0.972
    40   1 H    0.996 --     7 C    0.970
    41   1 H    0.994 --     8 C    0.968
    42   1 H    0.999 --     8 C    0.966
    43   1 H    0.993 --    10 C    0.948
    44   1 H    0.990 --    10 C    0.952
    45   1 H    0.987 --    12 C    0.957
    46   1 H    0.987 --    13 C    0.955
    47   1 H    0.984 --    15 C    0.951
    48   1 H    0.991 --    16 C    0.955
    49   1 H    0.993 --    16 C    0.947
    50   1 H    0.999 --    18 C    0.965
    51   1 H    0.994 --    18 C    0.968
    52   1 H    0.996 --    19 C    0.970
    53   1 H    0.997 --    19 C    0.972
    54   1 H    0.997 --    20 C    0.971
    55   1 H    1.000 --    20 C    0.969
    56   1 H    0.998 --    21 C    0.974
    57   1 H    1.000 --    21 C    0.972
    58   1 H    0.998 --    22 C    0.974
    59   1 H    0.999 --    22 C    0.975
    60   1 H    0.998 --    23 C    0.976
    61   1 H    0.999 --    23 C    0.975
    62   1 H    0.999 --    24 C    0.978
    63   1 H    0.999 --    24 C    0.976
    64   1 H    0.998 --    25 C    0.987
    65   1 H    0.999 --    25 C    0.987
    66   1 H    0.999 --    25 C    0.986
 ---------------------------------------------------------------------------

molecular dipole:
                 x           y           z       tot (Debye)
 q only:       -5.025       7.542       1.987
   full:       -4.998       7.482       1.970      23.412

           -------------------------------------------------
          | TOTAL ENERGY              -79.498316318779 Eh   |
          | GRADIENT NORM               0.000203117070 Eh/α |
          | HOMO-LUMO GAP               2.099854707486 eV   |
           -------------------------------------------------

 * finished run on 2024/12/20 at 07:19:22.908
