   * xtb version 6.7.1 (edcfbbe) compiled by 'conda@3ef47c1a292c' on 2024-11-25

   ID    Z sym.   atoms
    1    6 C      1-13, 15-23
    2    7 N      14
    3    1 H      24-63

          program call               : xtb C1313.xyz --opt --namespace C1313 --charge +1
          :  Hamiltonian                  GFN2-xTB          :
 * total energy  :   -70.0316079 Eh     change       -0.4206115E-08 Eh
 * total energy  :   -70.0388274 Eh     change       -0.7219522E-02 Eh
 * total energy  :   -70.0406829 Eh     change       -0.1855483E-02 Eh
 * total energy  :   -70.0409976 Eh     change       -0.3147573E-03 Eh
 * total energy  :   -70.0414943 Eh     change       -0.4966380E-03 Eh
 * total energy  :   -70.0419430 Eh     change       -0.4487480E-03 Eh
 * total energy  :   -70.0424986 Eh     change       -0.5556132E-03 Eh
 * total energy  :   -70.0432103 Eh     change       -0.7117048E-03 Eh
 * total energy  :   -70.0438453 Eh     change       -0.6349522E-03 Eh
 * total energy  :   -70.0443066 Eh     change       -0.4612988E-03 Eh
 * total energy  :   -70.0475517 Eh     change       -0.1212558E-04 Eh
 * total energy  :   -70.0475628 Eh     change       -0.1109276E-04 Eh
 * total energy  :   -70.0475740 Eh     change       -0.1124308E-04 Eh
 * total energy  :   -70.0475868 Eh     change       -0.1278314E-04 Eh
 * total energy  :   -70.0476020 Eh     change       -0.1516406E-04 Eh
 * total energy  :   -70.0476194 Eh     change       -0.1746253E-04 Eh
 * total energy  :   -70.0476378 Eh     change       -0.1838499E-04 Eh
 * total energy  :   -70.0476560 Eh     change       -0.1818959E-04 Eh
 * total energy  :   -70.0476594 Eh     change       -0.3423602E-05 Eh
   *** GEOMETRY OPTIMIZATION CONVERGED AFTER 68 ITERATIONS ***

 final structure:
================
63
 xtb: 6.7.1 (edcfbbe)
C            1.41236959231385       -0.15101602366903       -0.18121927475879
C            1.20644529845918        0.54805619046485        1.15707193787328
C            1.58579878607042        2.02958476397855        1.12998125870829
C            0.76816916448692        2.88943243878523        0.16328466039317
C           -0.74438088020669        2.85920652122275        0.39094549014356
C           -1.19518670277448        3.29283386181013        1.78674862504654
C           -0.82550166498043        4.72746193612591        2.16823292565397
C           -1.40491498169737        5.81010809743991        1.25467914488848
C           -2.92802908439686        5.78321100489064        1.10801374217691
C           -3.70048990074764        5.88549601859814        2.42441912574431
C           -3.44106808192939        7.15846334386359        3.23328135689512
C           -3.72038368935411        8.47404622058811        2.49382743745994
C           -5.11911082856294        8.62894453368794        1.88744139964150
N           -6.16681280192966        9.27435106118960        2.73711036382675
C           -5.87480394106678       10.73202152401449        2.96344086977212
C           -5.81812438079720       11.55907471625118        1.70556212748035
C           -4.61413266817988       11.73743478628461        1.03065967144648
C           -4.56201531664421       12.50978903582545       -0.11657730932936
C           -5.70931880899413       13.11757383503751       -0.59819912620668
C           -6.90752326184205       12.96260546599324        0.07879655556176
C           -6.96194627042521       12.18987639123187        1.22529566937802
C           -7.45771091253832        9.13719239568513        2.03682145935854
C           -6.27603991836485        8.61089428692396        4.04667075851571
H            0.74939237446312        0.25259020457485       -0.94236420124153
H            1.20695317079914       -1.21463310406045       -0.08491219305259
H            2.43922621291823       -0.03054137446223       -0.51927789811711
H            0.16695174312197        0.43505755651615        1.47048056105271
H            1.82621160776489        0.05506833723440        1.90998072272451
H            1.49267033681357        2.43238407869254        2.14101002129380
H            2.63782354618551        2.11342387553462        0.84623804242440
H            1.12597161648552        3.91907294098452        0.23625028558677
H            0.96244428904545        2.55877726851618       -0.85858787410112
H           -1.21671270904040        3.49787314277521       -0.35929038901568
H           -1.10976350794250        1.84537614035105        0.21828818423138
H           -2.27844911161287        3.16547661883943        1.85246717049327
H           -0.75342082550285        2.62358684723359        2.52662721131756
H           -1.15204015420462        4.90432491433552        3.19605210912175
H            0.26069399606627        4.82896712243802        2.16104758493150
H           -1.08832011234825        6.78476118103149        1.63484117298203
H           -0.97204008038158        5.70404638495896        0.25892280860006
H           -3.22772173422994        6.59325218763706        0.43749567534913
H           -3.21793295997767        4.85007768236504        0.62358155706816
H           -4.76851469156495        5.78266623984709        2.20923508782428
H           -3.43313581182230        5.03787417069339        3.05540363281551
H           -4.01524955655169        7.09754868575679        4.15877728427857
H           -2.38926982652725        7.17536992498575        3.51993204958896
H           -3.48760717477639        9.30539124125398        3.16047017759058
H           -3.01474372459075        8.53725402991847        1.66452072350450
H           -5.05443994721546        9.23144230234626        0.97922301574978
H           -5.48845457038810        7.64138418128412        1.60851562368185
H           -6.65821920199083       11.11777470938378        3.61935125912971
H           -4.92234946244197       10.80283957030673        3.49061371505973
H           -3.70770168803626       11.28968354227428        1.41114740227579
H           -3.62200207473808       12.64359793590490       -0.62825363112769
H           -5.66697747821316       13.72231745347326       -1.48996428999450
H           -7.80035338286743       13.44967689557377       -0.28011190705096
H           -7.89731039808118       12.09631293672567        1.75771722301590
H           -7.71328977224003        8.08494299632472        1.92594447391544
H           -8.24566360316683        9.62748039175318        2.60552678443869
H           -7.40099919102056        9.59377693149483        1.05043012648574
H           -6.41121246721831        7.53975323089717        3.90935041174846
H           -5.38029201055038        8.78453629626341        4.63745701314941
H           -7.13178041028813        9.00324192202741        4.59405440254951

          :  Hamiltonian                  GFN2-xTB          :
         :: total energy             -70.047659425306 Eh    ::
         :: gradient norm              0.000232423182 Eh/a0 ::
         :: HOMO-LUMO gap              2.944477966475 eV    ::
         :: SCC energy               -71.142818784421 Eh    ::
         :: -> dispersion             -0.056681266049 Eh    ::
         :: repulsion energy           1.095159359115 Eh    ::

    * Orbital Energies and Occupations

         #    Occupation            Energy/Eh            Energy/eV
      -------------------------------------------------------------
         1        2.0000           -0.8558521             -23.2889
       ...           ...                  ...                  ...
        54        2.0000           -0.5280302             -14.3684
        55        2.0000           -0.5271756             -14.3452
        56        2.0000           -0.5244721             -14.2716
        57        2.0000           -0.5211727             -14.1818
        58        2.0000           -0.5113612             -13.9148
        59        2.0000           -0.5072161             -13.8021
        60        2.0000           -0.5009044             -13.6303
        61        2.0000           -0.4910321             -13.3617
        62        2.0000           -0.4878946             -13.2763
        63        2.0000           -0.4844784             -13.1833
        64        2.0000           -0.4704802             -12.8024
        65        2.0000           -0.4664693             -12.6933
        66        2.0000           -0.4644506             -12.6383 (HOMO)
        67                         -0.3562431              -9.6939 (LUMO)
        68                         -0.3455959              -9.4041
        69                         -0.2334741              -6.3532
        70                         -0.2055599              -5.5936
        71                         -0.1504996              -4.0953
        72                         -0.1399632              -3.8086
        73                         -0.1341658              -3.6508
        74                         -0.0644047              -1.7525
        75                         -0.0585137              -1.5922
        76                         -0.0383103              -1.0425
        77                         -0.0294940              -0.8026
       ...                                ...                  ...
       132                          0.5399604              14.6931
      -------------------------------------------------------------
                  HL-Gap            0.1082076 Eh            2.9445 eV

     #   Z          covCN         q      C6AA      α(0)
     1   6 C        3.751    -0.102    22.516     6.767
     2   6 C        3.799    -0.052    21.515     6.604
     3   6 C        3.800    -0.058    21.611     6.619
     4   6 C        3.800    -0.057    21.606     6.618
     5   6 C        3.800    -0.057    21.602     6.617
     6   6 C        3.800    -0.058    21.618     6.620
     7   6 C        3.800    -0.059    21.629     6.622
     8   6 C        3.800    -0.059    21.635     6.623
     9   6 C        3.800    -0.061    21.675     6.629
    10   6 C        3.800    -0.062    21.689     6.631
    11   6 C        3.799    -0.070    21.846     6.655
    12   6 C        3.799    -0.069    21.829     6.652
    13   6 C        3.759    -0.040    21.346     6.587
    14   7 N        3.620     0.128    19.053     6.483
    15   6 C        3.764    -0.040    21.323     6.582
    16   6 C        2.967    -0.007    28.199     8.710
    17   6 C        2.923    -0.039    28.964     8.826
    18   6 C        2.919    -0.023    28.568     8.765
    19   6 C        2.920    -0.018    28.465     8.749
    20   6 C        2.919    -0.022    28.561     8.764
    21   6 C        2.923    -0.039    28.968     8.826
    22   6 C        3.727    -0.091    22.341     6.748
    23   6 C        3.721    -0.090    22.343     6.751
    24   1 H        0.925     0.034     2.535     2.490
    25   1 H        0.925     0.033     2.541     2.493
    26   1 H        0.925     0.035     2.513     2.479
    27   1 H        0.924     0.029     2.598     2.521
    28   1 H        0.924     0.029     2.604     2.523
    29   1 H        0.924     0.027     2.631     2.537
    30   1 H        0.924     0.031     2.567     2.506
    31   1 H        0.924     0.026     2.643     2.542
    32   1 H        0.924     0.034     2.527     2.486
    33   1 H        0.924     0.025     2.665     2.553
    34   1 H        0.924     0.035     2.516     2.480
    35   1 H        0.924     0.024     2.679     2.560
    36   1 H        0.924     0.037     2.483     2.464
    37   1 H        0.924     0.024     2.674     2.557
    38   1 H        0.924     0.039     2.457     2.451
    39   1 H        0.924     0.023     2.691     2.565
    40   1 H        0.924     0.041     2.440     2.443
    41   1 H        0.924     0.020     2.733     2.585
    42   1 H        0.924     0.045     2.384     2.414
    43   1 H        0.924     0.015     2.805     2.619
    44   1 H        0.925     0.054     2.272     2.357
    45   1 H        0.924     0.032     2.558     2.501
    46   1 H        0.924     0.061     2.193     2.316
    47   1 H        0.924     0.046     2.374     2.409
    48   1 H        0.924     0.074     2.044     2.236
    49   1 H        0.924     0.082     1.964     2.191
    50   1 H        0.924     0.090     1.884     2.146
    51   1 H        0.924     0.081     1.964     2.192
    52   1 H        0.924     0.084     1.936     2.176
    53   1 H        0.926     0.042     2.419     2.432
    54   1 H        0.926     0.058     2.223     2.332
    55   1 H        0.926     0.062     2.180     2.309
    56   1 H        0.926     0.058     2.217     2.329
    57   1 H        0.926     0.040     2.444     2.444
    58   1 H        0.925     0.093     1.849     2.126
    59   1 H        0.925     0.094     1.837     2.119
    60   1 H        0.925     0.098     1.800     2.098
    61   1 H        0.925     0.099     1.798     2.097
    62   1 H        0.925     0.100     1.785     2.089
    63   1 H        0.925     0.091     1.866     2.136

Wiberg/Mayer (AO) data.
largest (>0.10) Wiberg bond orders for each atom

     #   Z sym  total        # sym  WBO       # sym  WBO       # sym  WBO
 ---------------------------------------------------------------------------
     1   6 C    3.997 --     2 C    1.020    26 H    0.988    25 H    0.987
                            24 H    0.986
     2   6 C    3.998 --     1 C    1.020     3 C    1.008    28 H    0.978
                            27 H    0.976
     3   6 C    3.997 --     2 C    1.008     4 C    1.007    30 H    0.977
                            29 H    0.976
     4   6 C    3.997 --     5 C    1.008     3 C    1.007    31 H    0.976
                            32 H    0.975
     5   6 C    3.997 --     6 C    1.008     4 C    1.008    33 H    0.975
                            34 H    0.974
     6   6 C    3.997 --     5 C    1.008     7 C    1.008    35 H    0.975
                            36 H    0.974
     7   6 C    3.997 --     6 C    1.008     8 C    1.007    37 H    0.975
                            38 H    0.974
     8   6 C    3.997 --     7 C    1.007     9 C    1.007    39 H    0.976
                            40 H    0.974
     9   6 C    3.996 --    10 C    1.007     8 C    1.007    41 H    0.976
                            42 H    0.973
    10   6 C    3.995 --    11 C    1.008     9 C    1.007    43 H    0.971
                            44 H    0.971
    11   6 C    3.992 --    10 C    1.008    12 C    1.004    45 H    0.974
                            46 H    0.970
    12   6 C    3.985 --    13 C    1.005    11 C    1.004    47 H    0.966
                            48 H    0.965
    13   6 C    3.925 --    12 C    1.005    49 H    0.964    50 H    0.958
                            14 N    0.923
    14   7 N    3.808 --    23 C    0.962    22 C    0.961    13 C    0.923
                            15 C    0.913
    15   6 C    3.931 --    16 C    1.005    51 H    0.965    52 H    0.960
                            14 N    0.913
    16   6 C    3.979 --    17 C    1.407    21 C    1.407    15 C    1.005
                            19 C    0.109
    17   6 C    3.991 --    18 C    1.444    16 C    1.407    53 H    0.967
                            20 C    0.109
    18   6 C    3.990 --    17 C    1.444    19 C    1.438    54 H    0.969
                            21 C    0.109
    19   6 C    3.988 --    18 C    1.438    20 C    1.437    55 H    0.969
                            16 C    0.109
    20   6 C    3.990 --    21 C    1.445    19 C    1.437    56 H    0.969
                            17 C    0.109
    21   6 C    3.991 --    20 C    1.445    16 C    1.407    57 H    0.968
                            18 C    0.109
    22   6 C    3.932 --    58 H    0.975    59 H    0.975    60 H    0.972
                            14 N    0.961
    23   6 C    3.931 --    63 H    0.975    61 H    0.973    62 H    0.971
                            14 N    0.962
    24   1 H    0.999 --     1 C    0.986
    25   1 H    0.999 --     1 C    0.987
    26   1 H    0.999 --     1 C    0.988
    27   1 H    0.999 --     2 C    0.976
    28   1 H    0.999 --     2 C    0.978
    29   1 H    0.999 --     3 C    0.976
    30   1 H    0.999 --     3 C    0.977
    31   1 H    0.999 --     4 C    0.976
    32   1 H    0.999 --     4 C    0.975
    33   1 H    0.999 --     5 C    0.975
    34   1 H    0.999 --     5 C    0.974
    35   1 H    0.999 --     6 C    0.975
    36   1 H    0.999 --     6 C    0.974
    37   1 H    0.999 --     7 C    0.975
    38   1 H    0.998 --     7 C    0.974
    39   1 H    0.999 --     8 C    0.976
    40   1 H    0.998 --     8 C    0.974
    41   1 H    1.000 --     9 C    0.976
    42   1 H    0.998 --     9 C    0.973
    43   1 H    1.000 --    10 C    0.971
    44   1 H    0.997 --    10 C    0.971
    45   1 H    0.999 --    11 C    0.974
    46   1 H    0.996 --    11 C    0.970
    47   1 H    0.998 --    12 C    0.966
    48   1 H    0.994 --    12 C    0.965
    49   1 H    0.993 --    13 C    0.964
    50   1 H    0.992 --    13 C    0.958
    51   1 H    0.993 --    15 C    0.965
    52   1 H    0.993 --    15 C    0.960
    53   1 H    0.998 --    17 C    0.967
    54   1 H    0.996 --    18 C    0.969
    55   1 H    0.996 --    19 C    0.969
    56   1 H    0.996 --    20 C    0.969
    57   1 H    0.998 --    21 C    0.968
    58   1 H    0.991 --    22 C    0.975
    59   1 H    0.991 --    22 C    0.975
    60   1 H    0.990 --    22 C    0.972
    61   1 H    0.989 --    23 C    0.973
    62   1 H    0.990 --    23 C    0.971
    63   1 H    0.992 --    23 C    0.975
 ---------------------------------------------------------------------------

molecular dipole:
                 x           y           z       tot (Debye)
 q only:      -10.968      17.547       4.451
   full:      -11.062      17.610       4.533      54.099

           -------------------------------------------------
          | TOTAL ENERGY              -70.047659425306 Eh   |
          | GRADIENT NORM               0.000232423182 Eh/α |
          | HOMO-LUMO GAP               2.944477966475 eV   |
           -------------------------------------------------

 * finished run on 2024/12/20 at 07:19:16.615
