   * xtb version 6.7.1 (edcfbbe) compiled by 'conda@3ef47c1a292c' on 2024-11-25

   ID    Z sym.   atoms
    1    6 C      1, 2, 4, 5, 7-13, 15, 16
    2    7 N      3, 6, 14
    3    1 H      17-34

          program call               : xtb C1319.xyz --opt --namespace C1319 --charge +1
          :  Hamiltonian                  GFN2-xTB          :
 * total energy  :   -45.4175416 Eh     change       -0.3787761E-09 Eh
 * total energy  :   -45.4242590 Eh     change       -0.6717423E-02 Eh
 * total energy  :   -45.4254250 Eh     change       -0.1165980E-02 Eh
 * total energy  :   -45.4256070 Eh     change       -0.1820624E-03 Eh
 * total energy  :   -45.4257220 Eh     change       -0.1149820E-03 Eh
 * total energy  :   -45.4257648 Eh     change       -0.4279871E-04 Eh
 * total energy  :   -45.4258290 Eh     change       -0.6417694E-04 Eh
 * total energy  :   -45.4259305 Eh     change       -0.1015379E-03 Eh
 * total energy  :   -45.4260810 Eh     change       -0.1504665E-03 Eh
 * total energy  :   -45.4262870 Eh     change       -0.2060153E-03 Eh
 * total energy  :   -45.4311120 Eh     change       -0.2554856E-04 Eh
 * total energy  :   -45.4311370 Eh     change       -0.2498895E-04 Eh
 * total energy  :   -45.4311760 Eh     change       -0.3894245E-04 Eh
 * total energy  :   -45.4312132 Eh     change       -0.3722435E-04 Eh
 * total energy  :   -45.4312296 Eh     change       -0.1641015E-04 Eh
 * total energy  :   -45.4312584 Eh     change       -0.2874520E-04 Eh
 * total energy  :   -45.4312642 Eh     change       -0.5812828E-05 Eh
 * total energy  :   -45.4312693 Eh     change       -0.5112741E-05 Eh
 * total energy  :   -45.4312724 Eh     change       -0.3172450E-05 Eh
   *** GEOMETRY OPTIMIZATION CONVERGED AFTER 104 ITERATIONS ***

 final structure:
================
34
 xtb: 6.7.1 (edcfbbe)
C            0.54806483267698       -0.05198096821529        0.13353791250011
C            0.25308062205904        0.70274817400707        1.43155999194109
N            0.99268169441590        1.97711099908551        1.38417442805495
C            0.49885908684347        3.21098570551693        1.08117562441504
C            1.53559780804317        4.09133495632815        1.12680207069045
N            2.65244537588530        3.38113632576195        1.44084821867205
C            2.29920153290652        2.10842352037909        1.59848834574497
C            3.95236911453262        3.90300756445690        1.76316129553469
C            4.23889318519170        3.70115658960141        3.24424636000552
C            5.18669813542519        4.47151043181076        3.90118063089349
C            5.41398951919669        4.21907044486549        5.24594631657931
C            4.68692732775730        3.22077398117803        5.87595451425432
C            3.76231323858697        2.51076631545505        5.12673161857730
N            3.54590518753445        2.74340448882520        3.84251503168946
C           -1.24175925922758        0.98544519328833        1.55467527974729
C            0.73507976606342       -0.08951547914050        2.64790750899147
H            0.21967185188548        0.52113328191072       -0.73058831303183
H            0.01725424022544       -0.99921078909942        0.13483310291601
H            1.61106613202989       -0.25687035236083        0.03206223453556
H           -0.53038724845154        3.39549510946509        0.85953730127580
H            1.54797210745267        5.14796058031570        0.95492734794079
H            2.97742912319571        1.32301864695401        1.85728423776856
H            4.71494712909713        3.37590059860329        1.17871946364486
H            3.99112363032939        4.96330297416927        1.50779086198189
H            5.73251533820563        5.24056080497965        3.37841701832460
H            6.14561155778635        4.79535570534388        5.79054766478008
H            4.83391467066719        2.99737170605624        6.91964467362781
H            3.16760518243592        1.71947106733755        5.56189456058951
H           -1.77019437014436        0.04626666477554        1.68990608133902
H           -1.45078041149031        1.61499261692607        2.41631978514948
H           -1.63732115874362        1.45423805649195        0.65758337231860
H            0.09256935898414       -0.95260310864493        2.79397979905938
H            1.74975799171981       -0.45395625837292        2.51759670572836
H            0.69283770691422        0.52275445194054        3.54530895375894

          :  Hamiltonian                  GFN2-xTB          :
         :: total energy             -45.431272450873 Eh    ::
         :: gradient norm              0.000488645942 Eh/a0 ::
         :: HOMO-LUMO gap              3.109392795898 eV    ::
         :: SCC energy               -46.162559463308 Eh    ::
         :: -> dispersion             -0.031182508126 Eh    ::
         :: repulsion energy           0.731287012435 Eh    ::

    * Orbital Energies and Occupations

         #    Occupation            Energy/Eh            Energy/eV
      -------------------------------------------------------------
         1        2.0000           -0.8719369             -23.7266
       ...           ...                  ...                  ...
        30        2.0000           -0.6021529             -16.3854
        31        2.0000           -0.5917592             -16.1026
        32        2.0000           -0.5905690             -16.0702
        33        2.0000           -0.5881203             -16.0036
        34        2.0000           -0.5839347             -15.8897
        35        2.0000           -0.5830460             -15.8655
        36        2.0000           -0.5717092             -15.5570
        37        2.0000           -0.5708743             -15.5343
        38        2.0000           -0.5638107             -15.3421
        39        2.0000           -0.5577352             -15.1767
        40        2.0000           -0.5548682             -15.0987
        41        2.0000           -0.5341467             -14.5349
        42        2.0000           -0.4993376             -13.5877 (HOMO)
        43                         -0.3850695             -10.4783 (LUMO)
        44                         -0.3692955             -10.0490
        45                         -0.3566137              -9.7040
        46                         -0.3508194              -9.5463
        47                         -0.2313884              -6.2964
        48                         -0.1788640              -4.8671
        49                         -0.1243991              -3.3851
        50                         -0.0629789              -1.7137
        51                         -0.0535173              -1.4563
        52                         -0.0495259              -1.3477
        53                         -0.0415971              -1.1319
       ...                                ...                  ...
        82                          0.5035917              13.7034
      -------------------------------------------------------------
                  HL-Gap            0.1142681 Eh            3.1094 eV

     #   Z          covCN         q      C6AA      α(0)
     1   6 C        3.760    -0.128    23.012     6.839
     2   6 C        3.837     0.074    19.318     6.253
     3   7 N        2.871     0.052    20.326     6.696
     4   6 C        3.078    -0.007    28.111     8.692
     5   6 C        3.069    -0.011    28.222     8.711
     6   7 N        2.873     0.074    19.959     6.635
     7   6 C        3.107     0.055    26.628     8.455
     8   6 C        3.751    -0.032    21.205     6.567
     9   6 C        2.961     0.089    26.022     8.367
    10   6 C        2.915    -0.041    29.025     8.834
    11   6 C        2.930    -0.000    28.036     8.683
    12   6 C        2.914    -0.030    28.751     8.793
    13   6 C        2.907     0.064    26.558     8.450
    14   7 N        1.841    -0.243    27.184     7.727
    15   6 C        3.760    -0.131    23.062     6.846
    16   6 C        3.760    -0.133    23.097     6.851
    17   1 H        0.925     0.059     2.208     2.324
    18   1 H        0.925     0.080     1.975     2.198
    19   1 H        0.925     0.054     2.266     2.354
    20   1 H        0.927     0.105     1.738     2.061
    21   1 H        0.926     0.098     1.803     2.100
    22   1 H        0.927     0.121     1.606     1.981
    23   1 H        0.924     0.093     1.846     2.125
    24   1 H        0.924     0.092     1.856     2.130
    25   1 H        0.926     0.056     2.249     2.345
    26   1 H        0.926     0.067     2.115     2.274
    27   1 H        0.926     0.066     2.130     2.282
    28   1 H        0.925     0.055     2.260     2.351
    29   1 H        0.925     0.078     1.995     2.209
    30   1 H        0.925     0.061     2.183     2.310
    31   1 H        0.925     0.061     2.185     2.311
    32   1 H        0.925     0.079     1.986     2.204
    33   1 H        0.925     0.058     2.224     2.332
    34   1 H        0.925     0.061     2.183     2.310

Wiberg/Mayer (AO) data.
largest (>0.10) Wiberg bond orders for each atom

     #   Z sym  total        # sym  WBO       # sym  WBO       # sym  WBO
 ---------------------------------------------------------------------------
     1   6 C    3.985 --     2 C    0.984    17 H    0.983    19 H    0.983
                            18 H    0.977
     2   6 C    3.937 --    15 C    0.999    16 C    0.992     1 C    0.984
                             3 N    0.919
     3   7 N    3.703 --     7 C    1.367     4 C    1.228     2 C    0.919
     4   6 C    3.951 --     5 C    1.593     3 N    1.228    20 H    0.959
     5   6 C    3.947 --     4 C    1.593     6 N    1.220    21 H    0.963
     6   7 N    3.712 --     7 C    1.349     5 C    1.220     8 C    0.984
     7   6 C    3.946 --     3 N    1.367     6 N    1.349    22 H    0.950
     8   6 C    3.949 --     6 N    0.984     9 C    0.971    24 H    0.962
                            23 H    0.946
     9   6 C    3.980 --    14 N    1.417    10 C    1.410     8 C    0.971
                            12 C    0.110
    10   6 C    3.989 --    11 C    1.437     9 C    1.410    25 H    0.967
                            13 C    0.112
    11   6 C    3.985 --    12 C    1.440    10 C    1.437    26 H    0.967
                            14 N    0.102
    12   6 C    3.988 --    11 C    1.440    13 C    1.429    27 H    0.967
                             9 C    0.110
    13   6 C    3.979 --    12 C    1.429    14 N    1.427    28 H    0.963
                            10 C    0.112
    14   7 N    3.084 --    13 C    1.427     9 C    1.417    11 C    0.102
    15   6 C    3.985 --     2 C    0.999    30 H    0.982    31 H    0.980
                            29 H    0.977
    16   6 C    3.986 --     2 C    0.992    34 H    0.983    33 H    0.981
                            32 H    0.978
    17   1 H    0.996 --     1 C    0.983
    18   1 H    0.993 --     1 C    0.977
    19   1 H    0.997 --     1 C    0.983
    20   1 H    0.989 --     4 C    0.959
    21   1 H    0.990 --     5 C    0.963
    22   1 H    0.985 --     7 C    0.950
    23   1 H    0.991 --     8 C    0.946
    24   1 H    0.991 --     8 C    0.962
    25   1 H    0.997 --    10 C    0.967
    26   1 H    0.994 --    11 C    0.967
    27   1 H    0.994 --    12 C    0.967
    28   1 H    0.997 --    13 C    0.963
    29   1 H    0.993 --    15 C    0.977
    30   1 H    0.996 --    15 C    0.982
    31   1 H    0.996 --    15 C    0.980
    32   1 H    0.993 --    16 C    0.978
    33   1 H    0.997 --    16 C    0.981
    34   1 H    0.996 --    16 C    0.983
 ---------------------------------------------------------------------------

molecular dipole:
                 x           y           z       tot (Debye)
 q only:        3.891       4.765       3.676
   full:        4.248       5.029       3.826      19.353

           -------------------------------------------------
          | TOTAL ENERGY              -45.431272450873 Eh   |
          | GRADIENT NORM               0.000488645942 Eh/α |
          | HOMO-LUMO GAP               3.109392795898 eV   |
           -------------------------------------------------

 * finished run on 2024/12/20 at 07:19:28.648
