   * xtb version 6.7.1 (edcfbbe) compiled by 'conda@3ef47c1a292c' on 2024-11-25

   ID    Z sym.   atoms
    1    6 C      1, 3, 5-8, 10, 11
    2    8 O      2, 4
    3    7 N      9
    4    1 H      12-21

          program call               : xtb C1318.xyz --opt --namespace C1318 --charge +1
          :  Hamiltonian                  GFN2-xTB          :
 * total energy  :   -32.8692605 Eh     change       -0.3123191E-09 Eh
 * total energy  :   -32.8731115 Eh     change       -0.3851041E-02 Eh
 * total energy  :   -32.8737226 Eh     change       -0.6110302E-03 Eh
 * total energy  :   -32.8737794 Eh     change       -0.5686486E-04 Eh
 * total energy  :   -32.8738049 Eh     change       -0.2546762E-04 Eh
 * total energy  :   -32.8738131 Eh     change       -0.8165839E-05 Eh
 * total energy  :   -32.8738216 Eh     change       -0.8558303E-05 Eh
 * total energy  :   -32.8738348 Eh     change       -0.1316010E-04 Eh
 * total energy  :   -32.8738480 Eh     change       -0.1321585E-04 Eh
 * total energy  :   -32.8738558 Eh     change       -0.7828853E-05 Eh
 * total energy  :   -32.8738584 Eh     change       -0.2564991E-05 Eh
   *** GEOMETRY OPTIMIZATION CONVERGED AFTER 11 ITERATIONS ***

 final structure:
================
21
 xtb: 6.7.1 (edcfbbe)
C            0.67203493114901       -0.36751762069088       -0.15561715245846
O            0.19335052467299       -1.01626028934998        1.02535513674629
C            1.07683415675125       -1.69205886529880        1.73004955340992
O            2.24601227686703       -1.81854036629299        1.48662307459324
C            0.45161550562599       -2.32539092465278        2.95377204035178
C           -0.90027796789636       -2.22313607764443        3.27451555400206
C           -1.35187039647448       -2.84941388977643        4.42827396394844
C           -0.46074746046303       -3.54813029270364        5.21978120040396
N            0.83413424107467       -3.63492005631171        4.89482413081656
C            1.29095387326027       -3.04247352971027        3.78936290820950
C            1.76177825345178       -4.36657786958143        5.72765773948714
H           -0.10577534154944        0.32943511447110       -0.45500661902660
H            0.84511036215149       -1.10571820580215       -0.93991262952497
H            1.60609623444764        0.15567840985028        0.05313080516925
H           -1.56904443310989       -1.66799694482950        2.63518079211012
H           -2.39003943706235       -2.79732709636642        4.71609219827201
H           -0.78330146955622       -4.04438170273038        6.12356247260884
H            2.34267718121759       -3.12762080611148        3.54584593634081
H            2.21748031267755       -5.17780656816922        5.15823135314906
H            2.55833688711754       -3.70529964749639        6.07147178081921
H            1.25405176564689       -4.78588277080272        6.59317576057163

          :  Hamiltonian                  GFN2-xTB          :
         :: total energy             -32.873858395770 Eh    ::
         :: gradient norm              0.000553555094 Eh/a0 ::
         :: HOMO-LUMO gap              2.554215893424 eV    ::
         :: SCC energy               -33.325074884787 Eh    ::
         :: -> dispersion             -0.015161918130 Eh    ::
         :: repulsion energy           0.451216489016 Eh    ::

    * Orbital Energies and Occupations

         #    Occupation            Energy/Eh            Energy/eV
      -------------------------------------------------------------
         1        2.0000           -0.8938791             -24.3237
       ...           ...                  ...                  ...
        17        2.0000           -0.6880440             -18.7226
        18        2.0000           -0.6834305             -18.5971
        19        2.0000           -0.6695442             -18.2192
        20        2.0000           -0.6596677             -17.9505
        21        2.0000           -0.6558755             -17.8473
        22        2.0000           -0.6460338             -17.5795
        23        2.0000           -0.6381454             -17.3648
        24        2.0000           -0.6300519             -17.1446
        25        2.0000           -0.6286420             -17.1062
        26        2.0000           -0.6211256             -16.9017
        27        2.0000           -0.5948187             -16.1858
        28        2.0000           -0.5738290             -15.6147
        29        2.0000           -0.5654640             -15.3871 (HOMO)
        30                         -0.4715983             -12.8328 (LUMO)
        31                         -0.4521261             -12.3030
        32                         -0.3682196             -10.0198
        33                         -0.2928171              -7.9680
        34                         -0.1846847              -5.0255
        35                         -0.1293270              -3.5192
        36                         -0.0850786              -2.3151
        37                         -0.0481760              -1.3109
        38                         -0.0436461              -1.1877
        39                         -0.0208150              -0.5664
        40                         -0.0140822              -0.3832
       ...                                ...                  ...
        54                          0.5553282              15.1112
      -------------------------------------------------------------
                  HL-Gap            0.0938657 Eh            2.5542 eV

     #   Z          covCN         q      C6AA      α(0)
     1   6 C        3.657     0.015    20.609     6.516
     2   8 O        1.704    -0.225    17.735     5.686
     3   6 C        2.729     0.357    20.944     7.492
     4   8 O        0.857    -0.371    21.103     6.159
     5   6 C        2.968     0.007    27.852     8.657
     6   6 C        2.923     0.015    27.686     8.629
     7   6 C        2.916    -0.008    28.221     8.711
     8   6 C        2.892     0.032    27.295     8.566
     9   7 N        2.747     0.131    19.015     6.476
    10   6 C        2.903     0.032    27.281     8.564
    11   6 C        3.712    -0.101    22.575     6.790
    12   1 H        0.925     0.096     1.821     2.110
    13   1 H        0.924     0.087     1.908     2.160
    14   1 H        0.924     0.089     1.889     2.150
    15   1 H        0.926     0.122     1.594     1.974
    16   1 H        0.926     0.117     1.639     2.002
    17   1 H        0.926     0.118     1.632     1.998
    18   1 H        0.925     0.137     1.486     1.906
    19   1 H        0.924     0.120     1.613     1.986
    20   1 H        0.924     0.120     1.614     1.987
    21   1 H        0.925     0.111     1.688     2.032

Wiberg/Mayer (AO) data.
largest (>0.10) Wiberg bond orders for each atom

     #   Z sym  total        # sym  WBO       # sym  WBO       # sym  WBO
 ---------------------------------------------------------------------------
     1   6 C    3.891 --    12 H    0.977    14 H    0.973    13 H    0.970
                             2 O    0.933
     2   8 O    2.364 --     3 C    1.186     1 C    0.933     4 O    0.200
     3   6 C    3.941 --     4 O    1.742     2 O    1.186     5 C    0.949
     4   8 O    2.073 --     3 C    1.742     2 O    0.200
     5   6 C    3.984 --    10 C    1.429     6 C    1.388     3 C    0.949
     6   6 C    3.966 --     7 C    1.428     5 C    1.388    15 H    0.955
     7   6 C    3.979 --     8 C    1.456     6 C    1.428    16 H    0.957
     8   6 C    3.954 --     7 C    1.456     9 N    1.327    17 H    0.952
     9   7 N    3.777 --    10 C    1.337     8 C    1.327    11 C    0.983
    10   6 C    3.950 --     5 C    1.429     9 N    1.337    18 H    0.945
    11   6 C    3.924 --     9 N    0.983    21 H    0.973    20 H    0.956
                            19 H    0.955
    12   1 H    0.990 --     1 C    0.977
    13   1 H    0.992 --     1 C    0.970
    14   1 H    0.992 --     1 C    0.973
    15   1 H    0.985 --     6 C    0.955
    16   1 H    0.986 --     7 C    0.957
    17   1 H    0.986 --     8 C    0.952
    18   1 H    0.981 --    10 C    0.945
    19   1 H    0.986 --    11 C    0.955
    20   1 H    0.986 --    11 C    0.956
    21   1 H    0.987 --    11 C    0.973
 ---------------------------------------------------------------------------

molecular dipole:
                 x           y           z       tot (Debye)
 q only:        0.288      -5.779       8.031
   full:        0.199      -5.804       8.090      25.313

           -------------------------------------------------
          | TOTAL ENERGY              -32.873858395770 Eh   |
          | GRADIENT NORM               0.000553555094 Eh/α |
          | HOMO-LUMO GAP               2.554215893424 eV   |
           -------------------------------------------------

 * finished run on 2024/12/20 at 07:19:26.627
