   * xtb version 6.7.1 (edcfbbe) compiled by 'conda@3ef47c1a292c' on 2024-11-25

   ID    Z sym.   atoms
    1    6 C      1-3, 5-17
    2    7 N      4
    3    1 H      18-41

          program call               : xtb C1312.xyz --opt --namespace C1312 --charge +1
          :  Hamiltonian                  GFN2-xTB          :
 * total energy  :   -48.9267589 Eh     change       -0.1676241E-09 Eh
 * total energy  :   -48.9387370 Eh     change       -0.1197811E-01 Eh
 * total energy  :   -48.9425165 Eh     change       -0.3779503E-02 Eh
 * total energy  :   -48.9432341 Eh     change       -0.7175639E-03 Eh
 * total energy  :   -48.9436677 Eh     change       -0.4335865E-03 Eh
 * total energy  :   -48.9438783 Eh     change       -0.2106049E-03 Eh
 * total energy  :   -48.9440306 Eh     change       -0.1523316E-03 Eh
 * total energy  :   -48.9442019 Eh     change       -0.1712846E-03 Eh
 * total energy  :   -48.9443965 Eh     change       -0.1946244E-03 Eh
 * total energy  :   -48.9445792 Eh     change       -0.1826576E-03 Eh
 * total energy  :   -48.9474520 Eh     change       -0.3697315E-04 Eh
 * total energy  :   -48.9474914 Eh     change       -0.3944443E-04 Eh
 * total energy  :   -48.9475224 Eh     change       -0.3097008E-04 Eh
 * total energy  :   -48.9475519 Eh     change       -0.2951372E-04 Eh
 * total energy  :   -48.9475655 Eh     change       -0.1355608E-04 Eh
 * total energy  :   -48.9475739 Eh     change       -0.8461905E-05 Eh
 * total energy  :   -48.9475790 Eh     change       -0.5073195E-05 Eh
 * total energy  :   -48.9475851 Eh     change       -0.6085061E-05 Eh
 * total energy  :   -48.9475877 Eh     change       -0.2547323E-05 Eh
   *** GEOMETRY OPTIMIZATION CONVERGED AFTER 35 ITERATIONS ***

 final structure:
================
41
 xtb: 6.7.1 (edcfbbe)
C            1.37562838089674       -0.57831017806347       -0.64083256875804
C            0.41716399015499       -1.31688819831255       -0.10932959951499
C           -1.05244050665668       -0.97287534653548       -0.01912829045582
N           -1.78375903578753       -1.64244801329428       -1.22313944737119
C           -1.34879162463059       -3.06862046161154       -1.47988449840333
C           -1.67309499605305       -4.12977954872872       -0.45646968318702
C           -2.95193569811333       -4.67636350462096       -0.37342773347741
C           -3.23149565562710       -5.68196618552087        0.53560311426744
C           -2.23346902409681       -6.17683769762033        1.35750680297378
C           -0.94562543153240       -5.68127933586711        1.24414099784132
C           -0.66709638672188       -4.67144324450200        0.34038219530619
C           -3.24648247490023       -1.60472661461831       -1.05714802542997
C           -1.45322879341038       -0.90182174144914       -2.45962600278356
C           -1.60390261506597       -1.50433908315256        1.31910939462711
C           -0.80197437868824       -0.98637053013257        2.48295999944161
C           -1.33156820960223       -0.33875020224460        3.50333953922508
C           -1.26968345353088        0.54055567977001       -0.02395578988569
H            1.21585210885508        0.38385771953073       -1.09633135193669
H            2.39834157773546       -0.91351601813742       -0.62219888638182
H            0.68235201726370       -2.25317248447462        0.35863306109451
H           -1.83410877327510       -3.36069269851426       -2.41514187881724
H           -0.27144847869737       -3.04673665392834       -1.65072106778664
H           -3.73486703924636       -4.34384534048086       -1.03850576745997
H           -4.22895738525585       -6.08911828064748        0.58906748106983
H           -2.45210476092017       -6.96151296903108        2.06394624540208
H           -0.15254900161939       -6.08638720736856        1.85252906156654
H            0.34984626593190       -4.32158984195244        0.24263724519441
H           -3.58436706265156       -0.58606644820297       -0.88457014557134
H           -3.72077939768438       -1.97060800818744       -1.96678222179132
H           -3.55365545650707       -2.23135769163090       -0.22498376635684
H           -1.90599585408120        0.08543183413130       -2.44560980259473
H           -0.37392251942398       -0.80758250405404       -2.56066861216525
H           -1.83811853612015       -1.43420758758023       -3.32764639664029
H           -2.63638865969464       -1.18520859599537        1.46023712736723
H           -1.56629226431203       -2.59455834903121        1.34161646966860
H            0.25846305353997       -1.19553193022071        2.45988488161498
H           -0.73311671297468       -0.00755992877856        4.33309850256662
H           -2.38578025076067       -0.12227061832176        3.56114216557224
H           -0.80514018627983        0.92990606308708        0.87976570215537
H           -0.81391069056007        1.04677210845281       -0.86680125935419
H           -2.32260607988144        0.80384963784881        0.02209280915907

          :  Hamiltonian                  GFN2-xTB          :
         :: total energy             -48.947587650486 Eh    ::
         :: gradient norm              0.000958733733 Eh/a0 ::
         :: HOMO-LUMO gap              4.216306471791 eV    ::
         :: SCC energy               -49.785257468172 Eh    ::
         :: -> dispersion             -0.041995386319 Eh    ::
         :: repulsion energy           0.837669817686 Eh    ::

    * Orbital Energies and Occupations

         #    Occupation            Energy/Eh            Energy/eV
      -------------------------------------------------------------
         1        2.0000           -0.8454121             -23.0048
       ...           ...                  ...                  ...
        34        2.0000           -0.5979360             -16.2707
        35        2.0000           -0.5949758             -16.1901
        36        2.0000           -0.5924707             -16.1219
        37        2.0000           -0.5841327             -15.8951
        38        2.0000           -0.5710787             -15.5398
        39        2.0000           -0.5642581             -15.3542
        40        2.0000           -0.5539182             -15.0729
        41        2.0000           -0.5450182             -14.8307
        42        2.0000           -0.5416102             -14.7380
        43        2.0000           -0.5399993             -14.6941
        44        2.0000           -0.5264367             -14.3251
        45        2.0000           -0.5255030             -14.2997
        46        2.0000           -0.5149386             -14.0122 (HOMO)
        47                         -0.3599922              -9.7959 (LUMO)
        48                         -0.3529986              -9.6056
        49                         -0.3442321              -9.3670
        50                         -0.3163227              -8.6076
        51                         -0.2389075              -6.5010
        52                         -0.2153740              -5.8606
        53                         -0.1606593              -4.3718
        54                         -0.1445744              -3.9341
        55                         -0.1311559              -3.5689
        56                         -0.0683955              -1.8611
        57                         -0.0560250              -1.5245
       ...                                ...                  ...
        92                          0.5414192              14.7328
      -------------------------------------------------------------
                  HL-Gap            0.1549464 Eh            4.2163 eV

     #   Z          covCN         q      C6AA      α(0)
     1   6 C        2.835    -0.082    30.036     8.981
     2   6 C        2.892    -0.045    29.120     8.847
     3   6 C        3.835     0.058    19.585     6.296
     4   7 N        3.611     0.102    19.475     6.554
     5   6 C        3.766    -0.036    21.262     6.572
     6   6 C        2.965    -0.003    28.099     8.695
     7   6 C        2.923    -0.041    29.029     8.836
     8   6 C        2.919    -0.023    28.576     8.766
     9   6 C        2.920    -0.019    28.476     8.751
    10   6 C        2.918    -0.022    28.566     8.765
    11   6 C        2.924    -0.035    28.883     8.813
    12   6 C        3.715    -0.086    22.273     6.743
    13   6 C        3.728    -0.090    22.323     6.745
    14   6 C        3.815    -0.078    21.975     6.672
    15   6 C        2.886    -0.034    28.841     8.805
    16   6 C        2.837    -0.088    30.186     9.004
    17   6 C        3.760    -0.130    23.046     6.844
    18   1 H        0.926     0.061     2.183     2.311
    19   1 H        0.926     0.071     2.069     2.250
    20   1 H        0.926     0.062     2.178     2.308
    21   1 H        0.924     0.079     1.991     2.206
    22   1 H        0.924     0.083     1.949     2.183
    23   1 H        0.926     0.040     2.451     2.448
    24   1 H        0.926     0.057     2.235     2.338
    25   1 H        0.926     0.061     2.188     2.313
    26   1 H        0.926     0.058     2.222     2.331
    27   1 H        0.926     0.041     2.430     2.438
    28   1 H        0.925     0.090     1.874     2.141
    29   1 H        0.925     0.088     1.895     2.153
    30   1 H        0.925     0.100     1.782     2.088
    31   1 H        0.925     0.099     1.796     2.096
    32   1 H        0.925     0.094     1.841     2.122
    33   1 H        0.925     0.088     1.901     2.156
    34   1 H        0.925     0.057     2.238     2.340
    35   1 H        0.924     0.060     2.204     2.321
    36   1 H        0.926     0.045     2.383     2.414
    37   1 H        0.926     0.062     2.172     2.304
    38   1 H        0.926     0.053     2.283     2.363
    39   1 H        0.925     0.084     1.935     2.176
    40   1 H        0.925     0.063     2.161     2.299
    41   1 H        0.925     0.055     2.253     2.347

Wiberg/Mayer (AO) data.
largest (>0.10) Wiberg bond orders for each atom

     #   Z sym  total        # sym  WBO       # sym  WBO       # sym  WBO
 ---------------------------------------------------------------------------
     1   6 C    3.985 --     2 C    1.976    19 H    0.972    18 H    0.968
     2   6 C    3.985 --     1 C    1.976     3 C    0.995    20 H    0.953
     3   6 C    3.926 --    17 C    1.004     2 C    0.995    14 C    0.975
                             4 N    0.850
     4   7 N    3.790 --    12 C    0.968    13 C    0.965     5 C    0.916
                             3 C    0.850
     5   6 C    3.933 --     6 C    1.005    22 H    0.963    21 H    0.961
                             4 N    0.916
     6   6 C    3.979 --     7 C    1.406    11 C    1.402     5 C    1.005
                             9 C    0.110
     7   6 C    3.990 --     8 C    1.445     6 C    1.406    23 H    0.967
                            10 C    0.109
     8   6 C    3.990 --     7 C    1.445     9 C    1.438    24 H    0.969
                            11 C    0.109
     9   6 C    3.988 --     8 C    1.438    10 C    1.437    25 H    0.969
                             6 C    0.110
    10   6 C    3.990 --    11 C    1.445     9 C    1.437    26 H    0.969
                             7 C    0.109
    11   6 C    3.991 --    10 C    1.445     6 C    1.402    27 H    0.962
                             8 C    0.109
    12   6 C    3.934 --    29 H    0.973    28 H    0.970     4 N    0.968
                            30 H    0.967
    13   6 C    3.932 --    33 H    0.973    31 H    0.972    32 H    0.972
                             4 N    0.965
    14   6 C    3.989 --    15 C    1.010     3 C    0.975    34 H    0.968
                            35 H    0.948
    15   6 C    3.987 --    16 C    1.984    14 C    1.010    36 H    0.962
    16   6 C    3.987 --    15 C    1.984    37 H    0.974    38 H    0.973
    17   6 C    3.984 --     3 C    1.004    41 H    0.976    40 H    0.975
                            39 H    0.967
    18   1 H    0.996 --     1 C    0.968
    19   1 H    0.994 --     1 C    0.972
    20   1 H    0.996 --     2 C    0.953
    21   1 H    0.993 --     5 C    0.961
    22   1 H    0.993 --     5 C    0.963
    23   1 H    0.998 --     7 C    0.967
    24   1 H    0.996 --     8 C    0.969
    25   1 H    0.996 --     9 C    0.969
    26   1 H    0.996 --    10 C    0.969
    27   1 H    0.998 --    11 C    0.962
    28   1 H    0.992 --    12 C    0.970
    29   1 H    0.991 --    12 C    0.973
    30   1 H    0.990 --    12 C    0.967
    31   1 H    0.990 --    13 C    0.972
    32   1 H    0.991 --    13 C    0.972
    33   1 H    0.992 --    13 C    0.973
    34   1 H    0.996 --    14 C    0.968
    35   1 H    0.996 --    14 C    0.948
    36   1 H    0.998 --    15 C    0.962
    37   1 H    0.995 --    16 C    0.974
    38   1 H    0.997 --    16 C    0.973
    39   1 H    0.992 --    17 C    0.967
    40   1 H    0.996 --    17 C    0.975
    41   1 H    0.997 --    17 C    0.976
 ---------------------------------------------------------------------------

molecular dipole:
                 x           y           z       tot (Debye)
 q only:       -3.121      -3.484      -1.386
   full:       -3.135      -3.501      -1.520      12.554

           -------------------------------------------------
          | TOTAL ENERGY              -48.947587650486 Eh   |
          | GRADIENT NORM               0.000958733733 Eh/α |
          | HOMO-LUMO GAP               4.216306471791 eV   |
           -------------------------------------------------

 * finished run on 2024/12/20 at 07:19:12.769
