   * xtb version 6.7.1 (edcfbbe) compiled by 'conda@3ef47c1a292c' on 2024-11-25

   ID    Z sym.   atoms
    1    6 C      1, 2, 4-11
    2   15 P      3
    3    1 H      12-33

          program call               : xtb C1314.xyz --opt --namespace C1314 --charge +1
          :  Hamiltonian                  GFN2-xTB          :
 * total energy  :   -34.7200228 Eh     change       -0.1707576E-09 Eh
 * total energy  :   -34.7254949 Eh     change       -0.5472071E-02 Eh
 * total energy  :   -34.7268637 Eh     change       -0.1368876E-02 Eh
 * total energy  :   -34.7270420 Eh     change       -0.1782999E-03 Eh
 * total energy  :   -34.7271453 Eh     change       -0.1033008E-03 Eh
 * total energy  :   -34.7272178 Eh     change       -0.7244440E-04 Eh
 * total energy  :   -34.7273425 Eh     change       -0.1247605E-03 Eh
 * total energy  :   -34.7274410 Eh     change       -0.9842329E-04 Eh
 * total energy  :   -34.7275293 Eh     change       -0.8829833E-04 Eh
 * total energy  :   -34.7276234 Eh     change       -0.9409566E-04 Eh
 * total energy  :   -34.7279697 Eh     change       -0.8593484E-05 Eh
 * total energy  :   -34.7279807 Eh     change       -0.1103002E-04 Eh
 * total energy  :   -34.7279872 Eh     change       -0.6440270E-05 Eh
 * total energy  :   -34.7279967 Eh     change       -0.9526340E-05 Eh
 * total energy  :   -34.7280059 Eh     change       -0.9194150E-05 Eh
 * total energy  :   -34.7280143 Eh     change       -0.8415144E-05 Eh
 * total energy  :   -34.7280213 Eh     change       -0.6943566E-05 Eh
 * total energy  :   -34.7280289 Eh     change       -0.7590465E-05 Eh
 * total energy  :   -34.7280312 Eh     change       -0.2304802E-05 Eh
   *** GEOMETRY OPTIMIZATION CONVERGED AFTER 33 ITERATIONS ***

 final structure:
================
33
 xtb: 6.7.1 (edcfbbe)
C            0.88796528687712        0.18565604818244        0.05776892590821
C            0.45545666094141        1.39561723261992       -0.76302948114361
P            1.20629533918736        1.41085494361003       -2.42630165232901
C            0.66764891645693       -0.06701621700140       -3.35874914587714
C           -0.83467157308377       -0.31991965334009       -3.28261231883185
C            0.65423306503620        2.88272925800657       -3.36483155177937
C            0.46842112486867        4.14489118480516       -2.52793361973908
C            3.02971647877739        1.30626099595218       -2.39503931399741
C            3.76030349396804        2.54332558586083       -1.85654584368928
C            3.44242435669643        2.80258851232858       -0.40972101909337
C            3.95130436266353        2.09547068074045        0.58252322691440
H            0.68152405509334       -0.74842242804136       -0.45975259799473
H            0.34409720434344        0.17390873758726        0.99894618961514
H            1.94976687102416        0.23489329909393        0.28877508670383
H           -0.62911114218342        1.40386404625191       -0.90776560985232
H            0.73802542350394        2.31733963791747       -0.25130176220530
H            0.97547596121300        0.08844487954559       -4.39757868490746
H            1.22140089596123       -0.92837656018717       -2.97524772063013
H           -1.40479030636362        0.54810826184316       -3.60663511534306
H           -1.09575944043915       -1.14938625234602       -3.93495538960255
H           -1.14356348387347       -0.58178222617313       -2.27396467970724
H            1.39572694220754        3.04794669217230       -4.15304084690038
H           -0.29013505162203        2.61926762790368       -3.84966327254349
H            1.38460179940536        4.43044694730492       -2.01881124377751
H            0.18014695724861        4.96637221451387       -3.17952350345062
H           -0.31786828010345        4.01535850590038       -1.78850801087946
H            3.29100086057568        0.42901105259050       -1.79647665510139
H            3.33532589081766        1.11190200432305       -3.42909014780280
H            4.83157183819810        2.35836261142530       -1.96119931128993
H            3.51559670583245        3.41587837226567       -2.46322981868311
H            2.76993884479784        3.62434253882656       -0.20133949566225
H            3.70994072278066        2.29957150012960        1.61060547892927
H            4.65201921919194        1.29430996538564        0.40861890474438

          :  Hamiltonian                  GFN2-xTB          :
         :: total energy             -34.728031161032 Eh    ::
         :: gradient norm              0.000473333102 Eh/a0 ::
         :: HOMO-LUMO gap              5.356914494521 eV    ::
         :: SCC energy               -35.270595876996 Eh    ::
         :: -> dispersion             -0.027749223769 Eh    ::
         :: repulsion energy           0.542564715964 Eh    ::

    * Orbital Energies and Occupations

         #    Occupation            Energy/Eh            Energy/eV
      -------------------------------------------------------------
         1        2.0000           -0.8533576             -23.2210
       ...           ...                  ...                  ...
        21        2.0000           -0.6213502             -16.9078
        22        2.0000           -0.6177456             -16.8097
        23        2.0000           -0.6158091             -16.7570
        24        2.0000           -0.6072872             -16.5251
        25        2.0000           -0.5966644             -16.2361
        26        2.0000           -0.5957654             -16.2116
        27        2.0000           -0.5906467             -16.0723
        28        2.0000           -0.5833288             -15.8732
        29        2.0000           -0.5796022             -15.7718
        30        2.0000           -0.5777829             -15.7223
        31        2.0000           -0.5698045             -15.5052
        32        2.0000           -0.5527020             -15.0398
        33        2.0000           -0.5294399             -14.4068 (HOMO)
        34                         -0.3325770              -9.0499 (LUMO)
        35                         -0.2944560              -8.0126
        36                         -0.2802987              -7.6273
        37                         -0.2724591              -7.4140
        38                         -0.1944674              -5.2917
        39                         -0.1236981              -3.3660
        40                         -0.0763801              -2.0784
        41                         -0.0451715              -1.2292
        42                         -0.0397808              -1.0825
        43                         -0.0302603              -0.8234
        44                         -0.0227340              -0.6186
       ...                                ...                  ...
        71                          0.7447434              20.2655
      -------------------------------------------------------------
                  HL-Gap            0.1968630 Eh            5.3569 eV

     #   Z          covCN         q      C6AA      α(0)
     1   6 C        3.827    -0.119    22.752     6.787
     2   6 C        3.750    -0.067    21.850     6.667
     3  15 P        3.967     0.182   152.398    22.176
     4   6 C        3.749    -0.075    21.990     6.688
     5   6 C        3.815    -0.117    22.717     6.784
     6   6 C        3.749    -0.069    21.888     6.673
     7   6 C        3.803    -0.117    22.733     6.788
     8   6 C        3.751    -0.072    21.941     6.680
     9   6 C        3.850    -0.064    21.696     6.625
    10   6 C        2.886    -0.036    28.890     8.812
    11   6 C        2.837    -0.088    30.201     9.006
    12   1 H        0.925     0.062     2.170     2.304
    13   1 H        0.925     0.077     2.006     2.215
    14   1 H        0.925     0.065     2.138     2.287
    15   1 H        0.927     0.096     1.819     2.109
    16   1 H        0.926     0.100     1.783     2.088
    17   1 H        0.927     0.089     1.887     2.148
    18   1 H        0.926     0.090     1.880     2.144
    19   1 H        0.925     0.059     2.206     2.323
    20   1 H        0.925     0.078     2.002     2.213
    21   1 H        0.925     0.065     2.142     2.289
    22   1 H        0.927     0.092     1.861     2.133
    23   1 H        0.927     0.092     1.862     2.134
    24   1 H        0.925     0.064     2.153     2.295
    25   1 H        0.925     0.077     2.008     2.216
    26   1 H        0.925     0.062     2.170     2.304
    27   1 H        0.927     0.095     1.827     2.114
    28   1 H        0.927     0.089     1.886     2.148
    29   1 H        0.924     0.075     2.028     2.227
    30   1 H        0.924     0.057     2.236     2.338
    31   1 H        0.925     0.041     2.439     2.442
    32   1 H        0.926     0.061     2.192     2.315
    33   1 H        0.926     0.053     2.278     2.360

Wiberg/Mayer (AO) data.
largest (>0.10) Wiberg bond orders for each atom

     #   Z sym  total        # sym  WBO       # sym  WBO       # sym  WBO
 ---------------------------------------------------------------------------
     1   6 C    3.985 --     2 C    1.000    12 H    0.977    13 H    0.977
                            14 H    0.976
     2   6 C    3.987 --     3 P    1.007     1 C    1.000    16 H    0.931
                            15 H    0.930
     3  15 P    4.567 --     4 C    1.012     8 C    1.010     6 C    1.007
                             2 C    1.007
     4   6 C    3.990 --     3 P    1.012     5 C    1.003    18 H    0.937
                            17 H    0.935
     5   6 C    3.983 --     4 C    1.003    21 H    0.979    19 H    0.977
                            20 H    0.977
     6   6 C    3.989 --     3 P    1.007     7 C    1.002    23 H    0.934
                            22 H    0.934
     7   6 C    3.985 --     6 C    1.002    26 H    0.980    25 H    0.978
                            24 H    0.977
     8   6 C    3.988 --     3 P    1.010     9 C    0.975    27 H    0.932
                            28 H    0.931
     9   6 C    3.985 --    10 C    1.015     8 C    0.975    30 H    0.970
                            29 H    0.961
    10   6 C    3.990 --    11 C    1.982     9 C    1.015    31 H    0.960
    11   6 C    3.989 --    10 C    1.982    32 H    0.974    33 H    0.973
    12   1 H    0.996 --     1 C    0.977
    13   1 H    0.994 --     1 C    0.977
    14   1 H    0.996 --     1 C    0.976
    15   1 H    0.991 --     2 C    0.930
    16   1 H    0.990 --     2 C    0.931
    17   1 H    0.992 --     4 C    0.935
    18   1 H    0.992 --     4 C    0.937
    19   1 H    0.996 --     5 C    0.977
    20   1 H    0.993 --     5 C    0.977
    21   1 H    0.996 --     5 C    0.979
    22   1 H    0.991 --     6 C    0.934
    23   1 H    0.992 --     6 C    0.934
    24   1 H    0.996 --     7 C    0.977
    25   1 H    0.994 --     7 C    0.978
    26   1 H    0.996 --     7 C    0.980
    27   1 H    0.991 --     8 C    0.932
    28   1 H    0.992 --     8 C    0.931
    29   1 H    0.994 --     9 C    0.961
    30   1 H    0.997 --     9 C    0.970
    31   1 H    0.998 --    10 C    0.960
    32   1 H    0.996 --    11 C    0.974
    33   1 H    0.997 --    11 C    0.973
 ---------------------------------------------------------------------------

molecular dipole:
                 x           y           z       tot (Debye)
 q only:        2.283       2.725      -4.211
   full:        2.330       2.690      -4.342      14.269

           -------------------------------------------------
          | TOTAL ENERGY              -34.728031161032 Eh   |
          | GRADIENT NORM               0.000473333102 Eh/α |
          | HOMO-LUMO GAP               5.356914494521 eV   |
           -------------------------------------------------

 * finished run on 2024/12/20 at 07:19:17.588
