   * xtb version 6.7.1 (edcfbbe) compiled by 'conda@3ef47c1a292c' on 2024-11-25

   ID    Z sym.   atoms
    1    6 C      1-12, 14-19
    2    7 N      13
    3    1 H      20-59

          program call               : xtb C1317.xyz --opt --namespace C1317 --charge +1
          :  Hamiltonian                  GFN2-xTB          :
 * total energy  :   -61.4765910 Eh     change       -0.1161595E-09 Eh
 * total energy  :   -61.4840892 Eh     change       -0.7498248E-02 Eh
 * total energy  :   -61.4860069 Eh     change       -0.1917701E-02 Eh
 * total energy  :   -61.4861750 Eh     change       -0.1680868E-03 Eh
 * total energy  :   -61.4864452 Eh     change       -0.2701910E-03 Eh
 * total energy  :   -61.4866547 Eh     change       -0.2095153E-03 Eh
 * total energy  :   -61.4869652 Eh     change       -0.3105186E-03 Eh
 * total energy  :   -61.4873329 Eh     change       -0.3676364E-03 Eh
 * total energy  :   -61.4877120 Eh     change       -0.3791179E-03 Eh
 * total energy  :   -61.4881169 Eh     change       -0.4048900E-03 Eh
 * total energy  :   -61.4916735 Eh     change       -0.3704556E-04 Eh
 * total energy  :   -61.4917109 Eh     change       -0.3743468E-04 Eh
 * total energy  :   -61.4917493 Eh     change       -0.3831492E-04 Eh
 * total energy  :   -61.4917850 Eh     change       -0.3575915E-04 Eh
 * total energy  :   -61.4918154 Eh     change       -0.3040178E-04 Eh
 * total energy  :   -61.4918403 Eh     change       -0.2485707E-04 Eh
 * total energy  :   -61.4918602 Eh     change       -0.1988165E-04 Eh
 * total energy  :   -61.4918765 Eh     change       -0.1633985E-04 Eh
 * total energy  :   -61.4918801 Eh     change       -0.3575375E-05 Eh
   *** GEOMETRY OPTIMIZATION CONVERGED AFTER 44 ITERATIONS ***

 final structure:
================
59
 xtb: 6.7.1 (edcfbbe)
C            1.90561325106682       -0.36990763056706       -0.61076454630299
C            1.39642205679302       -1.80631647622103       -0.62166292896166
C            1.69258664229431       -2.56266927023074        0.67444528552189
C            1.06609587817694       -1.95790152792028        1.93272848190746
C           -0.45712377417572       -1.82339350142694        1.89476714987795
C           -1.21703642825417       -3.14137350597839        1.73316997406247
C           -0.98256148345887       -4.16308573136583        2.84825973832345
C           -1.29425696786019       -3.66088973273270        4.25992870637825
C           -2.71829103767489       -3.13809120005846        4.46082319281821
C           -3.82276278414245       -4.17448190657484        4.23935254019430
C           -3.83832623877021       -5.30989043918846        5.27035011671428
C           -4.19739217732404       -4.85638260285060        6.69322001227262
N           -5.57005573670799       -5.19086408049392        7.17596930102702
C           -5.82611269710248       -6.67116313482859        7.12430140668478
C           -4.70493032778094       -7.55891660012166        7.64258072415407
C           -5.73750136791045       -4.76524991194724        8.61003130089928
C           -4.98886874876996       -3.52486939499837        9.08041571100224
C           -6.61649310736923       -4.56100769571760        6.30975262278504
C           -6.73450163755770       -3.04647949423268        6.36717723630821
H            1.37619749294586        0.23049797321679        0.12478127500391
H            1.75985804028516        0.08768205231204       -1.58642511836690
H            2.96754278430505       -0.34456987090040       -0.37678051354752
H            0.32283001493362       -1.81070949802368       -0.81908721746925
H            1.87731779135972       -2.34354337753204       -1.44247652667549
H            1.35660557895595       -3.59576970633815        0.56099914577584
H            2.77529172209122       -2.59046995319386        0.81978592569578
H            1.35617553115669       -2.57200791478550        2.78838858464115
H            1.48933517199764       -0.96545358064601        2.09725170501424
H           -0.78020495085132       -1.32607041639179        2.81247874414601
H           -0.73617726008637       -1.16941470536610        1.06710512608597
H           -2.28447920819442       -2.91714604057699        1.66317259725792
H           -0.92988469746625       -3.60401942604010        0.78779111540908
H           -1.58120238569282       -5.05175851124997        2.63244421339401
H            0.06220022617368       -4.47640007278485        2.82950026130973
H           -1.09236458376344       -4.46912683626511        4.96762014593408
H           -0.60609057335089       -2.85116891090731        4.50494357975345
H           -2.78821473308212       -2.72176630987916        5.46992769184750
H           -2.88921212010544       -2.31405326099403        3.76818458586806
H           -4.78602243913148       -3.66064986503679        4.22787264113003
H           -3.68789778943721       -4.61880970463506        3.25347790896501
H           -4.51029703447166       -6.09216207945117        4.91947479837266
H           -2.84119426831021       -5.74970366349877        5.29541627521142
H           -3.50185395619201       -5.29241918173999        7.40932900640306
H           -4.09201829375434       -3.77440691617398        6.74513545595847
H           -6.73378145554624       -6.85482960658729        7.70360863807048
H           -6.03655299643768       -6.94657052768733        6.09024077246265
H           -4.39304925359325       -7.30450615988305        8.65199765936527
H           -5.07697924858492       -8.58027796792754        7.66710890413645
H           -3.83755298462636       -7.54282505815620        6.98995089900778
H           -6.80790998086417       -4.62847255183132        8.77433187899376
H           -5.40918751302678       -5.59511522063013        9.23669396748928
H           -5.20251382032847       -2.64003849457296        8.49175650846714
H           -5.31208817426537       -3.32427718072187       10.09958765386281
H           -3.91449119789153       -3.68065445703243        9.10875618354751
H           -6.40479985721813       -4.86091552274158        5.28279078309547
H           -7.57759338279330       -4.99490158243801        6.59589531874953
H           -5.80378997579405       -2.54502088153642        6.11864688812555
H           -7.47122137985600       -2.74867503499502        5.62436276968512
H           -7.08981215265686       -2.69635613918376        7.33122374214151

          :  Hamiltonian                  GFN2-xTB          :
         :: total energy             -61.491880069578 Eh    ::
         :: gradient norm              0.000233359093 Eh/a0 ::
         :: HOMO-LUMO gap              6.338960771878 eV    ::
         :: SCC energy               -62.388423181925 Eh    ::
         :: -> dispersion             -0.049110790483 Eh    ::
         :: repulsion energy           0.896543112348 Eh    ::

    * Orbital Energies and Occupations

         #    Occupation            Energy/Eh            Energy/eV
      -------------------------------------------------------------
         1        2.0000           -0.8495864             -23.1184
       ...           ...                  ...                  ...
        46        2.0000           -0.5441203             -14.8063
        47        2.0000           -0.5387376             -14.6598
        48        2.0000           -0.5310074             -14.4494
        49        2.0000           -0.5285073             -14.3814
        50        2.0000           -0.5177057             -14.0875
        51        2.0000           -0.5138609             -13.9829
        52        2.0000           -0.5066110             -13.7856
        53        2.0000           -0.4965213             -13.5110
        54        2.0000           -0.4929796             -13.4147
        55        2.0000           -0.4890285             -13.3071
        56        2.0000           -0.4742820             -12.9059
        57        2.0000           -0.4704095             -12.8005
        58        2.0000           -0.4683172             -12.7436 (HOMO)
        59                         -0.2353647              -6.4046 (LUMO)
        60                         -0.1719194              -4.6782
        61                         -0.1565816              -4.2608
        62                         -0.1527561              -4.1567
        63                         -0.0635580              -1.7295
        64                         -0.0603523              -1.6423
        65                         -0.0503158              -1.3692
        66                         -0.0414585              -1.1281
        67                         -0.0348170              -0.9474
        68                         -0.0311541              -0.8477
        69                         -0.0192991              -0.5252
       ...                                ...                  ...
       116                          0.2532990               6.8926
      -------------------------------------------------------------
                  HL-Gap            0.2329525 Eh            6.3390 eV

     #   Z          covCN         q      C6AA      α(0)
     1   6 C        3.751    -0.103    22.521     6.768
     2   6 C        3.799    -0.053    21.519     6.605
     3   6 C        3.800    -0.058    21.615     6.619
     4   6 C        3.800    -0.058    21.614     6.619
     5   6 C        3.800    -0.058    21.615     6.619
     6   6 C        3.800    -0.059    21.630     6.622
     7   6 C        3.800    -0.059    21.640     6.623
     8   6 C        3.800    -0.061    21.666     6.627
     9   6 C        3.800    -0.062    21.700     6.633
    10   6 C        3.800    -0.069    21.813     6.650
    11   6 C        3.799    -0.072    21.873     6.659
    12   6 C        3.748    -0.038    21.323     6.586
    13   7 N        3.616     0.100    19.516     6.561
    14   6 C        3.764    -0.030    21.144     6.554
    15   6 C        3.751    -0.127    23.004     6.840
    16   6 C        3.753    -0.031    21.184     6.563
    17   6 C        3.750    -0.129    23.044     6.846
    18   6 C        3.758    -0.028    21.131     6.554
    19   6 C        3.751    -0.125    22.953     6.832
    20   1 H        0.925     0.033     2.540     2.492
    21   1 H        0.925     0.034     2.531     2.488
    22   1 H        0.925     0.036     2.507     2.476
    23   1 H        0.924     0.029     2.600     2.522
    24   1 H        0.924     0.030     2.589     2.516
    25   1 H        0.924     0.027     2.631     2.537
    26   1 H        0.924     0.032     2.562     2.503
    27   1 H        0.924     0.026     2.643     2.542
    28   1 H        0.924     0.035     2.517     2.481
    29   1 H        0.924     0.024     2.677     2.558
    30   1 H        0.924     0.037     2.490     2.468
    31   1 H        0.924     0.023     2.683     2.561
    32   1 H        0.924     0.039     2.460     2.453
    33   1 H        0.924     0.023     2.682     2.561
    34   1 H        0.924     0.041     2.437     2.441
    35   1 H        0.924     0.022     2.702     2.571
    36   1 H        0.924     0.045     2.387     2.416
    37   1 H        0.924     0.019     2.755     2.596
    38   1 H        0.925     0.051     2.305     2.374
    39   1 H        0.924     0.032     2.562     2.503
    40   1 H        0.925     0.058     2.217     2.329
    41   1 H        0.925     0.046     2.366     2.406
    42   1 H        0.925     0.069     2.101     2.267
    43   1 H        0.925     0.081     1.970     2.195
    44   1 H        0.925     0.096     1.825     2.113
    45   1 H        0.924     0.077     2.007     2.215
    46   1 H        0.924     0.082     1.962     2.190
    47   1 H        0.925     0.062     2.172     2.305
    48   1 H        0.925     0.084     1.943     2.180
    49   1 H        0.925     0.072     2.067     2.248
    50   1 H        0.924     0.080     1.975     2.198
    51   1 H        0.924     0.085     1.932     2.174
    52   1 H        0.925     0.069     2.094     2.263
    53   1 H        0.925     0.081     1.967     2.193
    54   1 H        0.925     0.065     2.143     2.289
    55   1 H        0.924     0.087     1.912     2.162
    56   1 H        0.924     0.074     2.040     2.234
    57   1 H        0.925     0.066     2.128     2.281
    58   1 H        0.925     0.080     1.981     2.201
    59   1 H        0.925     0.067     2.120     2.277

Wiberg/Mayer (AO) data.
largest (>0.10) Wiberg bond orders for each atom

     #   Z sym  total        # sym  WBO       # sym  WBO       # sym  WBO
 ---------------------------------------------------------------------------
     1   6 C    3.997 --     2 C    1.020    22 H    0.988    21 H    0.987
                            20 H    0.986
     2   6 C    3.998 --     1 C    1.020     3 C    1.008    24 H    0.978
                            23 H    0.976
     3   6 C    3.997 --     2 C    1.008     4 C    1.008    26 H    0.977
                            25 H    0.976
     4   6 C    3.997 --     5 C    1.008     3 C    1.008    28 H    0.975
                            27 H    0.975
     5   6 C    3.997 --     4 C    1.008     6 C    1.008    29 H    0.975
                            30 H    0.974
     6   6 C    3.997 --     5 C    1.008     7 C    1.007    31 H    0.976
                            32 H    0.974
     7   6 C    3.997 --     8 C    1.007     6 C    1.007    33 H    0.975
                            34 H    0.974
     8   6 C    3.996 --     7 C    1.007     9 C    1.007    35 H    0.974
                            36 H    0.973
     9   6 C    3.995 --    10 C    1.008     8 C    1.007    37 H    0.972
                            38 H    0.972
    10   6 C    3.992 --     9 C    1.008    11 C    1.005    39 H    0.973
                            40 H    0.970
    11   6 C    3.986 --    10 C    1.005    12 C    1.001    42 H    0.967
                            41 H    0.966
    12   6 C    3.927 --    11 C    1.001    43 H    0.968    44 H    0.954
                            13 N    0.930
    13   7 N    3.796 --    18 C    0.933    12 C    0.930    14 C    0.929
                            16 C    0.926
    14   6 C    3.939 --    15 C    1.023    45 H    0.969    46 H    0.964
                            13 N    0.929
    15   6 C    3.982 --    14 C    1.023    49 H    0.981    47 H    0.976
                            48 H    0.972
    16   6 C    3.936 --    17 C    1.022    50 H    0.968    51 H    0.964
                            13 N    0.926
    17   6 C    3.982 --    16 C    1.022    54 H    0.982    52 H    0.977
                            53 H    0.972
    18   6 C    3.938 --    19 C    1.022    56 H    0.969    55 H    0.962
                            13 N    0.933
    19   6 C    3.983 --    18 C    1.022    59 H    0.980    57 H    0.977
                            58 H    0.973
    20   1 H    0.999 --     1 C    0.986
    21   1 H    0.999 --     1 C    0.987
    22   1 H    0.999 --     1 C    0.988
    23   1 H    0.999 --     2 C    0.976
    24   1 H    0.999 --     2 C    0.978
    25   1 H    0.999 --     3 C    0.976
    26   1 H    0.999 --     3 C    0.977
    27   1 H    0.999 --     4 C    0.975
    28   1 H    0.999 --     4 C    0.975
    29   1 H    0.999 --     5 C    0.975
    30   1 H    0.999 --     5 C    0.974
    31   1 H    0.999 --     6 C    0.976
    32   1 H    0.998 --     6 C    0.974
    33   1 H    0.999 --     7 C    0.975
    34   1 H    0.998 --     7 C    0.974
    35   1 H    0.999 --     8 C    0.974
    36   1 H    0.998 --     8 C    0.973
    37   1 H    1.000 --     9 C    0.972
    38   1 H    0.997 --     9 C    0.972
    39   1 H    0.999 --    10 C    0.973
    40   1 H    0.996 --    10 C    0.970
    41   1 H    0.998 --    11 C    0.966
    42   1 H    0.995 --    11 C    0.967
    43   1 H    0.993 --    12 C    0.968
    44   1 H    0.991 --    12 C    0.954
    45   1 H    0.994 --    14 C    0.969
    46   1 H    0.993 --    14 C    0.964
    47   1 H    0.996 --    15 C    0.976
    48   1 H    0.993 --    15 C    0.972
    49   1 H    0.995 --    15 C    0.981
    50   1 H    0.993 --    16 C    0.968
    51   1 H    0.993 --    16 C    0.964
    52   1 H    0.995 --    17 C    0.977
    53   1 H    0.993 --    17 C    0.972
    54   1 H    0.996 --    17 C    0.982
    55   1 H    0.992 --    18 C    0.962
    56   1 H    0.994 --    18 C    0.969
    57   1 H    0.996 --    19 C    0.977
    58   1 H    0.993 --    19 C    0.973
    59   1 H    0.995 --    19 C    0.980
 ---------------------------------------------------------------------------

molecular dipole:
                 x           y           z       tot (Debye)
 q only:       -9.921      -9.431      13.139
   full:      -10.058      -9.540      13.202      48.658

           -------------------------------------------------
          | TOTAL ENERGY              -61.491880069578 Eh   |
          | GRADIENT NORM               0.000233359093 Eh/α |
          | HOMO-LUMO GAP               6.338960771878 eV   |
           -------------------------------------------------

 * finished run on 2024/12/20 at 07:19:26.225
