   * xtb version 6.7.1 (edcfbbe) compiled by 'conda@3ef47c1a292c' on 2024-11-25

   ID    Z sym.   atoms
    1    7 N      1
    2    6 C      2, 3, 6-9
    3    8 O      4, 5
    4    1 H      10-23

          program call               : xtb C1316.xyz --opt --namespace C1316 --charge +1
          :  Hamiltonian                  GFN2-xTB          :
 * total energy  :   -30.6162001 Eh     change       -0.3097647E-09 Eh
 * total energy  :   -30.6204090 Eh     change       -0.4208905E-02 Eh
 * total energy  :   -30.6213692 Eh     change       -0.9602097E-03 Eh
 * total energy  :   -30.6216020 Eh     change       -0.2328393E-03 Eh
 * total energy  :   -30.6216726 Eh     change       -0.7058167E-04 Eh
 * total energy  :   -30.6216986 Eh     change       -0.2597572E-04 Eh
 * total energy  :   -30.6217269 Eh     change       -0.2834355E-04 Eh
 * total energy  :   -30.6217881 Eh     change       -0.6120887E-04 Eh
 * total energy  :   -30.6218671 Eh     change       -0.7892667E-04 Eh
 * total energy  :   -30.6219450 Eh     change       -0.7794340E-04 Eh
 * total energy  :   -30.6254640 Eh     change       -0.9327633E-04 Eh
 * total energy  :   -30.6255346 Eh     change       -0.7056393E-04 Eh
 * total energy  :   -30.6255808 Eh     change       -0.4616877E-04 Eh
 * total energy  :   -30.6256287 Eh     change       -0.4795527E-04 Eh
 * total energy  :   -30.6256148 Eh     change        0.1397938E-04 Eh
 * total energy  :   -30.6256561 Eh     change       -0.4131246E-04 Eh
 * total energy  :   -30.6256659 Eh     change       -0.9859949E-05 Eh
 * total energy  :   -30.6256723 Eh     change       -0.6339909E-05 Eh
 * total energy  :   -30.6256754 Eh     change       -0.3123631E-05 Eh
   *** GEOMETRY OPTIMIZATION CONVERGED AFTER 35 ITERATIONS ***

 final structure:
================
23
 xtb: 6.7.1 (edcfbbe)
N            1.04282575400133       -2.37915987909168        0.85339301215734
C            0.54999839801021       -1.34429133107110       -0.10330670610701
C            1.07290963521658       -0.02395010231083        0.49774185855654
O            1.60550883763022       -0.06263303259142        1.58259599192579
O            0.88294896774402        1.02570498979336       -0.24065914863395
C           -0.98181755513682       -1.36561749845255       -0.18512708315140
C           -1.56316394659235       -0.53481695149639       -1.34262323839365
C           -1.20256896008585       -1.13691914866038       -2.69782625082521
C           -3.08089388165731       -0.47053802232988       -1.18279749750412
H            1.46764079585639       -1.77669331318924        1.62806800564052
H            1.76071645826856       -2.99727394524794        0.46669322489504
H            0.27817357746648       -2.94555704802379        1.23598990827977
H            0.97843364053210       -1.49121474004593       -1.09659989333831
H            1.20581337127545        1.84958984677006        0.16853603444776
H           -1.30325107179641       -2.40033728657196       -0.32879773963109
H           -1.39778986102949       -1.00472815212467        0.75829884405860
H           -1.16485893661740        0.48118232587759       -1.28969396133766
H           -1.52777453488933       -2.17293746306437       -2.75939767689832
H           -1.70339152588127       -0.58329162078183       -3.48596352128624
H           -0.13473466165078       -1.08859610665910       -2.89777909475857
H           -3.35635771922715       -0.02074382817552       -0.23228172386573
H           -3.51313681547469        0.13002041980976       -1.97700089198840
H           -3.51604996596255       -1.46550811236239       -1.23527245224178

          :  Hamiltonian                  GFN2-xTB          :
         :: total energy             -30.625675389199 Eh    ::
         :: gradient norm              0.000765168684 Eh/a0 ::
         :: HOMO-LUMO gap              3.769284835695 eV    ::
         :: SCC energy               -30.984081076324 Eh    ::
         :: -> dispersion             -0.014496304470 Eh    ::
         :: repulsion energy           0.358405687125 Eh    ::

    * Orbital Energies and Occupations

         #    Occupation            Energy/Eh            Energy/eV
      -------------------------------------------------------------
         1        2.0000           -0.9256775             -25.1890
       ...           ...                  ...                  ...
        15        2.0000           -0.6825114             -18.5721
        16        2.0000           -0.6771257             -18.4255
        17        2.0000           -0.6638575             -18.0645
        18        2.0000           -0.6542847             -17.8040
        19        2.0000           -0.6459374             -17.5769
        20        2.0000           -0.6287942             -17.1104
        21        2.0000           -0.6206428             -16.8885
        22        2.0000           -0.6019751             -16.3806
        23        2.0000           -0.5893756             -16.0377
        24        2.0000           -0.5741808             -15.6243
        25        2.0000           -0.5655041             -15.3881
        26        2.0000           -0.5595626             -15.2265
        27        2.0000           -0.5522578             -15.0277 (HOMO)
        28                         -0.4137391             -11.2584 (LUMO)
        29                         -0.2550199              -6.9394
        30                         -0.1635550              -4.4506
        31                         -0.1499246              -4.0797
        32                         -0.1136266              -3.0919
        33                         -0.0830145              -2.2589
        34                         -0.0505217              -1.3748
        35                         -0.0381014              -1.0368
        36                         -0.0305114              -0.8303
        37                         -0.0181015              -0.4926
        38                         -0.0016855              -0.0459
       ...                                ...                  ...
        50                          0.4528243              12.3220
      -------------------------------------------------------------
                  HL-Gap            0.1385187 Eh            3.7693 eV

     #   Z          covCN         q      C6AA      α(0)
     1   7 N        3.487    -0.166    24.582     7.364
     2   6 C        3.779    -0.007    20.729     6.486
     3   6 C        2.694     0.358    20.928     7.487
     4   8 O        0.857    -0.393    21.535     6.222
     5   8 O        1.659    -0.304    19.085     5.897
     6   6 C        3.806    -0.082    22.063     6.687
     7   6 C        3.849    -0.014    20.797     6.487
     8   6 C        3.756    -0.124    22.936     6.829
     9   6 C        3.758    -0.122    22.884     6.820
    10   1 H        0.854     0.307     0.694     1.306
    11   1 H        0.859     0.266     0.823     1.421
    12   1 H        0.859     0.271     0.806     1.406
    13   1 H        0.924     0.124     1.584     1.968
    14   1 H        0.804     0.374     0.534     1.148
    15   1 H        0.924     0.073     2.054     2.241
    16   1 H        0.924     0.067     2.123     2.279
    17   1 H        0.924     0.056     2.246     2.343
    18   1 H        0.925     0.050     2.318     2.381
    19   1 H        0.925     0.068     2.109     2.271
    20   1 H        0.925     0.035     2.515     2.480
    21   1 H        0.925     0.047     2.356     2.400
    22   1 H        0.925     0.065     2.143     2.289
    23   1 H        0.925     0.052     2.293     2.368

Wiberg/Mayer (AO) data.
largest (>0.10) Wiberg bond orders for each atom

     #   Z sym  total        # sym  WBO       # sym  WBO       # sym  WBO
 ---------------------------------------------------------------------------
     1   7 N    3.646 --     2 C    0.942    11 H    0.917    12 H    0.908
                            10 H    0.810
     2   6 C    3.912 --     6 C    0.972     1 N    0.942    13 H    0.940
                             3 C    0.937
     3   6 C    3.928 --     4 O    1.703     5 O    1.246     2 C    0.937
     4   8 O    2.101 --     3 C    1.703     5 O    0.187
     5   8 O    2.301 --     3 C    1.246    14 H    0.832     4 O    0.187
     6   6 C    3.968 --     7 C    0.983     2 C    0.972    16 H    0.972
                            15 H    0.963
     7   6 C    3.986 --     8 C    1.011     9 C    1.005     6 C    0.983
                            17 H    0.963
     8   6 C    3.992 --     7 C    1.011    18 H    0.985    19 H    0.981
                            20 H    0.981
     9   6 C    3.989 --     7 C    1.005    23 H    0.985    21 H    0.985
                            22 H    0.982
    10   1 H    0.906 --     1 N    0.810
    11   1 H    0.929 --     1 N    0.917
    12   1 H    0.926 --     1 N    0.908
    13   1 H    0.985 --     2 C    0.940
    14   1 H    0.860 --     5 O    0.832
    15   1 H    0.995 --     6 C    0.963
    16   1 H    0.996 --     6 C    0.972
    17   1 H    0.997 --     7 C    0.963
    18   1 H    0.997 --     8 C    0.985
    19   1 H    0.995 --     8 C    0.981
    20   1 H    0.999 --     8 C    0.981
    21   1 H    0.998 --     9 C    0.985
    22   1 H    0.995 --     9 C    0.982
    23   1 H    0.997 --     9 C    0.985
 ---------------------------------------------------------------------------

molecular dipole:
                 x           y           z       tot (Debye)
 q only:        0.910      -3.169       0.307
   full:        1.102      -3.232       0.439       8.750

           -------------------------------------------------
          | TOTAL ENERGY              -30.625675389199 Eh   |
          | GRADIENT NORM               0.000765168684 Eh/α |
          | HOMO-LUMO GAP               3.769284835695 eV   |
           -------------------------------------------------

 * finished run on 2024/12/20 at 07:19:23.524
