   * xtb version 6.7.1 (edcfbbe) compiled by 'conda@3ef47c1a292c' on 2024-11-25

   ID    Z sym.   atoms
    1    7 N      1-3, 5, 6, 8
    2    6 C      4, 7, 9, 10
    3    1 H      11-17

          program call               : xtb C1311.xyz --opt --namespace C1311 --charge +1
          :  Hamiltonian                  GFN2-xTB          :
 * total energy  :   -29.2140711 Eh     change       -0.3238654E-10 Eh
 * total energy  :   -29.2216274 Eh     change       -0.7556256E-02 Eh
 * total energy  :   -29.2242360 Eh     change       -0.2608585E-02 Eh
 * total energy  :   -29.2249188 Eh     change       -0.6828513E-03 Eh
 * total energy  :   -29.2245042 Eh     change        0.4146189E-03 Eh
 * total energy  :   -29.2260619 Eh     change       -0.1557664E-02 Eh
 * total energy  :   -29.2267268 Eh     change       -0.6649523E-03 Eh
 * total energy  :   -29.2269835 Eh     change       -0.2567271E-03 Eh
 * total energy  :   -29.2274716 Eh     change       -0.4880679E-03 Eh
 * total energy  :   -29.2276601 Eh     change       -0.1885092E-03 Eh
 * total energy  :   -29.2277356 Eh     change       -0.7545164E-04 Eh
 * total energy  :   -29.2277697 Eh     change       -0.3412814E-04 Eh
 * total energy  :   -29.2277734 Eh     change       -0.3687010E-05 Eh
   *** GEOMETRY OPTIMIZATION CONVERGED AFTER 13 ITERATIONS ***

 final structure:
================
17
 xtb: 6.7.1 (edcfbbe)
N            1.40599664587742       -0.16987004679848        0.52669064977159
N            2.34772070440857       -0.03378234758044       -0.04558009086800
N            3.40307012426227       -0.10819091775693       -0.62127989869963
C            4.08411443914808        0.83199149645714       -1.28145435643166
N            3.77594473590508        2.09618278631462       -1.46869411073635
N            4.77389923886145        2.61443130199818       -2.18018319399212
C            5.68918059808910        1.69659123948734       -2.43491481017233
N            5.28997762319620        0.54437231307377       -1.87713559662134
C            5.94677594110212       -0.73446952179670       -1.89845731818250
C            4.74359390210175        3.99234647075921       -2.57705042839880
H            6.59667922824154        1.84371974491377       -2.98691379466694
H            5.55876332297835       -1.34415805192886       -2.71654704986703
H            7.01753882209372       -0.59708419804954       -2.03139542923482
H            5.75489198710998       -1.25087048858357       -0.95900143452157
H            5.74406757297379        4.41878132294006       -2.54101782113766
H            4.34813167857208        4.08635440115744       -3.59008390294674
H            4.08312343507848        4.52602449539302       -1.89571141329406

          :  Hamiltonian                  GFN2-xTB          :
         :: total energy             -29.227773389964 Eh    ::
         :: gradient norm              0.000942067954 Eh/a0 ::
         :: HOMO-LUMO gap              3.836595098043 eV    ::
         :: SCC energy               -29.634984064675 Eh    ::
         :: -> dispersion             -0.011978124129 Eh    ::
         :: repulsion energy           0.407210674711 Eh    ::

    * Orbital Energies and Occupations

         #    Occupation            Energy/Eh            Energy/eV
      -------------------------------------------------------------
         1        2.0000           -0.9333178             -25.3969
       ...           ...                  ...                  ...
        14        2.0000           -0.7268201             -19.7778
        15        2.0000           -0.7192926             -19.5729
        16        2.0000           -0.7143386             -19.4381
        17        2.0000           -0.7071073             -19.2414
        18        2.0000           -0.6709561             -18.2576
        19        2.0000           -0.6577424             -17.8981
        20        2.0000           -0.6521913             -17.7470
        21        2.0000           -0.6424366             -17.4816
        22        2.0000           -0.6365733             -17.3220
        23        2.0000           -0.6259043             -17.0317
        24        2.0000           -0.6125476             -16.6683
        25        2.0000           -0.5991769             -16.3044
        26        2.0000           -0.5758249             -15.6690 (HOMO)
        27                         -0.4348326             -11.8324 (LUMO)
        28                         -0.4315427             -11.7429
        29                         -0.4190214             -11.4022
        30                         -0.3384611              -9.2100
        31                         -0.2088318              -5.6826
        32                         -0.1706112              -4.6426
        33                         -0.1187364              -3.2310
        34                         -0.0782542              -2.1294
        35                         -0.0388816              -1.0580
        36                         -0.0192045              -0.5226
        37                         -0.0066709              -0.1815
       ...                                ...                  ...
        47                          0.9487659              25.8172
      -------------------------------------------------------------
                  HL-Gap            0.1409923 Eh            3.8366 eV

     #   Z          covCN         q      C6AA      α(0)
     1   7 N        0.991    -0.077    22.353     6.796
     2   7 N        1.986     0.354    16.276     5.983
     3   7 N        1.908    -0.145    24.916     7.401
     4   6 C        3.123     0.209    23.423     7.926
     5   7 N        2.031    -0.216    26.451     7.629
     6   7 N        3.036     0.162    18.520     6.392
     7   6 C        3.046     0.048    26.889     8.505
     8   7 N        2.841     0.027    20.776     6.770
     9   6 C        3.689    -0.080    22.235     6.749
    10   6 C        3.693    -0.096    22.527     6.791
    11   1 H        0.926     0.126     1.568     1.958
    12   1 H        0.924     0.110     1.694     2.035
    13   1 H        0.925     0.105     1.737     2.061
    14   1 H        0.925     0.113     1.667     2.019
    15   1 H        0.925     0.110     1.697     2.037
    16   1 H        0.924     0.119     1.625     1.994
    17   1 H        0.925     0.132     1.520     1.928

Wiberg/Mayer (AO) data.
largest (>0.10) Wiberg bond orders for each atom

     #   Z sym  total        # sym  WBO       # sym  WBO       # sym  WBO
 ---------------------------------------------------------------------------
     1   7 N    2.994 --     2 N    2.332     3 N    0.505
     2   7 N    3.851 --     1 N    2.332     3 N    1.475
     3   7 N    3.285 --     2 N    1.475     4 C    1.180     1 N    0.505
     4   6 C    3.960 --     5 N    1.436     3 N    1.180     8 N    1.160
     5   7 N    2.984 --     4 C    1.436     6 N    1.189     7 C    0.115
     6   7 N    3.750 --     7 C    1.416     5 N    1.189    10 C    0.986
     7   6 C    3.939 --     6 N    1.416     8 N    1.315    11 H    0.950
                             5 N    0.115
     8   7 N    3.684 --     7 C    1.315     4 C    1.160     9 C    0.984
     9   6 C    3.924 --     8 N    0.984    13 H    0.972    14 H    0.966
                            12 H    0.956
    10   6 C    3.917 --     6 N    0.986    15 H    0.966    17 H    0.965
                            16 H    0.951
    11   1 H    0.984 --     7 C    0.950
    12   1 H    0.985 --     9 C    0.956
    13   1 H    0.988 --     9 C    0.972
    14   1 H    0.987 --     9 C    0.966
    15   1 H    0.987 --    10 C    0.966
    16   1 H    0.985 --    10 C    0.951
    17   1 H    0.982 --    10 C    0.965
 ---------------------------------------------------------------------------

molecular dipole:
                 x           y           z       tot (Debye)
 q only:        9.526       2.605      -3.761
   full:       10.049       2.580      -4.068      28.327

           -------------------------------------------------
          | TOTAL ENERGY              -29.227773389964 Eh   |
          | GRADIENT NORM               0.000942067954 Eh/α |
          | HOMO-LUMO GAP               3.836595098043 eV   |
           -------------------------------------------------

 * finished run on 2024/12/20 at 07:19:11.214
