   * xtb version 6.7.1 (edcfbbe) compiled by 'conda@3ef47c1a292c' on 2024-11-25

   ID    Z sym.   atoms
    1    6 C      1-9, 11-13
    2    7 N      10
    3    1 H      14-41

          program call               : xtb C1322.xyz --opt --namespace C1322 --charge +1
          :  Hamiltonian                  GFN2-xTB          :
 * total energy  :   -42.5006432 Eh     change       -0.5949374E-10 Eh
 * total energy  :   -42.5064245 Eh     change       -0.5781339E-02 Eh
 * total energy  :   -42.5077539 Eh     change       -0.1329324E-02 Eh
 * total energy  :   -42.5078312 Eh     change       -0.7736492E-04 Eh
 * total energy  :   -42.5079297 Eh     change       -0.9846589E-04 Eh
 * total energy  :   -42.5079650 Eh     change       -0.3526130E-04 Eh
 * total energy  :   -42.5080116 Eh     change       -0.4667885E-04 Eh
 * total energy  :   -42.5080310 Eh     change       -0.1937211E-04 Eh
 * total energy  :   -42.5080546 Eh     change       -0.2354800E-04 Eh
 * total energy  :   -42.5080929 Eh     change       -0.3837283E-04 Eh
 * total energy  :   -42.5089074 Eh     change       -0.2314975E-04 Eh
 * total energy  :   -42.5089180 Eh     change       -0.1061151E-04 Eh
 * total energy  :   -42.5089289 Eh     change       -0.1090664E-04 Eh
 * total energy  :   -42.5089459 Eh     change       -0.1697057E-04 Eh
 * total energy  :   -42.5089600 Eh     change       -0.1408963E-04 Eh
 * total energy  :   -42.5089735 Eh     change       -0.1353556E-04 Eh
 * total energy  :   -42.5089856 Eh     change       -0.1213812E-04 Eh
 * total energy  :   -42.5089962 Eh     change       -0.1057487E-04 Eh
 * total energy  :   -42.5089999 Eh     change       -0.3655809E-05 Eh
   *** GEOMETRY OPTIMIZATION CONVERGED AFTER 44 ITERATIONS ***

 final structure:
================
41
 xtb: 6.7.1 (edcfbbe)
C            1.22778722456033       -0.04628067362504       -0.57916863428678
C            0.98215973103059        0.16290438896604        0.91035322150522
C            1.33350904489499        1.57276248527800        1.38862640528332
C            0.53973321062158        2.69786955905553        0.72066372628112
C           -0.97917548618604        2.59455801383562        0.87363824535444
C           -1.48126813330877        2.58533047819490        2.31865670841843
C           -1.10954411544069        3.81884175693636        3.14634464637417
C           -1.53196027956521        5.16216857115302        2.53727199467590
C           -3.03199568442162        5.31930408632628        2.26347677840138
N           -3.84139424903124        6.01927653295561        3.31118770296807
C           -3.48239910991179        7.44752641232804        3.37590923185011
C           -5.26511704756180        5.90975862585427        2.93702768812452
C           -3.65245683033105        5.40447007525077        4.63593920040854
H            0.54621196944073        0.54962480646569       -1.18119338984250
H            1.07978270241724       -1.09126026847631       -0.83980857705054
H            2.24750840097445        0.22844780881775       -0.83854652241677
H           -0.05990818280607       -0.06469925218709        1.14374989297494
H            1.59876516584500       -0.54340326167777        1.47041714799094
H            1.19758360167750        1.61985592076104        2.47161433882276
H            2.39283953715621        1.75077509649403        1.19060262427114
H            0.88824900947715        3.65078242086309        1.12646545389759
H            0.76890697245269        2.70588796368780       -0.34568118755820
H           -1.44163135527507        3.42007574287661        0.32578783615767
H           -1.31888166508065        1.67404154398613        0.39804674801750
H           -2.56703883956549        2.45003981906803        2.30570351312923
H           -1.07025986845533        1.71404658110737        2.82858019610672
H           -1.52511797341846        3.69620701971667        4.14790841185517
H           -0.02539540911564        3.84639142318779        3.25648683980393
H           -1.16014573346433        5.96813306184444        3.17059256960859
H           -1.01824532372060        5.26545687681103        1.58151410696266
H           -3.17525800438133        5.88124341824215        1.33864326652592
H           -3.46538854463124        4.32812478492076        2.12178210432085
H           -3.66837939783459        7.92570537580549        2.41586659003629
H           -4.07815875034215        7.94813960808446        4.13712215445861
H           -2.43121376518665        7.56952645074123        3.62634020252887
H           -5.57900595612902        4.86734195283741        2.94105231116809
H           -5.88312989381572        6.46068843318735        3.64407636968577
H           -5.42828680684718        6.31865514690178        1.94140691380903
H           -3.87112749222435        4.33938376224053        4.58729119013177
H           -2.62919204696552        5.54196038459918        4.97640680125407
H           -4.32289062550918        5.86608706660417        5.35941517797684

          :  Hamiltonian                  GFN2-xTB          :
         :: total energy             -42.508999861917 Eh    ::
         :: gradient norm              0.000246009754 Eh/a0 ::
         :: HOMO-LUMO gap              7.099275095289 eV    ::
         :: SCC energy               -43.125073940413 Eh    ::
         :: -> dispersion             -0.030411530849 Eh    ::
         :: repulsion energy           0.616074078496 Eh    ::

    * Orbital Energies and Occupations

         #    Occupation            Energy/Eh            Energy/eV
      -------------------------------------------------------------
         1        2.0000           -0.8697856             -23.6681
       ...           ...                  ...                  ...
        28        2.0000           -0.5919030             -16.1065
        29        2.0000           -0.5768394             -15.6966
        30        2.0000           -0.5740696             -15.6212
        31        2.0000           -0.5650353             -15.3754
        32        2.0000           -0.5555481             -15.1172
        33        2.0000           -0.5471330             -14.8882
        34        2.0000           -0.5416487             -14.7390
        35        2.0000           -0.5279537             -14.3664
        36        2.0000           -0.5216538             -14.1949
        37        2.0000           -0.5175851             -14.0842
        38        2.0000           -0.4973976             -13.5349
        39        2.0000           -0.4939572             -13.4413
        40        2.0000           -0.4900903             -13.3360 (HOMO)
        41                         -0.2291967              -6.2368 (LUMO)
        42                         -0.1618691              -4.4047
        43                         -0.1508349              -4.1044
        44                         -0.1451044              -3.9485
        45                         -0.0731186              -1.9897
        46                         -0.0662379              -1.8024
        47                         -0.0368329              -1.0023
        48                         -0.0321089              -0.8737
        49                         -0.0119387              -0.3249
        50                         -0.0059756              -0.1626
        51                          0.0007687               0.0209
       ...                                ...                  ...
        80                          0.2335887               6.3563
      -------------------------------------------------------------
                  HL-Gap            0.2608936 Eh            7.0993 eV

     #   Z          covCN         q      C6AA      α(0)
     1   6 C        3.751    -0.105    22.559     6.773
     2   6 C        3.799    -0.054    21.543     6.609
     3   6 C        3.800    -0.060    21.652     6.625
     4   6 C        3.800    -0.060    21.663     6.627
     5   6 C        3.800    -0.062    21.691     6.631
     6   6 C        3.800    -0.063    21.710     6.634
     7   6 C        3.799    -0.070    21.850     6.656
     8   6 C        3.799    -0.073    21.897     6.663
     9   6 C        3.760    -0.044    21.407     6.596
    10   7 N        3.622     0.145    18.790     6.438
    11   6 C        3.722    -0.096    22.454     6.767
    12   6 C        3.730    -0.098    22.471     6.767
    13   6 C        3.721    -0.095    22.441     6.766
    14   1 H        0.925     0.033     2.546     2.495
    15   1 H        0.925     0.038     2.476     2.461
    16   1 H        0.925     0.039     2.467     2.456
    17   1 H        0.924     0.028     2.615     2.529
    18   1 H        0.924     0.034     2.528     2.486
    19   1 H        0.924     0.026     2.643     2.542
    20   1 H        0.924     0.037     2.483     2.464
    21   1 H        0.924     0.024     2.672     2.556
    22   1 H        0.924     0.043     2.414     2.430
    23   1 H        0.924     0.020     2.729     2.583
    24   1 H        0.924     0.047     2.355     2.400
    25   1 H        0.924     0.017     2.772     2.604
    26   1 H        0.925     0.055     2.262     2.352
    27   1 H        0.924     0.033     2.549     2.497
    28   1 H        0.925     0.062     2.182     2.310
    29   1 H        0.924     0.048     2.347     2.396
    30   1 H        0.925     0.079     1.993     2.208
    31   1 H        0.924     0.080     1.983     2.202
    32   1 H        0.924     0.095     1.830     2.116
    33   1 H        0.925     0.099     1.798     2.097
    34   1 H        0.925     0.098     1.800     2.098
    35   1 H        0.925     0.101     1.774     2.083
    36   1 H        0.925     0.099     1.790     2.092
    37   1 H        0.925     0.100     1.784     2.089
    38   1 H        0.925     0.099     1.797     2.096
    39   1 H        0.925     0.101     1.776     2.084
    40   1 H        0.925     0.105     1.737     2.061
    41   1 H        0.925     0.096     1.819     2.109

Wiberg/Mayer (AO) data.
largest (>0.10) Wiberg bond orders for each atom

     #   Z sym  total        # sym  WBO       # sym  WBO       # sym  WBO
 ---------------------------------------------------------------------------
     1   6 C    3.996 --     2 C    1.020    16 H    0.987    15 H    0.987
                            14 H    0.986
     2   6 C    3.998 --     1 C    1.020     3 C    1.008    18 H    0.978
                            17 H    0.976
     3   6 C    3.997 --     2 C    1.008     4 C    1.007    20 H    0.976
                            19 H    0.976
     4   6 C    3.997 --     5 C    1.007     3 C    1.007    21 H    0.975
                            22 H    0.974
     5   6 C    3.996 --     4 C    1.007     6 C    1.007    23 H    0.976
                            24 H    0.973
     6   6 C    3.994 --     5 C    1.007     7 C    1.007    25 H    0.972
                            26 H    0.971
     7   6 C    3.992 --     6 C    1.007     8 C    1.005    27 H    0.975
                            28 H    0.971
     8   6 C    3.983 --     7 C    1.005     9 C    1.004    29 H    0.966
                            30 H    0.964
     9   6 C    3.922 --     8 C    1.004    31 H    0.970    32 H    0.959
                            10 N    0.919
    10   7 N    3.816 --    11 C    0.959    12 C    0.958    13 C    0.958
                             9 C    0.919
    11   6 C    3.928 --    33 H    0.975    34 H    0.975    35 H    0.970
                            10 N    0.959
    12   6 C    3.928 --    38 H    0.975    36 H    0.975    37 H    0.974
                            10 N    0.958
    13   6 C    3.926 --    41 H    0.975    39 H    0.974    40 H    0.971
                            10 N    0.958
    14   1 H    0.999 --     1 C    0.986
    15   1 H    0.999 --     1 C    0.987
    16   1 H    0.998 --     1 C    0.987
    17   1 H    0.999 --     2 C    0.976
    18   1 H    0.999 --     2 C    0.978
    19   1 H    0.999 --     3 C    0.976
    20   1 H    0.999 --     3 C    0.976
    21   1 H    0.999 --     4 C    0.975
    22   1 H    0.998 --     4 C    0.974
    23   1 H    1.000 --     5 C    0.976
    24   1 H    0.998 --     5 C    0.973
    25   1 H    1.000 --     6 C    0.972
    26   1 H    0.997 --     6 C    0.971
    27   1 H    0.999 --     7 C    0.975
    28   1 H    0.996 --     7 C    0.971
    29   1 H    0.998 --     8 C    0.966
    30   1 H    0.994 --     8 C    0.964
    31   1 H    0.994 --     9 C    0.970
    32   1 H    0.991 --     9 C    0.959
    33   1 H    0.990 --    11 C    0.975
    34   1 H    0.990 --    11 C    0.975
    35   1 H    0.990 --    11 C    0.970
    36   1 H    0.990 --    12 C    0.975
    37   1 H    0.990 --    12 C    0.974
    38   1 H    0.990 --    12 C    0.975
    39   1 H    0.990 --    13 C    0.974
    40   1 H    0.989 --    13 C    0.971
    41   1 H    0.991 --    13 C    0.975
 ---------------------------------------------------------------------------

molecular dipole:
                 x           y           z       tot (Debye)
 q only:       -6.679      10.889       6.061
   full:       -6.776      10.969       6.072      36.224

           -------------------------------------------------
          | TOTAL ENERGY              -42.508999861917 Eh   |
          | GRADIENT NORM               0.000246009754 Eh/α |
          | HOMO-LUMO GAP               7.099275095289 eV   |
           -------------------------------------------------

 * finished run on 2024/12/20 at 07:19:36.072
