   * xtb version 6.7.1 (edcfbbe) compiled by 'conda@3ef47c1a292c' on 2024-11-25

   ID    Z sym.   atoms
    1    6 C      1, 3, 4, 6-24, 26, 27, 29, 30
    2    7 N      2, 5, 25
    3    8 O      28
    4    1 H      31-60

          program call               : xtb C1327.xyz --opt --namespace C1327 --charge +1
          :  Hamiltonian                  GFN2-xTB          :
 * total energy  :   -83.4373556 Eh     change       -0.1278067E-08 Eh
 * total energy  :   -83.4557741 Eh     change       -0.1841847E-01 Eh
 * total energy  :   -83.4614145 Eh     change       -0.5640424E-02 Eh
 * total energy  :   -83.4629973 Eh     change       -0.1582823E-02 Eh
 * total energy  :   -83.4639583 Eh     change       -0.9609414E-03 Eh
 * total energy  :   -83.4646290 Eh     change       -0.6707003E-03 Eh
 * total energy  :   -83.4650994 Eh     change       -0.4704186E-03 Eh
 * total energy  :   -83.4654625 Eh     change       -0.3631293E-03 Eh
 * total energy  :   -83.4657348 Eh     change       -0.2722406E-03 Eh
 * total energy  :   -83.4659196 Eh     change       -0.1848011E-03 Eh
 * total energy  :   -83.4665000 Eh     change       -0.6929104E-05 Eh
 * total energy  :   -83.4665078 Eh     change       -0.7826818E-05 Eh
 * total energy  :   -83.4665168 Eh     change       -0.9029533E-05 Eh
 * total energy  :   -83.4665269 Eh     change       -0.1008393E-04 Eh
 * total energy  :   -83.4665357 Eh     change       -0.8765570E-05 Eh
 * total energy  :   -83.4665425 Eh     change       -0.6883429E-05 Eh
 * total energy  :   -83.4665457 Eh     change       -0.3127396E-05 Eh
 * total energy  :   -83.4665496 Eh     change       -0.3900258E-05 Eh
 * total energy  :   -83.4665527 Eh     change       -0.3118771E-05 Eh
   *** GEOMETRY OPTIMIZATION CONVERGED AFTER 35 ITERATIONS ***

 final structure:
================
60
 xtb: 6.7.1 (edcfbbe)
C            0.53951328893892        0.01412449974420        0.13020270763579
N            0.23852690797874        1.41951226691484        0.09011804815796
C           -1.01058611626890        1.96069262871945        0.06894276765921
C           -0.86236181312230        3.31534536954474        0.06453174344173
N            0.47108355402706        3.58045522821427        0.08161279508708
C            1.11696798787614        2.41883002369458        0.09853157297922
C            1.08853310970206        4.89289443805944        0.11041116903334
C            1.73147674316584        5.23134805175039        1.44012138817365
C            3.01332953122857        4.75787495019735        1.69424088033315
C            3.68201293117530        5.06424725032131        2.87256269209694
C            3.15655251637178        6.09915904008166        3.64008399713001
C            1.87192095719877        6.54753580570614        3.41592879418937
C            1.07954359755359        6.00358048768093        2.40783937656239
C           -0.41359610855385        6.10115035149029        2.54325660130806
C           -0.96430813171562        5.02505058929954        3.56037022789008
C            0.13267566104995        4.11902494092690        4.03939778069969
C            0.52509855751697        3.01140325661011        3.29481191833355
C            1.80277016047604        2.50288554516186        3.42521350155200
C            2.71830298276974        3.06787048823419        4.30695343097461
C            4.18562428834890        2.90303136887213        4.06404494024566
C            4.78240988427817        4.20173881716402        3.41140171405672
C            2.20816567920726        3.94496169190862        5.27517582328241
C            0.92502286188261        4.46493292806185        5.12306510359539
C            3.01653440579476        4.43539112440511        6.38707451756254
N            4.26649039103753        4.27959177506541        6.53291465037354
C            4.67422738441361        4.90603910789906        7.77695712932829
C            3.33667397254829        5.48179169999345        8.32977502969204
O            2.36342264096360        5.12748014300963        7.35526514706455
C            5.27518180147144        3.85123004486080        8.70508216526925
C            5.69885133038110        6.00181880412359        7.48339338573811
H           -0.03836590536173       -0.51306811189805       -0.62862809044529
H            0.28467203496369       -0.39692758664202        1.10896179426165
H            1.59988920723864       -0.14334907074660       -0.05449316306712
H           -1.89889582825267        1.36253159059011        0.05916070756017
H           -1.60784720429251        4.08360883101924        0.04296353434685
H            2.18266970951948        2.30639370191557        0.11547131448342
H            1.86061505974358        4.91814203262882       -0.66379113307150
H            0.32318036439009        5.62744445977374       -0.14133438961913
H            3.48558884471471        4.09357534892891        0.98361421143543
H            3.71898768193219        6.47748879793495        4.47889555929904
H            1.43428007660072        7.26458648171665        4.09341782965979
H           -0.91581078139898        5.97042835721276        1.58551271851336
H           -0.67696409033712        7.08977095983675        2.91736875763883
H           -1.40747934271813        5.54394953585579        4.40877752946473
H           -1.74867433557627        4.44569014713930        3.07080675609936
H           -0.16019856166739        2.59637324386100        2.56944577773059
H            2.13141964209871        1.70440892716300        2.77298577256694
H            4.70813930956325        2.73582197539378        5.00364681141467
H            4.34852862822262        2.05349980019860        3.39951963746176
H            5.32229547431829        4.74834670291506        4.18159157777358
H            5.48192314258933        3.90988007043612        2.62812170836654
H            0.59207216429654        5.21969485758255        5.81805914852305
H            3.05379407978133        5.03718504684359        9.28697288953917
H            3.35538362409773        6.57029657331765        8.42781686701022
H            4.55572208552842        3.05705519493850        8.89285446402957
H            6.15663891313571        3.41598131526504        8.24251019385330
H            5.55807032104776        4.30626262346255        9.65060507224473
H            6.56887261093843        5.56814054730970        6.99804201580786
H            5.27471048621679        6.75757430263223        6.82498068233861
H            6.01030163096169        6.47646062570307        8.40989244534617

          :  Hamiltonian                  GFN2-xTB          :
         :: total energy             -83.466552692290 Eh    ::
         :: gradient norm              0.000322678784 Eh/a0 ::
         :: HOMO-LUMO gap              1.678885731776 eV    ::
         :: SCC energy               -84.786215784730 Eh    ::
         :: -> dispersion             -0.080981929217 Eh    ::
         :: repulsion energy           1.319663092441 Eh    ::

    * Orbital Energies and Occupations

         #    Occupation            Energy/Eh            Energy/eV
      -------------------------------------------------------------
         1        2.0000           -0.8881079             -24.1666
       ...           ...                  ...                  ...
        65        2.0000           -0.5243651             -14.2687
        66        2.0000           -0.5222770             -14.2119
        67        2.0000           -0.5162808             -14.0487
        68        2.0000           -0.5150386             -14.0149
        69        2.0000           -0.5119748             -13.9315
        70        2.0000           -0.5102476             -13.8845
        71        2.0000           -0.5048284             -13.7371
        72        2.0000           -0.5015000             -13.6465
        73        2.0000           -0.4866170             -13.2415
        74        2.0000           -0.4848456             -13.1933
        75        2.0000           -0.4759306             -12.9507
        76        2.0000           -0.4616379             -12.5618
        77        2.0000           -0.4594871             -12.5033 (HOMO)
        78                         -0.3977891             -10.8244 (LUMO)
        79                         -0.3634445              -9.8898
        80                         -0.3483181              -9.4782
        81                         -0.3318902              -9.0312
        82                         -0.3268352              -8.8936
        83                         -0.3132115              -8.5229
        84                         -0.2619800              -7.1288
        85                         -0.2210237              -6.0144
        86                         -0.1906802              -5.1887
        87                         -0.1685373              -4.5861
        88                         -0.1187177              -3.2305
       ...                                ...                  ...
       150                          0.5825232              15.8513
      -------------------------------------------------------------
                  HL-Gap            0.0616979 Eh            1.6789 eV

     #   Z          covCN         q      C6AA      α(0)
     1   6 C        3.692    -0.083    22.278     6.754
     2   7 N        2.867     0.075    19.942     6.632
     3   6 C        3.073    -0.009    28.173     8.703
     4   6 C        3.078    -0.002    27.987     8.673
     5   7 N        2.866     0.072    19.990     6.640
     6   6 C        3.105     0.051    26.727     8.471
     7   6 C        3.747    -0.026    21.111     6.554
     8   6 C        2.973    -0.016    28.405     8.742
     9   6 C        2.933    -0.050    29.238     8.868
    10   6 C        2.969     0.020    27.550     8.609
    11   6 C        2.928    -0.032    28.794     8.800
    12   6 C        2.929    -0.034    28.837     8.807
    13   6 C        2.969     0.004    27.920     8.667
    14   6 C        3.802    -0.063    21.717     6.635
    15   6 C        3.802    -0.063    21.701     6.632
    16   6 C        2.968     0.008    27.837     8.654
    17   6 C        2.927    -0.047    29.160     8.856
    18   6 C        2.927    -0.047    29.168     8.857
    19   6 C        2.971     0.018    27.596     8.617
    20   6 C        3.805    -0.072    21.875     6.658
    21   6 C        3.805    -0.067    21.787     6.645
    22   6 C        2.979    -0.007    28.193     8.710
    23   6 C        2.937    -0.034    28.850     8.809
    24   6 C        2.990     0.240    22.997     7.866
    25   7 N        1.844    -0.312    28.924     7.970
    26   6 C        3.956     0.091    19.019     6.197
    27   6 C        3.793     0.068    19.454     6.281
    28   8 O        1.707    -0.288    18.778     5.851
    29   6 C        3.758    -0.114    22.725     6.796
    30   6 C        3.758    -0.111    22.681     6.790
    31   1 H        0.925     0.105     1.744     2.065
    32   1 H        0.924     0.106     1.734     2.059
    33   1 H        0.925     0.097     1.813     2.105
    34   1 H        0.926     0.105     1.736     2.060
    35   1 H        0.926     0.104     1.752     2.070
    36   1 H        0.926     0.113     1.672     2.022
    37   1 H        0.924     0.084     1.939     2.177
    38   1 H        0.924     0.087     1.909     2.161
    39   1 H        0.925     0.029     2.604     2.524
    40   1 H        0.926     0.053     2.287     2.365
    41   1 H        0.926     0.055     2.262     2.352
    42   1 H        0.925     0.031     2.579     2.512
    43   1 H        0.925     0.058     2.222     2.331
    44   1 H        0.925     0.056     2.244     2.342
    45   1 H        0.924     0.037     2.487     2.466
    46   1 H        0.926     0.005     2.970     2.695
    47   1 H        0.925     0.018     2.764     2.600
    48   1 H        0.925     0.090     1.882     2.145
    49   1 H        0.924     0.042     2.421     2.433
    50   1 H        0.925     0.069     2.094     2.263
    51   1 H        0.925     0.052     2.290     2.366
    52   1 H        0.926     0.064     2.156     2.296
    53   1 H        0.924     0.044     2.397     2.421
    54   1 H        0.924     0.042     2.428     2.437
    55   1 H        0.925     0.043     2.409     2.427
    56   1 H        0.925     0.058     2.223     2.332
    57   1 H        0.925     0.046     2.377     2.411
    58   1 H        0.925     0.057     2.236     2.338
    59   1 H        0.925     0.037     2.493     2.469
    60   1 H        0.925     0.046     2.373     2.409

Wiberg/Mayer (AO) data.
largest (>0.10) Wiberg bond orders for each atom

     #   Z sym  total        # sym  WBO       # sym  WBO       # sym  WBO
 ---------------------------------------------------------------------------
     1   6 C    3.935 --     2 N    0.991    33 H    0.976    31 H    0.967
                            32 H    0.960
     2   7 N    3.718 --     6 C    1.356     3 C    1.227     1 C    0.991
     3   6 C    3.948 --     4 C    1.584     2 N    1.227    34 H    0.962
     4   6 C    3.950 --     3 C    1.584     5 N    1.234    35 H    0.960
     5   7 N    3.721 --     6 C    1.365     4 C    1.234     7 C    0.954
     6   6 C    3.945 --     5 N    1.365     2 N    1.356    36 H    0.951
     7   6 C    3.932 --     8 C    0.976    38 H    0.962    37 H    0.957
                             5 N    0.954
     8   6 C    3.970 --     9 C    1.424    13 C    1.373     7 C    0.976
                            11 C    0.100
     9   6 C    3.990 --     8 C    1.424    10 C    1.407    39 H    0.963
                            12 C    0.100
    10   6 C    3.985 --     9 C    1.407    11 C    1.387    21 C    1.023
                            13 C    0.108
    11   6 C    3.988 --    12 C    1.464    10 C    1.387    40 H    0.964
                             8 C    0.100
    12   6 C    3.988 --    11 C    1.464    13 C    1.396    41 H    0.964
                             9 C    0.100
    13   6 C    3.986 --    12 C    1.396     8 C    1.373    14 C    1.022
                            10 C    0.108
    14   6 C    3.993 --    13 C    1.022    43 H    0.973    42 H    0.973
                            15 C    0.946
    15   6 C    3.992 --    16 C    1.019    45 H    0.976    44 H    0.976
                            14 C    0.946
    16   6 C    3.987 --    23 C    1.418    17 C    1.388    15 C    1.019
                            19 C    0.106
    17   6 C    3.988 --    18 C    1.455    16 C    1.388    46 H    0.966
    18   6 C    3.989 --    17 C    1.455    19 C    1.405    47 H    0.965
    19   6 C    3.985 --    18 C    1.405    22 C    1.342    20 C    1.028
                            16 C    0.106
    20   6 C    3.989 --    19 C    1.028    49 H    0.978    48 H    0.953
                            21 C    0.944
    21   6 C    3.990 --    10 C    1.023    50 H    0.973    51 H    0.971
                            20 C    0.944
    22   6 C    3.987 --    23 C    1.396    19 C    1.342    24 C    1.050
    23   6 C    3.985 --    16 C    1.418    22 C    1.396    52 H    0.961
    24   6 C    3.935 --    25 N    1.710    28 O    1.071    22 C    1.050
    25   7 N    3.036 --    24 C    1.710    26 C    0.997    28 O    0.151
    26   6 C    3.978 --    25 N    0.997    30 C    0.988    29 C    0.988
                            27 C    0.957
    27   6 C    3.931 --    54 H    0.972    53 H    0.971    28 O    0.960
                            26 C    0.957
    28   8 O    2.249 --    24 C    1.071    27 C    0.960    25 N    0.151
    29   6 C    3.990 --    26 C    0.988    55 H    0.986    56 H    0.983
                            57 H    0.983
    30   6 C    3.992 --    26 C    0.988    59 H    0.986    58 H    0.983
                            60 H    0.983
    31   1 H    0.989 --     1 C    0.967
    32   1 H    0.988 --     1 C    0.960
    33   1 H    0.990 --     1 C    0.976
    34   1 H    0.989 --     3 C    0.962
    35   1 H    0.989 --     4 C    0.960
    36   1 H    0.987 --     6 C    0.951
    37   1 H    0.992 --     7 C    0.957
    38   1 H    0.992 --     7 C    0.962
    39   1 H    0.999 --     9 C    0.963
    40   1 H    0.996 --    11 C    0.964
    41   1 H    0.996 --    12 C    0.964
    42   1 H    0.999 --    14 C    0.973
    43   1 H    0.996 --    14 C    0.973
    44   1 H    0.996 --    15 C    0.976
    45   1 H    0.998 --    15 C    0.976
    46   1 H    1.000 --    17 C    0.966
    47   1 H    0.999 --    18 C    0.965
    48   1 H    0.991 --    20 C    0.953
    49   1 H    0.998 --    20 C    0.978
    50   1 H    0.995 --    21 C    0.973
    51   1 H    0.996 --    21 C    0.971
    52   1 H    0.996 --    23 C    0.961
    53   1 H    0.998 --    27 C    0.971
    54   1 H    0.998 --    27 C    0.972
    55   1 H    0.998 --    29 C    0.986
    56   1 H    0.997 --    29 C    0.983
    57   1 H    0.997 --    29 C    0.983
    58   1 H    0.997 --    30 C    0.983
    59   1 H    0.999 --    30 C    0.986
    60   1 H    0.997 --    30 C    0.983
 ---------------------------------------------------------------------------

molecular dipole:
                 x           y           z       tot (Debye)
 q only:        1.774       5.327       1.614
   full:        1.480       5.460       1.828      15.111

           -------------------------------------------------
          | TOTAL ENERGY              -83.466552692290 Eh   |
          | GRADIENT NORM               0.000322678784 Eh/α |
          | HOMO-LUMO GAP               1.678885731776 eV   |
           -------------------------------------------------

 * finished run on 2024/12/20 at 07:19:52.879
