   * xtb version 6.7.1 (edcfbbe) compiled by 'conda@3ef47c1a292c' on 2024-11-25

   ID    Z sym.   atoms
    1    6 C      1, 2, 4, 6-8, 10, 11, 13-25
    2    8 O      3, 5
    3    7 N      9, 12
    4    1 H      26-50

          program call               : xtb C1325.xyz --opt --namespace C1325 --charge +1
          :  Hamiltonian                  GFN2-xTB          :
 * total energy  :   -71.3620846 Eh     change       -0.4570779E-09 Eh
 * total energy  :   -71.3710559 Eh     change       -0.8971225E-02 Eh
 * total energy  :   -71.3724991 Eh     change       -0.1443193E-02 Eh
 * total energy  :   -71.3728262 Eh     change       -0.3270843E-03 Eh
 * total energy  :   -71.3731608 Eh     change       -0.3346864E-03 Eh
 * total energy  :   -71.3733155 Eh     change       -0.1546792E-03 Eh
 * total energy  :   -71.3734576 Eh     change       -0.1420906E-03 Eh
 * total energy  :   -71.3735969 Eh     change       -0.1392881E-03 Eh
 * total energy  :   -71.3737519 Eh     change       -0.1549680E-03 Eh
 * total energy  :   -71.3739431 Eh     change       -0.1912306E-03 Eh
 * total energy  :   -71.3780258 Eh     change       -0.1090957E-04 Eh
 * total energy  :   -71.3780359 Eh     change       -0.1008604E-04 Eh
 * total energy  :   -71.3780457 Eh     change       -0.9835798E-05 Eh
 * total energy  :   -71.3780563 Eh     change       -0.1051615E-04 Eh
 * total energy  :   -71.3780678 Eh     change       -0.1151772E-04 Eh
 * total energy  :   -71.3780782 Eh     change       -0.1040080E-04 Eh
 * total energy  :   -71.3780858 Eh     change       -0.7648941E-05 Eh
 * total energy  :   -71.3780914 Eh     change       -0.5549098E-05 Eh
 * total energy  :   -71.3780961 Eh     change       -0.4701335E-05 Eh
   *** GEOMETRY OPTIMIZATION CONVERGED AFTER 61 ITERATIONS ***

 final structure:
================
50
 xtb: 6.7.1 (edcfbbe)
C            0.47637082005967        0.11890694060515        0.68472492926918
C            1.07160978879664       -0.61369632157166       -0.50767142862761
O            1.45755452926188       -1.95609133107278       -0.16511574216737
C            2.65447239239311       -2.11326763629360        0.41838495574824
O            3.39301528820346       -1.21516381006860        0.70219733944874
C            2.93532556818720       -3.57680399524149        0.71363390846687
C            2.79972057703053       -3.83006216483414        2.21796552990730
C            1.34097820122818       -3.81450026216780        2.69005380353290
N            0.65759878954153       -5.04107928864954        2.33980799476111
C           -0.22098625672401       -5.26009580513771        1.35401362527981
C           -0.75250147800021       -4.26614927881224        0.40305385037778
N           -0.59728146172697       -6.54559617703582        1.35455173897953
C            0.05098029410181       -7.19503512420010        2.38601950871772
C            0.85950135871513       -6.23279901160952        3.01332180103178
C            1.64773401523381       -6.55661223889711        4.11043821904012
C            1.60193045761935       -7.86396054808396        4.54995996794990
C            0.80035492286853       -8.82152463236252        3.92425475537643
C            0.01142776144458       -8.50853749792993        2.83638380958012
C           -1.60222245813025       -7.12655166171090        0.48928132925973
C           -2.98573480693896       -6.64077998873233        0.85977848240045
C           -3.81958054448330       -6.07835131146272       -0.09630661797196
C           -5.08878020874229       -5.64890652317157        0.25338398500167
C           -5.52655743616767       -5.76832431051311        1.56125185074055
C           -4.69513819882078       -6.32365410193392        2.52020691997937
C           -3.42990012732485       -6.76074752632736        2.17150121733808
H           -0.39508732299479       -0.40692199886887        1.07043967571706
H            0.17264885164608        1.11390512069741        0.37521017612324
H            1.21829309479194        0.21496030514235        1.47397027905063
H            0.34276920058887       -0.72775138457770       -1.31193452407612
H            1.95374618006740       -0.08257760084762       -0.87443284155731
H            2.26492871423360       -4.21377409258533        0.13736725131102
H            3.96413302462337       -3.77624765051576        0.41343909572110
H            3.25148350799222       -4.79082657593449        2.46915654666314
H            3.34726969743995       -3.05024572927799        2.74901678788368
H            1.30610522535701       -3.72240631956900        3.77852419010313
H            0.80829043156498       -2.96713776173240        2.25855038082358
H           -1.77352569090248       -3.99750553144950        0.68084400312570
H           -0.14234500103066       -3.36811677093136        0.36662502667611
H           -0.79291174424626       -4.69059592356551       -0.59921882576176
H            2.26667849545699       -5.82496569510304        4.60276492454115
H            2.19830881896891       -8.15556133312567        5.39943330427499
H            0.79608212846489       -9.83013667814138        4.30505551416333
H           -0.60899655949031       -9.25504678932454        2.36790331541315
H           -1.37711188787067       -6.87537165969189       -0.55068638459725
H           -1.54171009760313       -8.21163412078675        0.59739017438073
H           -3.48475842496721       -5.98826296577048       -1.11950889311272
H           -5.73435966455237       -5.22128488417091       -0.49767958929506
H           -6.51527048618315       -5.43376661745607        1.83297476643630
H           -5.03395230716364       -6.42374265105528        3.53960424251920
H           -2.78847997186871       -7.20322108403780        2.92110567011791

          :  Hamiltonian                  GFN2-xTB          :
         :: total energy             -71.378096081293 Eh    ::
         :: gradient norm              0.000568127626 Eh/a0 ::
         :: HOMO-LUMO gap              3.069311197842 eV    ::
         :: SCC energy               -72.481681205379 Eh    ::
         :: -> dispersion             -0.052834912656 Eh    ::
         :: repulsion energy           1.103585124085 Eh    ::

    * Orbital Energies and Occupations

         #    Occupation            Energy/Eh            Energy/eV
      -------------------------------------------------------------
         1        2.0000           -0.8692106             -23.6524
       ...           ...                  ...                  ...
        53        2.0000           -0.5734187             -15.6035
        54        2.0000           -0.5717982             -15.5594
        55        2.0000           -0.5656381             -15.3918
        56        2.0000           -0.5605189             -15.2525
        57        2.0000           -0.5442681             -14.8103
        58        2.0000           -0.5424384             -14.7605
        59        2.0000           -0.5420974             -14.7512
        60        2.0000           -0.5397651             -14.6878
        61        2.0000           -0.5316264             -14.4663
        62        2.0000           -0.5302841             -14.4298
        63        2.0000           -0.5162834             -14.0488
        64        2.0000           -0.5152978             -14.0220
        65        2.0000           -0.5136118             -13.9761 (HOMO)
        66                         -0.4008166             -10.9068 (LUMO)
        67                         -0.3555657              -9.6754
        68                         -0.3475020              -9.4560
        69                         -0.3375970              -9.1865
        70                         -0.3334016              -9.0723
        71                         -0.3320979              -9.0368
        72                         -0.2300674              -6.2605
        73                         -0.2091702              -5.6918
        74                         -0.1694059              -4.6098
        75                         -0.1213805              -3.3029
        76                         -0.1049348              -2.8554
       ...                                ...                  ...
       125                          0.5689728              15.4825
      -------------------------------------------------------------
                  HL-Gap            0.1127951 Eh            3.0693 eV

     #   Z          covCN         q      C6AA      α(0)
     1   6 C        3.750    -0.118    22.826     6.814
     2   6 C        3.696     0.073    19.527     6.321
     3   8 O        1.702    -0.285    18.732     5.844
     4   6 C        2.714     0.356    20.949     7.492
     5   8 O        0.856    -0.381    21.315     6.190
     6   6 C        3.802    -0.099    22.384     6.736
     7   6 C        3.804    -0.066    21.770     6.642
     8   6 C        3.740    -0.017    20.961     6.532
     9   7 N        2.828     0.007    21.137     6.828
    10   6 C        3.072     0.124    25.209     8.232
    11   6 C        3.755    -0.141    23.268     6.878
    12   7 N        2.835     0.007    21.138     6.828
    13   6 C        3.092     0.039    27.010     8.518
    14   6 C        3.103     0.036    27.060     8.524
    15   6 C        2.909    -0.036    28.898     8.815
    16   6 C        2.926    -0.020    28.519     8.758
    17   6 C        2.926    -0.020    28.514     8.757
    18   6 C        2.909    -0.034    28.850     8.807
    19   6 C        3.747    -0.018    20.970     6.532
    20   6 C        2.972    -0.003    28.097     8.695
    21   6 C        2.922    -0.038    28.941     8.822
    22   6 C        2.920    -0.023    28.588     8.768
    23   6 C        2.920    -0.022    28.562     8.764
    24   6 C        2.919    -0.024    28.603     8.770
    25   6 C        2.923    -0.038    28.946     8.823
    26   1 H        0.925     0.044     2.395     2.420
    27   1 H        0.925     0.066     2.133     2.284
    28   1 H        0.925     0.064     2.150     2.293
    29   1 H        0.924     0.062     2.174     2.306
    30   1 H        0.924     0.071     2.080     2.255
    31   1 H        0.925     0.057     2.238     2.339
    32   1 H        0.925     0.088     1.897     2.154
    33   1 H        0.924     0.065     2.143     2.289
    34   1 H        0.924     0.083     1.950     2.184
    35   1 H        0.924     0.083     1.946     2.182
    36   1 H        0.925     0.081     1.973     2.197
    37   1 H        0.924     0.099     1.797     2.096
    38   1 H        0.925     0.109     1.707     2.043
    39   1 H        0.925     0.093     1.848     2.126
    40   1 H        0.926     0.067     2.113     2.273
    41   1 H        0.926     0.076     2.019     2.222
    42   1 H        0.926     0.076     2.019     2.222
    43   1 H        0.926     0.066     2.126     2.280
    44   1 H        0.924     0.074     2.039     2.233
    45   1 H        0.924     0.085     1.927     2.171
    46   1 H        0.926     0.040     2.443     2.444
    47   1 H        0.926     0.055     2.257     2.349
    48   1 H        0.926     0.056     2.242     2.341
    49   1 H        0.926     0.051     2.302     2.373
    50   1 H        0.925     0.030     2.581     2.512

Wiberg/Mayer (AO) data.
largest (>0.10) Wiberg bond orders for each atom

     #   Z sym  total        # sym  WBO       # sym  WBO       # sym  WBO
 ---------------------------------------------------------------------------
     1   6 C    3.990 --     2 C    1.015    26 H    0.986    28 H    0.984
                            27 H    0.980
     2   6 C    3.916 --     1 C    1.015    29 H    0.972    30 H    0.969
                             3 O    0.923
     3   8 O    2.298 --     4 C    1.123     2 C    0.923     5 O    0.177
     4   6 C    3.921 --     5 O    1.785     3 O    1.123     6 C    0.960
     5   8 O    2.071 --     4 C    1.785     3 O    0.177
     6   6 C    3.993 --     7 C    0.993    31 H    0.974     4 C    0.960
                            32 H    0.959
     7   6 C    3.986 --     6 C    0.993     8 C    0.991    33 H    0.971
                            34 H    0.968
     8   6 C    3.947 --     7 C    0.991     9 N    0.973    36 H    0.963
                            35 H    0.961
     9   7 N    3.657 --    10 C    1.329    14 C    1.116     8 C    0.973
    10   6 C    3.955 --     9 N    1.329    12 N    1.328    11 C    1.050
    11   6 C    3.974 --    10 C    1.050    38 H    0.956    39 H    0.954
                            37 H    0.941
    12   7 N    3.657 --    10 C    1.328    13 C    1.121    19 C    0.966
    13   6 C    3.955 --    18 C    1.343    14 C    1.279    12 N    1.121
    14   6 C    3.954 --    15 C    1.344    13 C    1.279     9 N    1.116
    15   6 C    3.985 --    16 C    1.489    14 C    1.344    40 H    0.963
                            18 C    0.118
    16   6 C    3.984 --    15 C    1.489    17 C    1.383    41 H    0.967
    17   6 C    3.983 --    18 C    1.490    16 C    1.383    42 H    0.967
    18   6 C    3.985 --    17 C    1.490    13 C    1.343    43 H    0.962
                            15 C    0.118
    19   6 C    3.943 --    20 C    0.983    12 N    0.966    44 H    0.957
                            45 H    0.956
    20   6 C    3.979 --    21 C    1.418    25 C    1.411    19 C    0.983
                            23 C    0.109
    21   6 C    3.990 --    22 C    1.439    20 C    1.418    46 H    0.968
                            24 C    0.110
    22   6 C    3.990 --    23 C    1.443    21 C    1.439    47 H    0.969
                            25 C    0.112
    23   6 C    3.989 --    22 C    1.443    24 C    1.436    48 H    0.969
                            20 C    0.109
    24   6 C    3.991 --    25 C    1.447    23 C    1.436    49 H    0.969
                            21 C    0.110
    25   6 C    3.992 --    24 C    1.447    20 C    1.411    50 H    0.969
                            22 C    0.112
    26   1 H    0.998 --     1 C    0.986
    27   1 H    0.995 --     1 C    0.980
    28   1 H    0.996 --     1 C    0.984
    29   1 H    0.996 --     2 C    0.972
    30   1 H    0.995 --     2 C    0.969
    31   1 H    0.997 --     6 C    0.974
    32   1 H    0.992 --     6 C    0.959
    33   1 H    0.995 --     7 C    0.971
    34   1 H    0.992 --     7 C    0.968
    35   1 H    0.992 --     8 C    0.961
    36   1 H    0.993 --     8 C    0.963
    37   1 H    0.986 --    11 C    0.941
    38   1 H    0.987 --    11 C    0.956
    39   1 H    0.989 --    11 C    0.954
    40   1 H    0.995 --    15 C    0.963
    41   1 H    0.994 --    16 C    0.967
    42   1 H    0.994 --    17 C    0.967
    43   1 H    0.995 --    18 C    0.962
    44   1 H    0.993 --    19 C    0.957
    45   1 H    0.992 --    19 C    0.956
    46   1 H    0.998 --    21 C    0.968
    47   1 H    0.997 --    22 C    0.969
    48   1 H    0.996 --    23 C    0.969
    49   1 H    0.997 --    24 C    0.969
    50   1 H    0.999 --    25 C    0.969
 ---------------------------------------------------------------------------

molecular dipole:
                 x           y           z       tot (Debye)
 q only:       -0.989     -10.728       3.397
   full:       -1.036     -10.812       3.251      28.817

           -------------------------------------------------
          | TOTAL ENERGY              -71.378096081293 Eh   |
          | GRADIENT NORM               0.000568127626 Eh/α |
          | HOMO-LUMO GAP               3.069311197842 eV   |
           -------------------------------------------------

 * finished run on 2024/12/20 at 07:19:49.581
