   * xtb version 6.7.1 (edcfbbe) compiled by 'conda@3ef47c1a292c' on 2024-11-25

   ID    Z sym.   atoms
    1    8 O      1, 4
    2    6 C      2, 3, 5, 6, 8-10
    3    7 N      7
    4    1 H      11-28

          program call               : xtb C1328.xyz --opt --namespace C1328 --charge +1
          :  Hamiltonian                  GFN2-xTB          :
 * total energy  :   -34.7979668 Eh     change       -0.2863487E-10 Eh
 * total energy  :   -34.8050307 Eh     change       -0.7063903E-02 Eh
 * total energy  :   -34.8068934 Eh     change       -0.1862674E-02 Eh
 * total energy  :   -34.8070398 Eh     change       -0.1464101E-03 Eh
 * total energy  :   -34.8072165 Eh     change       -0.1766975E-03 Eh
 * total energy  :   -34.8072977 Eh     change       -0.8118101E-04 Eh
 * total energy  :   -34.8074858 Eh     change       -0.1881657E-03 Eh
 * total energy  :   -34.8076518 Eh     change       -0.1659947E-03 Eh
 * total energy  :   -34.8077541 Eh     change       -0.1022411E-03 Eh
 * total energy  :   -34.8078102 Eh     change       -0.5610370E-04 Eh
 * total energy  :   -34.8095036 Eh     change       -0.2721189E-04 Eh
 * total energy  :   -34.8095358 Eh     change       -0.3217251E-04 Eh
 * total energy  :   -34.8095348 Eh     change        0.9811347E-06 Eh
 * total energy  :   -34.8095632 Eh     change       -0.2842395E-04 Eh
 * total energy  :   -34.8095717 Eh     change       -0.8492462E-05 Eh
 * total energy  :   -34.8095821 Eh     change       -0.1039286E-04 Eh
 * total energy  :   -34.8095948 Eh     change       -0.1263315E-04 Eh
 * total energy  :   -34.8096005 Eh     change       -0.5767690E-05 Eh
 * total energy  :   -34.8096045 Eh     change       -0.3927410E-05 Eh
   *** GEOMETRY OPTIMIZATION CONVERGED AFTER 44 ITERATIONS ***

 final structure:
================
28
 xtb: 6.7.1 (edcfbbe)
O            3.04121760694646       -0.80382613670828       -1.91311164932144
C            1.97702295624626       -0.28907983007634       -2.68830738587386
C            0.74477720524514       -0.10115704293369       -1.80124748381340
O            0.81410768448187        1.03266037486589       -0.95365285612340
C            1.70104951907475        0.87781534731866        0.13861450769225
C            1.96405577261680        2.22197504751395        0.81885366796567
N            0.75111059830553        3.00104338010903        1.21703925349520
C           -0.28004018290319        2.12370285572135        1.79789742989970
C            1.14717971278006        4.01003741618383        2.21733414807188
C            0.18936515973702        3.69067957781598        0.03878729616430
H            3.72738167639913       -1.14617668217695       -2.49514683045575
H            2.25684915852723        0.67650851424819       -3.13218568500378
H            1.70858124811291       -0.98252107510413       -3.49237967523217
H           -0.12816853493800        0.07269762709644       -2.43234368409941
H            0.59263839293596       -1.00714294872705       -1.20288994253709
H            1.28973718258159        0.14481035974394        0.84759109157513
H            2.66666225074513        0.49156444722343       -0.20726548149618
H            2.55636859340872        2.01983048702200        1.71314768926474
H            2.54809951568622        2.85368544955949        0.14766142729504
H            0.13807819817861        1.53980276720761        2.61590811112150
H           -1.10222249213224        2.72486198431741        2.18208621614282
H           -0.66629990932091        1.45430262880742        1.03247030545650
H            1.95712117913423        4.62693307355358        1.83185222189737
H            0.30139417418409        4.65432210439833        2.45184230190977
H            1.48075635606709        3.52739402321627        3.13445986223041
H            0.89314953388024        4.43377250612095       -0.33092321277300
H           -0.00105277609458        2.96181026741227       -0.74665092571013
H           -0.73917977988116        4.19053347627076        0.30704928225195

          :  Hamiltonian                  GFN2-xTB          :
         :: total energy             -34.809604453631 Eh    ::
         :: gradient norm              0.000236414210 Eh/a0 ::
         :: HOMO-LUMO gap              8.041243097964 eV    ::
         :: SCC energy               -35.193604786900 Eh    ::
         :: -> dispersion             -0.018253221451 Eh    ::
         :: repulsion energy           0.384000333269 Eh    ::

    * Orbital Energies and Occupations

         #    Occupation            Energy/Eh            Energy/eV
      -------------------------------------------------------------
         1        2.0000           -0.8639247             -23.5086
       ...           ...                  ...                  ...
        19        2.0000           -0.6571109             -17.8809
        20        2.0000           -0.6459629             -17.5775
        21        2.0000           -0.6405770             -17.4310
        22        2.0000           -0.6381475             -17.3649
        23        2.0000           -0.6344770             -17.2650
        24        2.0000           -0.6332866             -17.2326
        25        2.0000           -0.6242993             -16.9880
        26        2.0000           -0.6151799             -16.7399
        27        2.0000           -0.6022953             -16.3893
        28        2.0000           -0.5810255             -15.8105
        29        2.0000           -0.5717093             -15.5570
        30        2.0000           -0.5271510             -14.3445
        31        2.0000           -0.5206046             -14.1664 (HOMO)
        32                         -0.2250944              -6.1251 (LUMO)
        33                         -0.1578712              -4.2959
        34                         -0.1467127              -3.9923
        35                         -0.1395983              -3.7987
        36                         -0.1172480              -3.1905
        37                         -0.0683519              -1.8600
        38                         -0.0492465              -1.3401
        39                         -0.0440932              -1.1998
        40                         -0.0240637              -0.6548
        41                         -0.0018228              -0.0496
        42                          0.0084086               0.2288
       ...                                ...                  ...
        58                          0.1569841               4.2718
      -------------------------------------------------------------
                  HL-Gap            0.2955102 Eh            8.0412 eV

     #   Z          covCN         q      C6AA      α(0)
     1   8 O        1.655    -0.446    21.762     6.297
     2   6 C        3.672     0.069    19.654     6.354
     3   6 C        3.696     0.065    19.658     6.342
     4   8 O        1.699    -0.323    19.407     5.948
     5   6 C        3.695     0.061    19.723     6.354
     6   6 C        3.761    -0.047    21.460     6.604
     7   7 N        3.622     0.151    18.691     6.421
     8   6 C        3.721    -0.100    22.538     6.780
     9   6 C        3.726    -0.100    22.522     6.776
    10   6 C        3.723    -0.108    22.674     6.800
    11   1 H        0.805     0.303     0.711     1.324
    12   1 H        0.923     0.041     2.430     2.438
    13   1 H        0.924     0.042     2.429     2.437
    14   1 H        0.924     0.066     2.131     2.283
    15   1 H        0.924     0.054     2.275     2.359
    16   1 H        0.923     0.048     2.343     2.394
    17   1 H        0.924     0.099     1.796     2.096
    18   1 H        0.924     0.091     1.866     2.136
    19   1 H        0.924     0.100     1.788     2.091
    20   1 H        0.925     0.097     1.816     2.107
    21   1 H        0.925     0.099     1.797     2.096
    22   1 H        0.925     0.116     1.646     2.006
    23   1 H        0.925     0.099     1.793     2.094
    24   1 H        0.925     0.103     1.760     2.074
    25   1 H        0.925     0.098     1.800     2.098
    26   1 H        0.925     0.096     1.824     2.112
    27   1 H        0.925     0.131     1.526     1.932
    28   1 H        0.925     0.097     1.815     2.107

Wiberg/Mayer (AO) data.
largest (>0.10) Wiberg bond orders for each atom

     #   Z sym  total        # sym  WBO       # sym  WBO       # sym  WBO
 ---------------------------------------------------------------------------
     1   8 O    1.955 --     2 C    0.997    11 H    0.893
     2   6 C    3.958 --     1 O    0.997     3 C    0.996    13 H    0.971
                            12 H    0.968
     3   6 C    3.945 --     2 C    0.996     4 O    0.970    14 H    0.968
                            15 H    0.967
     4   8 O    2.071 --     5 C    0.985     3 C    0.970
     5   6 C    3.949 --     6 C    1.004     4 O    0.985    16 H    0.963
                            17 H    0.948
     6   6 C    3.937 --     5 C    1.004    18 H    0.967    19 H    0.966
                             7 N    0.931
     7   7 N    3.819 --     9 C    0.959     8 C    0.957    10 C    0.953
                             6 C    0.931
     8   6 C    3.924 --    20 H    0.976    21 H    0.975    22 H    0.970
                             7 N    0.957
     9   6 C    3.928 --    23 H    0.976    25 H    0.975    24 H    0.974
                             7 N    0.959
    10   6 C    3.915 --    26 H    0.976    28 H    0.976    27 H    0.959
                             7 N    0.953
    11   1 H    0.908 --     1 O    0.893
    12   1 H    0.998 --     2 C    0.968
    13   1 H    0.998 --     2 C    0.971
    14   1 H    0.995 --     3 C    0.968
    15   1 H    0.997 --     3 C    0.967
    16   1 H    0.998 --     5 C    0.963
    17   1 H    0.990 --     5 C    0.948
    18   1 H    0.991 --     6 C    0.967
    19   1 H    0.990 --     6 C    0.966
    20   1 H    0.991 --     8 C    0.976
    21   1 H    0.990 --     8 C    0.975
    22   1 H    0.987 --     8 C    0.970
    23   1 H    0.990 --     9 C    0.976
    24   1 H    0.989 --     9 C    0.974
    25   1 H    0.990 --     9 C    0.975
    26   1 H    0.991 --    10 C    0.976
    27   1 H    0.983 --    10 C    0.959
    28   1 H    0.991 --    10 C    0.976
 ---------------------------------------------------------------------------

molecular dipole:
                 x           y           z       tot (Debye)
 q only:        1.751       4.895       1.455
   full:        1.915       4.758       1.297      13.446

           -------------------------------------------------
          | TOTAL ENERGY              -34.809604453631 Eh   |
          | GRADIENT NORM               0.000236414210 Eh/α |
          | HOMO-LUMO GAP               8.041243097964 eV   |
           -------------------------------------------------

 * finished run on 2024/12/20 at 07:19:53.715
