   * xtb version 6.7.1 (edcfbbe) compiled by 'conda@3ef47c1a292c' on 2024-11-25

   ID    Z sym.   atoms
    1    6 C      1-3, 6-12, 16, 17, 20-26
    2    7 N      4, 13, 18, 27
    3    8 O      5, 14, 15, 19, 28, 29
    4    1 H      30-48

          program call               : xtb C1320.xyz --opt --namespace C1320 --charge +1
          :  Hamiltonian                  GFN2-xTB          :
 * total energy  :   -85.7636814 Eh     change       -0.3978897E-09 Eh
 * total energy  :   -85.7770794 Eh     change       -0.1339801E-01 Eh
 * total energy  :   -85.7800316 Eh     change       -0.2952154E-02 Eh
 * total energy  :   -85.7802653 Eh     change       -0.2336640E-03 Eh
 * total energy  :   -85.7809801 Eh     change       -0.7148892E-03 Eh
 * total energy  :   -85.7811480 Eh     change       -0.1678627E-03 Eh
 * total energy  :   -85.7812812 Eh     change       -0.1331816E-03 Eh
 * total energy  :   -85.7813716 Eh     change       -0.9041443E-04 Eh
 * total energy  :   -85.7814656 Eh     change       -0.9399978E-04 Eh
 * total energy  :   -85.7815281 Eh     change       -0.6248883E-04 Eh
 * total energy  :   -85.7871195 Eh     change       -0.6255498E-05 Eh
 * total energy  :   -85.7871301 Eh     change       -0.1055279E-04 Eh
 * total energy  :   -85.7871353 Eh     change       -0.5278578E-05 Eh
 * total energy  :   -85.7871417 Eh     change       -0.6338524E-05 Eh
 * total energy  :   -85.7871507 Eh     change       -0.9009934E-05 Eh
 * total energy  :   -85.7871592 Eh     change       -0.8502774E-05 Eh
 * total energy  :   -85.7871651 Eh     change       -0.5905864E-05 Eh
 * total energy  :   -85.7871677 Eh     change       -0.2622722E-05 Eh
 * total energy  :   -85.7871708 Eh     change       -0.3096369E-05 Eh
   *** GEOMETRY OPTIMIZATION CONVERGED AFTER 83 ITERATIONS ***

 final structure:
================
48
 xtb: 6.7.1 (edcfbbe)
C            1.82676953443674        0.64540884881538       -0.22245035829714
C            0.59401229241731        0.49505853779565       -1.12278564699893
C            0.95468741165808       -0.07252675378028       -2.44002369521127
N            0.73649255221212       -1.32455562013522       -2.86471454072911
O            0.10234877849953       -2.22849456887656       -2.06480664620038
C           -0.06747683140604       -3.53576319742870       -2.60368204289926
C           -1.00823416903883       -3.59373247468171       -3.78226413256071
C           -2.11622827744279       -2.75283705649321       -3.82569117352517
C           -2.98600959276405       -2.80395991053437       -4.89756525905584
C           -2.74354570686970       -3.70982569833090       -5.92036943751813
C           -1.65220218496899       -4.56606992486548       -5.88383396951890
C           -0.78023391758756       -4.49949044335280       -4.81347784682927
N           -3.65125360331361       -3.75905921555996       -7.05601048622831
O           -4.54052468915977       -2.94188826311161       -7.08138418048990
O           -3.43982113948453       -4.60301738229386       -7.89243536042245
C            1.23050360556124       -1.47966883549552       -4.11892089633618
C            1.77953648091400       -0.28113484487879       -4.47771690624839
N            1.59987622832172        0.56086283811925       -3.42935227772021
O            1.97303888470567        1.86408905883493       -3.28794039780252
C            2.58279344268081        2.47101341909465       -4.42204237617903
C            3.93341077645876        1.89614463141474       -4.77462910633424
C            4.76297792525846        1.39668933012063       -3.77513876381097
C            5.99862321161711        0.86884217111220       -4.09589059871631
C            6.40235423465753        0.85431416655535       -5.42333656141250
C            5.59538144605392        1.36725678636279       -6.42926705058093
C            4.35543639988277        1.88172078855330       -6.10071621980550
N            7.69559816249367        0.28372846763772       -5.76651043255581
O            8.33841477329075       -0.19704344395944       -4.86400539880707
O            8.02254857655575        0.32165878069910       -6.92731632856501
H            2.30389143905030       -0.31621745851036       -0.05439657149495
H            1.52005367624951        1.04808146954779        0.73726766611081
H            2.54461754249292        1.32976880159825       -0.66529730267235
H           -0.13341090693068       -0.16420176210842       -0.64900662806767
H            0.14402533519899        1.47854186422637       -1.27379678322039
H            0.90468010252866       -3.98299981937008       -2.84235443268850
H           -0.49556848242245       -4.07712459811764       -1.75385047902261
H           -2.30155567834295       -2.06683409000884       -3.01276240450210
H           -3.85284964344777       -2.16354735280118       -4.95238629683311
H           -1.50144418529573       -5.26602462935625       -6.69131822493375
H            0.07090747080143       -5.16247398423356       -4.77343411744830
H            1.16291937721584       -2.38608742170902       -4.68331376063232
H            2.27730044236184       -0.01167594687161       -5.38573461066115
H            1.90284338257613        2.44995782122281       -5.28205670786469
H            2.69039786251996        3.51013839309840       -4.09434620831256
H            4.44465299300044        1.43009128811554       -2.74413388104638
H            6.65838569320530        0.47520590187995       -3.33803481093959
H            5.94713973849761        1.35236230153375       -7.44938651570556
H            3.71941923510593        2.28392903049294       -6.87459983874223

          :  Hamiltonian                  GFN2-xTB          :
         :: total energy             -85.787170817986 Eh    ::
         :: gradient norm              0.000775348322 Eh/a0 ::
         :: HOMO-LUMO gap              3.046700917560 eV    ::
         :: SCC energy               -86.848842472156 Eh    ::
         :: -> dispersion             -0.050487673794 Eh    ::
         :: repulsion energy           1.061671654170 Eh    ::

    * Orbital Energies and Occupations

         #    Occupation            Energy/Eh            Energy/eV
      -------------------------------------------------------------
         1        2.0000           -0.9270158             -25.2254
       ...           ...                  ...                  ...
        63        2.0000           -0.5747921             -15.6409
        64        2.0000           -0.5636167             -15.3368
        65        2.0000           -0.5629599             -15.3189
        66        2.0000           -0.5587978             -15.2057
        67        2.0000           -0.5583407             -15.1932
        68        2.0000           -0.5518127             -15.0156
        69        2.0000           -0.5513512             -15.0030
        70        2.0000           -0.5509928             -14.9933
        71        2.0000           -0.5503939             -14.9770
        72        2.0000           -0.5391649             -14.6714
        73        2.0000           -0.5387272             -14.6595
        74        2.0000           -0.5277240             -14.3601
        75        2.0000           -0.5272595             -14.3475 (HOMO)
        76                         -0.4152953             -11.3008 (LUMO)
        77                         -0.4148872             -11.2897
        78                         -0.4070234             -11.0757
        79                         -0.3842827             -10.4569
        80                         -0.3688851             -10.0379
        81                         -0.3683100             -10.0222
        82                         -0.3469158              -9.4401
        83                         -0.3466661              -9.4333
        84                         -0.2875232              -7.8239
        85                         -0.2378629              -6.4726
        86                         -0.2347804              -6.3887
       ...                                ...                  ...
       135                          0.5095691              13.8661
      -------------------------------------------------------------
                  HL-Gap            0.1119642 Eh            3.0467 eV

     #   Z          covCN         q      C6AA      α(0)
     1   6 C        3.754    -0.116    22.784     6.806
     2   6 C        3.803    -0.067    21.777     6.644
     3   6 C        3.071     0.074    26.271     8.404
     4   7 N        2.910     0.182    18.207     6.337
     5   8 O        1.768    -0.194    17.223     5.604
     6   6 C        3.689     0.052    19.883     6.382
     7   6 C        2.969     0.000    28.021     8.683
     8   6 C        2.924    -0.032    28.800     8.801
     9   6 C        2.918    -0.019    28.487     8.752
    10   6 C        2.918     0.008    27.833     8.651
    11   6 C        2.918    -0.017    28.435     8.744
    12   6 C        2.923    -0.036    28.892     8.815
    13   7 N        2.758     0.553    13.453     5.447
    14   8 O        0.930    -0.365    20.961     6.140
    15   8 O        0.930    -0.360    20.873     6.127
    16   6 C        3.038    -0.035    28.837     8.808
    17   6 C        3.037    -0.035    28.841     8.809
    18   7 N        2.911     0.183    18.187     6.334
    19   8 O        1.768    -0.191    17.186     5.598
    20   6 C        3.689     0.052    19.886     6.382
    21   6 C        2.968     0.000    28.014     8.682
    22   6 C        2.924    -0.032    28.804     8.801
    23   6 C        2.917    -0.020    28.499     8.754
    24   6 C        2.917     0.008    27.840     8.652
    25   6 C        2.917    -0.017    28.428     8.743
    26   6 C        2.923    -0.036    28.891     8.815
    27   7 N        2.758     0.553    13.451     5.447
    28   8 O        0.930    -0.365    20.969     6.141
    29   8 O        0.930    -0.360    20.869     6.127
    30   1 H        0.925     0.060     2.194     2.317
    31   1 H        0.925     0.082     1.959     2.189
    32   1 H        0.925     0.062     2.174     2.306
    33   1 H        0.925     0.096     1.823     2.112
    34   1 H        0.924     0.098     1.801     2.099
    35   1 H        0.924     0.069     2.100     2.266
    36   1 H        0.924     0.118     1.630     1.997
    37   1 H        0.926     0.060     2.198     2.318
    38   1 H        0.926     0.096     1.823     2.111
    39   1 H        0.926     0.099     1.790     2.092
    40   1 H        0.926     0.061     2.192     2.315
    41   1 H        0.927     0.115     1.652     2.010
    42   1 H        0.927     0.115     1.655     2.012
    43   1 H        0.924     0.069     2.099     2.266
    44   1 H        0.924     0.118     1.631     1.997
    45   1 H        0.926     0.058     2.226     2.333
    46   1 H        0.926     0.095     1.827     2.114
    47   1 H        0.926     0.100     1.787     2.090
    48   1 H        0.926     0.062     2.181     2.309

Wiberg/Mayer (AO) data.
largest (>0.10) Wiberg bond orders for each atom

     #   Z sym  total        # sym  WBO       # sym  WBO       # sym  WBO
 ---------------------------------------------------------------------------
     1   6 C    3.981 --    30 H    0.987    32 H    0.985     2 C    0.980
                            31 H    0.978
     2   6 C    3.971 --     3 C    1.029     1 C    0.980    33 H    0.962
                            34 H    0.948
     3   6 C    3.923 --     4 N    1.287    18 N    1.286     2 C    1.029
     4   7 N    3.710 --     3 C    1.287    16 C    1.216     5 O    1.004
     5   8 O    2.144 --     4 N    1.004     6 C    0.940
     6   6 C    3.902 --     7 C    0.998    35 H    0.962     5 O    0.940
                            36 H    0.935
     7   6 C    3.986 --     8 C    1.408    12 C    1.407     6 C    0.998
     8   6 C    3.990 --     9 C    1.450     7 C    1.408    37 H    0.966
                            11 C    0.108
     9   6 C    3.983 --     8 C    1.450    10 C    1.394    38 H    0.958
                            12 C    0.108
    10   6 C    3.970 --    11 C    1.395     9 C    1.394    13 N    0.942
    11   6 C    3.982 --    12 C    1.449    10 C    1.395    39 H    0.957
                             8 C    0.108
    12   6 C    3.989 --    11 C    1.449     7 C    1.407    40 H    0.966
                             9 C    0.108
    13   7 N    3.915 --    15 O    1.470    14 O    1.465    10 C    0.942
    14   8 O    1.956 --    13 N    1.465    15 O    0.380
    15   8 O    1.962 --    13 N    1.470    14 O    0.380
    16   6 C    3.935 --    17 C    1.545     4 N    1.216    41 H    0.955
    17   6 C    3.936 --    16 C    1.545    18 N    1.217    42 H    0.955
    18   7 N    3.710 --     3 C    1.286    17 C    1.217    19 O    1.004
    19   8 O    2.147 --    18 N    1.004    20 C    0.942
    20   6 C    3.903 --    21 C    0.998    43 H    0.961    19 O    0.942
                            44 H    0.935
    21   6 C    3.986 --    22 C    1.409    26 C    1.406    20 C    0.998
    22   6 C    3.990 --    23 C    1.449    21 C    1.409    45 H    0.966
                            25 C    0.108
    23   6 C    3.983 --    22 C    1.449    24 C    1.395    46 H    0.958
                            26 C    0.108
    24   6 C    3.970 --    23 C    1.395    25 C    1.394    27 N    0.942
    25   6 C    3.982 --    26 C    1.451    24 C    1.394    47 H    0.957
                            22 C    0.108
    26   6 C    3.989 --    25 C    1.451    21 C    1.406    48 H    0.966
                            23 C    0.108
    27   7 N    3.915 --    29 O    1.470    28 O    1.465    24 C    0.942
    28   8 O    1.956 --    27 N    1.465    29 O    0.380
    29   8 O    1.962 --    27 N    1.470    28 O    0.380
    30   1 H    0.996 --     1 C    0.987
    31   1 H    0.992 --     1 C    0.978
    32   1 H    0.996 --     1 C    0.985
    33   1 H    0.990 --     2 C    0.962
    34   1 H    0.990 --     2 C    0.948
    35   1 H    0.995 --     6 C    0.962
    36   1 H    0.984 --     6 C    0.935
    37   1 H    0.996 --     8 C    0.966
    38   1 H    0.990 --     9 C    0.958
    39   1 H    0.990 --    11 C    0.957
    40   1 H    0.996 --    12 C    0.966
    41   1 H    0.987 --    16 C    0.955
    42   1 H    0.986 --    17 C    0.955
    43   1 H    0.995 --    20 C    0.961
    44   1 H    0.984 --    20 C    0.935
    45   1 H    0.996 --    22 C    0.966
    46   1 H    0.991 --    23 C    0.958
    47   1 H    0.990 --    25 C    0.957
    48   1 H    0.996 --    26 C    0.966
 ---------------------------------------------------------------------------

molecular dipole:
                 x           y           z       tot (Debye)
 q only:        2.063      -0.249      -4.831
   full:        2.056      -0.300      -4.974      13.701

           -------------------------------------------------
          | TOTAL ENERGY              -85.787170817986 Eh   |
          | GRADIENT NORM               0.000775348322 Eh/α |
          | HOMO-LUMO GAP               3.046700917560 eV   |
           -------------------------------------------------

 * finished run on 2024/12/20 at 07:19:32.281
