   * xtb version 6.7.1 (edcfbbe) compiled by 'conda@3ef47c1a292c' on 2024-11-25

   ID    Z sym.   atoms
    1    6 C      1, 2, 4-9
    2    7 N      3
    3    1 H      10-21

          program call               : xtb C1329.xyz --opt --namespace C1329 --charge +1
          :  Hamiltonian                  GFN2-xTB          :
 * total energy  :   -25.7635255 Eh     change       -0.1445777E-09 Eh
 * total energy  :   -25.7656127 Eh     change       -0.2087220E-02 Eh
 * total energy  :   -25.7658490 Eh     change       -0.2363359E-03 Eh
 * total energy  :   -25.7658669 Eh     change       -0.1787964E-04 Eh
 * total energy  :   -25.7658731 Eh     change       -0.6171763E-05 Eh
 * total energy  :   -25.7658738 Eh     change       -0.7022337E-06 Eh
   *** GEOMETRY OPTIMIZATION CONVERGED AFTER 6 ITERATIONS ***

 final structure:
================
21
 xtb: 6.7.1 (edcfbbe)
C            1.09272554355942       -0.15937963310074        0.05224129579601
C            0.46602917338653       -1.02261203503531        1.14312190907209
N            0.99215393692970       -0.63776064247360        2.46291437554113
C            0.80140070801124        0.60585511157214        2.91669697570206
C            1.27634224457768        1.00164403652048        4.14944390636103
C            1.96657076564121        0.08903897719111        4.93700683646907
C            2.15391604313664       -1.19761753525745        4.45051315929713
C            1.65323945538186       -1.52889759342950        3.20745008644013
C           -1.05768339975551       -0.93885214746052        1.14560589332535
H            0.76193352431621        0.87385807913412        0.10926955171399
H            0.79835717145287       -0.54895770180981       -0.91795406804594
H            2.17841088556903       -0.18550179397265        0.11076034696317
H            0.76122136273417       -2.06322815366102        0.98026559395172
H            0.26111805355621        1.28979136637769        2.28097504531158
H            1.10664067800203        2.01177977663601        4.48624744867305
H            2.34829827852644        0.37369425067710        5.90489951005340
H            2.68282171157068       -1.94035662038305        5.02599896582365
H            1.78198263377575       -2.52103372973334        2.79965201171656
H           -1.43504655217845       -1.33512366413656        0.20744562068939
H           -1.47872405348954       -1.53005211305357        1.95557532418048
H           -1.40723816470419        0.08555176539849        1.23998021096494

          :  Hamiltonian                  GFN2-xTB          :
         :: total energy             -25.765873789198 Eh    ::
         :: gradient norm              0.000238454139 Eh/a0 ::
         :: HOMO-LUMO gap              3.692317619299 eV    ::
         :: SCC energy               -26.206522578578 Eh    ::
         :: -> dispersion             -0.014876692931 Eh    ::
         :: repulsion energy           0.440648789379 Eh    ::

    * Orbital Energies and Occupations

         #    Occupation            Energy/Eh            Energy/eV
      -------------------------------------------------------------
         1        2.0000           -0.8812656             -23.9805
       ...           ...                  ...                  ...
        12        2.0000           -0.6970969             -18.9690
        13        2.0000           -0.6855245             -18.6541
        14        2.0000           -0.6787133             -18.4687
        15        2.0000           -0.6626970             -18.0329
        16        2.0000           -0.6517710             -17.7356
        17        2.0000           -0.6312087             -17.1761
        18        2.0000           -0.6268817             -17.0583
        19        2.0000           -0.6265607             -17.0496
        20        2.0000           -0.6187503             -16.8371
        21        2.0000           -0.6109694             -16.6253
        22        2.0000           -0.6105418             -16.6137
        23        2.0000           -0.6007254             -16.3466
        24        2.0000           -0.5972600             -16.2523 (HOMO)
        25                         -0.4615698             -12.5600 (LUMO)
        26                         -0.4312171             -11.7340
        27                         -0.3101493              -8.4396
        28                         -0.1902733              -5.1776
        29                         -0.0802913              -2.1848
        30                         -0.0764370              -2.0800
        31                         -0.0550868              -1.4990
        32                         -0.0342280              -0.9314
        33                         -0.0292930              -0.7971
        34                         -0.0141450              -0.3849
        35                         -0.0038059              -0.1036
       ...                                ...                  ...
        48                          0.4452674              12.1163
      -------------------------------------------------------------
                  HL-Gap            0.1356902 Eh            3.6923 eV

     #   Z          covCN         q      C6AA      α(0)
     1   6 C        3.754    -0.129    23.026     6.842
     2   6 C        3.801     0.021    20.213     6.401
     3   7 N        2.751     0.103    19.468     6.553
     4   6 C        2.892     0.038    27.157     8.544
     5   6 C        2.916    -0.010    28.272     8.719
     6   6 C        2.925     0.015    27.678     8.628
     7   6 C        2.916    -0.009    28.254     8.716
     8   6 C        2.891     0.034    27.241     8.557
     9   6 C        3.754    -0.128    23.020     6.841
    10   1 H        0.925     0.067     2.118     2.276
    11   1 H        0.925     0.089     1.890     2.150
    12   1 H        0.925     0.063     2.163     2.300
    13   1 H        0.924     0.081     1.974     2.197
    14   1 H        0.926     0.113     1.668     2.020
    15   1 H        0.926     0.109     1.708     2.044
    16   1 H        0.926     0.108     1.710     2.045
    17   1 H        0.926     0.109     1.703     2.041
    18   1 H        0.926     0.108     1.718     2.050
    19   1 H        0.925     0.089     1.888     2.149
    20   1 H        0.925     0.063     2.164     2.301
    21   1 H        0.925     0.067     2.121     2.277

Wiberg/Mayer (AO) data.
largest (>0.10) Wiberg bond orders for each atom

     #   Z sym  total        # sym  WBO       # sym  WBO       # sym  WBO
 ---------------------------------------------------------------------------
     1   6 C    3.981 --     2 C    0.995    12 H    0.983    10 H    0.980
                            11 H    0.974
     2   6 C    3.934 --     1 C    0.995     9 C    0.994    13 H    0.959
                             3 N    0.930
     3   7 N    3.763 --     8 C    1.337     4 C    1.330     2 C    0.930
     4   6 C    3.957 --     5 C    1.464     3 N    1.330    14 H    0.950
     5   6 C    3.981 --     4 C    1.464     6 C    1.420    15 H    0.959
     6   6 C    3.969 --     7 C    1.425     5 C    1.420    16 H    0.961
     7   6 C    3.980 --     8 C    1.457     6 C    1.425    17 H    0.959
     8   6 C    3.959 --     7 C    1.457     3 N    1.337    18 H    0.953
     9   6 C    3.981 --     2 C    0.994    20 H    0.983    21 H    0.980
                            19 H    0.974
    10   1 H    0.995 --     1 C    0.980
    11   1 H    0.991 --     1 C    0.974
    12   1 H    0.996 --     1 C    0.983
    13   1 H    0.993 --     2 C    0.959
    14   1 H    0.987 --     4 C    0.950
    15   1 H    0.988 --     5 C    0.959
    16   1 H    0.988 --     6 C    0.961
    17   1 H    0.988 --     7 C    0.959
    18   1 H    0.988 --     8 C    0.953
    19   1 H    0.991 --     9 C    0.974
    20   1 H    0.996 --     9 C    0.983
    21   1 H    0.996 --     9 C    0.980
 ---------------------------------------------------------------------------

molecular dipole:
                 x           y           z       tot (Debye)
 q only:        2.049      -0.810       5.300
   full:        2.089      -0.853       5.349      14.757

           -------------------------------------------------
          | TOTAL ENERGY              -25.765873789198 Eh   |
          | GRADIENT NORM               0.000238454139 Eh/α |
          | HOMO-LUMO GAP               3.692317619299 eV   |
           -------------------------------------------------

 * finished run on 2024/12/20 at 07:19:54.109
