   * xtb version 6.7.1 (edcfbbe) compiled by 'conda@3ef47c1a292c' on 2024-11-25

   ID    Z sym.   atoms
    1    6 C      1, 3-18
    2    7 N      2
    3    1 H      19-54

          program call               : xtb C1321.xyz --opt --namespace C1321 --charge +1
          :  Hamiltonian                  GFN2-xTB          :
 * total energy  :   -57.3173914 Eh     change       -0.9185186E-10 Eh
 * total energy  :   -57.3239143 Eh     change       -0.6522886E-02 Eh
 * total energy  :   -57.3254847 Eh     change       -0.1570400E-02 Eh
 * total energy  :   -57.3255970 Eh     change       -0.1123304E-03 Eh
 * total energy  :   -57.3257188 Eh     change       -0.1217614E-03 Eh
 * total energy  :   -57.3257832 Eh     change       -0.6443162E-04 Eh
 * total energy  :   -57.3258532 Eh     change       -0.6995681E-04 Eh
 * total energy  :   -57.3258975 Eh     change       -0.4431161E-04 Eh
 * total energy  :   -57.3259396 Eh     change       -0.4207422E-04 Eh
 * total energy  :   -57.3259812 Eh     change       -0.4165926E-04 Eh
 * total energy  :   -57.3271203 Eh     change       -0.2644603E-04 Eh
 * total energy  :   -57.3271364 Eh     change       -0.1605469E-04 Eh
 * total energy  :   -57.3271434 Eh     change       -0.6979649E-05 Eh
 * total energy  :   -57.3271528 Eh     change       -0.9395199E-05 Eh
 * total energy  :   -57.3271608 Eh     change       -0.8024880E-05 Eh
 * total energy  :   -57.3271691 Eh     change       -0.8274361E-05 Eh
 * total energy  :   -57.3271805 Eh     change       -0.1147999E-04 Eh
 * total energy  :   -57.3271921 Eh     change       -0.1159798E-04 Eh
 * total energy  :   -57.3271963 Eh     change       -0.4109084E-05 Eh
   *** GEOMETRY OPTIMIZATION CONVERGED AFTER 44 ITERATIONS ***

 final structure:
================
54
 xtb: 6.7.1 (edcfbbe)
C            1.55165048408647        0.59283043623387        1.05884061650156
N            0.65843977907741        1.67373141064576        0.60034115303114
C            0.15079648283792        2.37929863958014        1.81766607766080
C           -0.61413791298480        3.66712886434280        1.52851247436667
C            0.22305301159534        4.61458728411137        0.67635178213755
C            0.67793150963739        3.88896813202675       -0.58516543276805
C            1.45665500326821        2.63431016975156       -0.20974511924649
C           -0.50343290042380        1.09433643522190       -0.15059415471671
C           -0.30791771876585        0.66296369829605       -1.60762077273933
C            0.51358038570440       -0.59838154143866       -1.89304698709836
C            0.05369257747582       -1.85621188233787       -1.15227499509128
C           -1.39409103541256       -2.26971160680574       -1.42833885442559
C           -1.70427692271790       -2.59440744166270       -2.89099173782150
C           -0.86825867365153       -3.72707531060588       -3.49033437636057
C           -0.97274227232753       -5.06561041508717       -2.75633385320602
C           -2.38800092905084       -5.63839986447470       -2.65183789193323
C           -3.07977733575396       -5.89591707234507       -3.99132232806808
C           -2.36770723617813       -6.93925263556254       -4.84367754087304
H            1.00851303064447       -0.09205369236446        1.70738087963859
H            2.38844318657346        1.00626399404028        1.61966031327897
H            1.94238697718013        0.03960264828445        0.21008912528803
H            1.01945538115278        2.62418835581247        2.43298762166088
H           -0.47918511826393        1.68337108390485        2.37539225299597
H           -0.84920906271255        4.13050221799583        2.48701979975070
H           -1.56504336877137        3.46470205886291        1.03425722921872
H           -0.36174258965487        5.49447195020474        0.41434374643906
H            1.09366950265092        4.95131419420772        1.24186210781169
H           -0.18275839622181        3.64629829174607       -1.20855146659001
H            1.33555670669100        4.53093329494638       -1.17141123313584
H            1.82486650718690        2.11846145299482       -1.09644824285866
H            2.31974615801311        2.92842386293267        0.39261114678397
H           -0.86164352421478        0.24204721782240        0.42849925799236
H           -1.28866029472054        1.84935570941293       -0.15030772186285
H           -1.31893029727549        0.48086679679379       -1.97822818629817
H            0.08965230662272        1.48570734772759       -2.20262137484427
H            0.43725224268511       -0.78511325024051       -2.96482826040332
H            1.57500811145424       -0.42941716723076       -1.69340395913107
H            0.71278250559443       -2.67332393501400       -1.44590181814123
H            0.17596118808099       -1.72974388492355       -0.07345015217097
H           -1.61068735929024       -3.14853801715090       -0.81993186399518
H           -2.07562387706292       -1.48125118431211       -1.09785194803111
H           -2.76005692156317       -2.86062826302922       -2.95679065435194
H           -1.56498475736814       -1.70090123068404       -3.50471870962979
H           -1.18319898983632       -3.86378737722127       -4.52574661840536
H            0.18340034878956       -3.43126744413369       -3.51792176367053
H           -0.33644929096141       -5.78454839267730       -3.27466144139555
H           -0.57084543525130       -4.95987900240446       -1.74569484631365
H           -2.32751858100133       -6.58355505300886       -2.10670597399287
H           -3.01119545437406       -4.96479068932468       -2.05912963734108
H           -4.09439520891688       -6.24455033393246       -3.78485081812559
H           -3.16681029412672       -4.96384055193261       -4.55271146533083
H           -2.24335785264364       -7.86494045241802       -4.28615026880908
H           -2.94879440631501       -7.15452219207017       -5.73702858595174
H           -1.38675936920921       -6.59061566347156       -5.15651452947333

          :  Hamiltonian                  GFN2-xTB          :
         :: total energy             -57.327196256213 Eh    ::
         :: gradient norm              0.000250672394 Eh/a0 ::
         :: HOMO-LUMO gap              6.754425005193 eV    ::
         :: SCC energy               -58.154420959650 Eh    ::
         :: -> dispersion             -0.045540011677 Eh    ::
         :: repulsion energy           0.827224703437 Eh    ::

    * Orbital Energies and Occupations

         #    Occupation            Energy/Eh            Energy/eV
      -------------------------------------------------------------
         1        2.0000           -0.8550985             -23.2684
       ...           ...                  ...                  ...
        42        2.0000           -0.5577510             -15.1772
        43        2.0000           -0.5522690             -15.0280
        44        2.0000           -0.5450099             -14.8305
        45        2.0000           -0.5423129             -14.7571
        46        2.0000           -0.5309751             -14.4486
        47        2.0000           -0.5267350             -14.3332
        48        2.0000           -0.5190383             -14.1238
        49        2.0000           -0.5080801             -13.8256
        50        2.0000           -0.5027630             -13.6809
        51        2.0000           -0.4987567             -13.5719
        52        2.0000           -0.4828335             -13.1386
        53        2.0000           -0.4789207             -13.0321
        54        2.0000           -0.4759087             -12.9501 (HOMO)
        55                         -0.2276882              -6.1957 (LUMO)
        56                         -0.1610838              -4.3833
        57                         -0.1579378              -4.2977
        58                         -0.1388557              -3.7785
        59                         -0.0770804              -2.0975
        60                         -0.0695408              -1.8923
        61                         -0.0620665              -1.6889
        62                         -0.0535267              -1.4565
        63                         -0.0357937              -0.9740
        64                         -0.0344743              -0.9381
        65                         -0.0198650              -0.5406
       ...                                ...                  ...
       108                          0.2480759               6.7505
      -------------------------------------------------------------
                  HL-Gap            0.2482206 Eh            6.7544 eV

     #   Z          covCN         q      C6AA      α(0)
     1   6 C        3.724    -0.091    22.347     6.750
     2   7 N        3.620     0.119    19.195     6.507
     3   6 C        3.771    -0.034    21.218     6.564
     4   6 C        3.804    -0.071    21.853     6.655
     5   6 C        3.807    -0.072    21.863     6.656
     6   6 C        3.805    -0.072    21.870     6.657
     7   6 C        3.765    -0.032    21.181     6.560
     8   6 C        3.752    -0.038    21.314     6.584
     9   6 C        3.799    -0.073    21.894     6.662
    10   6 C        3.799    -0.065    21.754     6.641
    11   6 C        3.800    -0.064    21.729     6.637
    12   6 C        3.800    -0.061    21.671     6.628
    13   6 C        3.800    -0.060    21.651     6.625
    14   6 C        3.800    -0.059    21.632     6.622
    15   6 C        3.800    -0.058    21.625     6.621
    16   6 C        3.800    -0.058    21.620     6.620
    17   6 C        3.799    -0.053    21.526     6.606
    18   6 C        3.751    -0.103    22.535     6.770
    19   1 H        0.925     0.090     1.876     2.142
    20   1 H        0.925     0.087     1.905     2.158
    21   1 H        0.925     0.105     1.736     2.060
    22   1 H        0.924     0.084     1.939     2.178
    23   1 H        0.924     0.079     1.994     2.208
    24   1 H        0.924     0.077     2.006     2.215
    25   1 H        0.924     0.058     2.220     2.330
    26   1 H        0.925     0.070     2.088     2.260
    27   1 H        0.924     0.056     2.245     2.343
    28   1 H        0.925     0.062     2.181     2.310
    29   1 H        0.925     0.075     2.031     2.229
    30   1 H        0.925     0.086     1.923     2.169
    31   1 H        0.924     0.081     1.966     2.193
    32   1 H        0.924     0.085     1.933     2.174
    33   1 H        0.925     0.084     1.935     2.176
    34   1 H        0.924     0.076     2.020     2.223
    35   1 H        0.924     0.051     2.301     2.372
    36   1 H        0.924     0.062     2.174     2.306
    37   1 H        0.924     0.023     2.685     2.562
    38   1 H        0.925     0.052     2.294     2.368
    39   1 H        0.924     0.018     2.770     2.603
    40   1 H        0.924     0.045     2.383     2.414
    41   1 H        0.924     0.020     2.733     2.585
    42   1 H        0.924     0.042     2.422     2.434
    43   1 H        0.924     0.024     2.674     2.557
    44   1 H        0.924     0.040     2.447     2.446
    45   1 H        0.924     0.024     2.668     2.554
    46   1 H        0.924     0.038     2.477     2.461
    47   1 H        0.924     0.024     2.671     2.556
    48   1 H        0.924     0.033     2.545     2.495
    49   1 H        0.924     0.025     2.652     2.547
    50   1 H        0.924     0.030     2.581     2.512
    51   1 H        0.924     0.029     2.595     2.519
    52   1 H        0.925     0.036     2.499     2.472
    53   1 H        0.925     0.036     2.509     2.477
    54   1 H        0.925     0.034     2.531     2.488

Wiberg/Mayer (AO) data.
largest (>0.10) Wiberg bond orders for each atom

     #   Z sym  total        # sym  WBO       # sym  WBO       # sym  WBO
 ---------------------------------------------------------------------------
     1   6 C    3.931 --    20 H    0.975    19 H    0.975    21 H    0.963
                             2 N    0.962
     2   7 N    3.805 --     1 C    0.962     7 C    0.933     3 C    0.930
                             8 C    0.922
     3   6 C    3.936 --     4 C    1.009    23 H    0.969    22 H    0.967
                             2 N    0.930
     4   6 C    3.987 --     3 C    1.009     5 C    1.008    25 H    0.968
                            24 H    0.965
     5   6 C    3.992 --     6 C    1.009     4 C    1.008    27 H    0.975
                            26 H    0.973
     6   6 C    3.988 --     5 C    1.009     7 C    1.008    28 H    0.971
                            29 H    0.967
     7   6 C    3.935 --     6 C    1.008    31 H    0.966    30 H    0.964
                             2 N    0.933
     8   6 C    3.928 --     9 C    1.006    32 H    0.964    33 H    0.960
                             2 N    0.922
     9   6 C    3.984 --     8 C    1.006    10 C    1.005    35 H    0.969
                            34 H    0.961
    10   6 C    3.992 --    11 C    1.007     9 C    1.005    36 H    0.969
                            37 H    0.968
    11   6 C    3.995 --    10 C    1.007    12 C    1.007    39 H    0.974
                            38 H    0.972
    12   6 C    3.996 --    13 C    1.007    11 C    1.007    41 H    0.975
                            40 H    0.973
    13   6 C    3.996 --    14 C    1.008    12 C    1.007    43 H    0.975
                            42 H    0.974
    14   6 C    3.997 --    15 C    1.008    13 C    1.008    45 H    0.975
                            44 H    0.974
    15   6 C    3.997 --    14 C    1.008    16 C    1.008    47 H    0.975
                            46 H    0.975
    16   6 C    3.997 --    17 C    1.008    15 C    1.008    48 H    0.977
                            49 H    0.976
    17   6 C    3.998 --    18 C    1.020    16 C    1.008    50 H    0.978
                            51 H    0.976
    18   6 C    3.997 --    17 C    1.020    52 H    0.987    53 H    0.987
                            54 H    0.986
    19   1 H    0.992 --     1 C    0.975
    20   1 H    0.992 --     1 C    0.975
    21   1 H    0.989 --     1 C    0.963
    22   1 H    0.993 --     3 C    0.967
    23   1 H    0.994 --     3 C    0.969
    24   1 H    0.994 --     4 C    0.965
    25   1 H    0.997 --     4 C    0.968
    26   1 H    0.995 --     5 C    0.973
    27   1 H    0.997 --     5 C    0.975
    28   1 H    0.996 --     6 C    0.971
    29   1 H    0.994 --     6 C    0.967
    30   1 H    0.993 --     7 C    0.964
    31   1 H    0.993 --     7 C    0.966
    32   1 H    0.993 --     8 C    0.964
    33   1 H    0.993 --     8 C    0.960
    34   1 H    0.994 --     9 C    0.961
    35   1 H    0.997 --     9 C    0.969
    36   1 H    0.996 --    10 C    0.969
    37   1 H    0.999 --    10 C    0.968
    38   1 H    0.997 --    11 C    0.972
    39   1 H    1.000 --    11 C    0.974
    40   1 H    0.998 --    12 C    0.973
    41   1 H    1.000 --    12 C    0.975
    42   1 H    0.998 --    13 C    0.974
    43   1 H    0.999 --    13 C    0.975
    44   1 H    0.998 --    14 C    0.974
    45   1 H    0.999 --    14 C    0.975
    46   1 H    0.999 --    15 C    0.975
    47   1 H    0.999 --    15 C    0.975
    48   1 H    0.999 --    16 C    0.977
    49   1 H    0.999 --    16 C    0.976
    50   1 H    0.999 --    17 C    0.978
    51   1 H    0.999 --    17 C    0.976
    52   1 H    0.999 --    18 C    0.987
    53   1 H    0.999 --    18 C    0.987
    54   1 H    0.999 --    18 C    0.986
 ---------------------------------------------------------------------------

molecular dipole:
                 x           y           z       tot (Debye)
 q only:        0.872       3.125       0.577
   full:        0.929       3.072       0.686       8.342

           -------------------------------------------------
          | TOTAL ENERGY              -57.327196256213 Eh   |
          | GRADIENT NORM               0.000250672394 Eh/α |
          | HOMO-LUMO GAP               6.754425005193 eV   |
           -------------------------------------------------

 * finished run on 2024/12/20 at 07:19:34.591
