   * xtb version 6.7.1 (edcfbbe) compiled by 'conda@3ef47c1a292c' on 2024-11-25

   ID    Z sym.   atoms
    1    8 O      1
    2    6 C      2, 3, 5-9
    3    7 N      4
    4    1 H      10-27

          program call               : xtb C1326.xyz --opt --namespace C1326 --charge +1
          :  Hamiltonian                  GFN2-xTB          :
 * total energy  :   -30.7409162 Eh     change       -0.5677592E-10 Eh
 * total energy  :   -30.7487864 Eh     change       -0.7870229E-02 Eh
 * total energy  :   -30.7506974 Eh     change       -0.1910915E-02 Eh
 * total energy  :   -30.7507973 Eh     change       -0.9991483E-04 Eh
 * total energy  :   -30.7509041 Eh     change       -0.1068717E-03 Eh
 * total energy  :   -30.7509654 Eh     change       -0.6126039E-04 Eh
 * total energy  :   -30.7510564 Eh     change       -0.9098787E-04 Eh
 * total energy  :   -30.7511121 Eh     change       -0.5573956E-04 Eh
 * total energy  :   -30.7511492 Eh     change       -0.3709358E-04 Eh
 * total energy  :   -30.7511731 Eh     change       -0.2389455E-04 Eh
 * total energy  :   -30.7514424 Eh     change       -0.4100478E-04 Eh
 * total energy  :   -30.7514648 Eh     change       -0.2236155E-04 Eh
 * total energy  :   -30.7515011 Eh     change       -0.3624726E-04 Eh
 * total energy  :   -30.7515254 Eh     change       -0.2430054E-04 Eh
 * total energy  :   -30.7515436 Eh     change       -0.1826220E-04 Eh
 * total energy  :   -30.7515694 Eh     change       -0.2573980E-04 Eh
 * total energy  :   -30.7515771 Eh     change       -0.7752724E-05 Eh
 * total energy  :   -30.7515850 Eh     change       -0.7847555E-05 Eh
 * total energy  :   -30.7515876 Eh     change       -0.2644149E-05 Eh
   *** GEOMETRY OPTIMIZATION CONVERGED AFTER 26 ITERATIONS ***

 final structure:
================
27
 xtb: 6.7.1 (edcfbbe)
O            1.11085240327709       -0.21053102642284       -0.36771980029609
C            0.46560505816818        0.78986005353767       -1.12035829932367
C            1.08962977613438        2.16234562809388       -0.83563844557245
N            2.57771392125261        2.27441417382681       -0.96100747573208
C            3.08392556349124        1.56644509051393       -2.20482314226237
C            2.50336250648084        2.15697722137931       -3.48690009387775
C            4.60545513920152        1.55473419788005       -2.31552224184038
C            2.91118030235900        3.71167070441481       -0.97436519951870
C            3.19676123051885        1.67682895844487        0.24205004559717
H            0.56329719715716       -1.00143743716264       -0.33230767984774
H            0.50734873569956        0.54904305637745       -2.19133048957135
H           -0.59164770884402        0.87518840183743       -0.84028080768754
H            0.62220733782730        2.88298158905260       -1.50734383622720
H            0.83925166079486        2.44230023504099        0.18919615738648
H            2.75178439260211        0.53211162401637       -2.09038657126023
H            2.96670237141732        3.10859986310184       -3.73327466808366
H            2.72172243301991        1.47400730037026       -4.30377660503132
H            1.42625804488972        2.28537037671480       -3.45597376138829
H            5.08476082729365        1.00703673692782       -1.51060273013961
H            4.86421672283770        1.04542106724385       -3.24045237448963
H            5.02445341613253        2.55529554528849       -2.37474777881987
H            2.50828411022749        4.18986500384811       -0.08319465645796
H            3.98971793441801        3.84720823742269       -0.97636228962419
H            2.48940375655685        4.19881377326571       -1.84980179456062
H            2.77629584557140        2.13310621451624        1.13584444501081
H            2.99148678500317        0.60949556081509        0.27073266671640
H            4.26826023651170        1.85148784965395        0.24505742690040

          :  Hamiltonian                  GFN2-xTB          :
         :: total energy             -30.751587601137 Eh    ::
         :: gradient norm              0.000437266689 Eh/a0 ::
         :: HOMO-LUMO gap              8.855971031181 eV    ::
         :: SCC energy               -31.139088243005 Eh    ::
         :: -> dispersion             -0.019188342663 Eh    ::
         :: repulsion energy           0.387500641868 Eh    ::

    * Orbital Energies and Occupations

         #    Occupation            Energy/Eh            Energy/eV
      -------------------------------------------------------------
         1        2.0000           -0.8564980             -23.3065
       ...           ...                  ...                  ...
        16        2.0000           -0.6589981             -17.9323
        17        2.0000           -0.6576886             -17.8966
        18        2.0000           -0.6463900             -17.5892
        19        2.0000           -0.6401849             -17.4203
        20        2.0000           -0.6342229             -17.2581
        21        2.0000           -0.6320619             -17.1993
        22        2.0000           -0.6263385             -17.0435
        23        2.0000           -0.6132892             -16.6884
        24        2.0000           -0.6078962             -16.5417
        25        2.0000           -0.6051691             -16.4675
        26        2.0000           -0.5938977             -16.1608
        27        2.0000           -0.5910074             -16.0821
        28        2.0000           -0.5621562             -15.2970 (HOMO)
        29                         -0.2367053              -6.4411 (LUMO)
        30                         -0.1749311              -4.7601
        31                         -0.1509038              -4.1063
        32                         -0.1409573              -3.8356
        33                         -0.1050563              -2.8587
        34                         -0.0685776              -1.8661
        35                         -0.0571231              -1.5544
        36                         -0.0458666              -1.2481
        37                         -0.0325345              -0.8853
        38                         -0.0254765              -0.6933
        39                         -0.0066627              -0.1813
       ...                                ...                  ...
        54                          0.1526449               4.1537
      -------------------------------------------------------------
                  HL-Gap            0.3254509 Eh            8.8560 eV

     #   Z          covCN         q      C6AA      α(0)
     1   8 O        1.656    -0.439    21.627     6.278
     2   6 C        3.672     0.072    19.608     6.347
     3   6 C        3.763    -0.041    21.346     6.586
     4   7 N        3.618     0.126    19.083     6.488
     5   6 C        3.794     0.014    20.341     6.423
     6   6 C        3.756    -0.133    23.110     6.854
     7   6 C        3.756    -0.134    23.127     6.857
     8   6 C        3.723    -0.096    22.443     6.765
     9   6 C        3.721    -0.102    22.561     6.784
    10   1 H        0.805     0.315     0.678     1.294
    11   1 H        0.923     0.050     2.315     2.380
    12   1 H        0.924     0.062     2.181     2.309
    13   1 H        0.924     0.088     1.899     2.155
    14   1 H        0.924     0.097     1.815     2.107
    15   1 H        0.924     0.092     1.858     2.131
    16   1 H        0.925     0.068     2.107     2.270
    17   1 H        0.925     0.082     1.959     2.189
    18   1 H        0.925     0.056     2.243     2.342
    19   1 H        0.925     0.066     2.130     2.282
    20   1 H        0.925     0.085     1.928     2.172
    21   1 H        0.925     0.063     2.162     2.299
    22   1 H        0.925     0.093     1.847     2.125
    23   1 H        0.925     0.102     1.771     2.081
    24   1 H        0.925     0.098     1.806     2.102
    25   1 H        0.925     0.092     1.856     2.131
    26   1 H        0.925     0.126     1.569     1.959
    27   1 H        0.925     0.097     1.811     2.104

Wiberg/Mayer (AO) data.
largest (>0.10) Wiberg bond orders for each atom

     #   Z sym  total        # sym  WBO       # sym  WBO       # sym  WBO
 ---------------------------------------------------------------------------
     1   8 O    1.958 --     2 C    1.005    10 H    0.885
     2   6 C    3.959 --     1 O    1.005     3 C    1.003    12 H    0.964
                            11 H    0.963
     3   6 C    3.944 --     2 C    1.003    13 H    0.965    14 H    0.964
                             4 N    0.940
     4   7 N    3.806 --     8 C    0.962     9 C    0.955     3 C    0.940
                             5 C    0.895
     5   6 C    3.930 --     7 C    1.012     6 C    1.012    15 H    0.956
                             4 N    0.895
     6   6 C    3.985 --     5 C    1.012    16 H    0.980    18 H    0.978
                            17 H    0.975
     7   6 C    3.983 --     5 C    1.012    19 H    0.979    21 H    0.979
                            20 H    0.972
     8   6 C    3.931 --    22 H    0.975    24 H    0.972    23 H    0.970
                             4 N    0.962
     9   6 C    3.918 --    25 H    0.974    27 H    0.972    26 H    0.963
                             4 N    0.955
    10   1 H    0.901 --     1 O    0.885
    11   1 H    0.997 --     2 C    0.963
    12   1 H    0.996 --     2 C    0.964
    13   1 H    0.992 --     3 C    0.965
    14   1 H    0.990 --     3 C    0.964
    15   1 H    0.991 --     5 C    0.956
    16   1 H    0.995 --     6 C    0.980
    17   1 H    0.993 --     6 C    0.975
    18   1 H    0.997 --     6 C    0.978
    19   1 H    0.996 --     7 C    0.979
    20   1 H    0.992 --     7 C    0.972
    21   1 H    0.996 --     7 C    0.979
    22   1 H    0.991 --     8 C    0.975
    23   1 H    0.989 --     8 C    0.970
    24   1 H    0.990 --     8 C    0.972
    25   1 H    0.991 --     9 C    0.974
    26   1 H    0.984 --     9 C    0.963
    27   1 H    0.991 --     9 C    0.972
 ---------------------------------------------------------------------------

molecular dipole:
                 x           y           z       tot (Debye)
 q only:        4.488       3.928      -2.307
   full:        4.226       3.887      -2.340      15.760

           -------------------------------------------------
          | TOTAL ENERGY              -30.751587601137 Eh   |
          | GRADIENT NORM               0.000437266689 Eh/α |
          | HOMO-LUMO GAP               8.855971031181 eV   |
           -------------------------------------------------

 * finished run on 2024/12/20 at 07:19:50.190
