   * xtb version 6.7.1 (edcfbbe) compiled by 'conda@3ef47c1a292c' on 2024-11-25

   ID    Z sym.   atoms
    1    6 C      1-16, 18-25, 28-30
    2    7 N      17
    3    8 O      26, 27
    4    1 H      31-86

          program call               : xtb C1324.xyz --opt --namespace C1324 --charge +1
          :  Hamiltonian                  GFN2-xTB          :
 * total energy  :   -97.0687370 Eh     change       -0.7268852E-09 Eh
 * total energy  :   -97.0782153 Eh     change       -0.9478316E-02 Eh
 * total energy  :   -97.0801795 Eh     change       -0.1964217E-02 Eh
 * total energy  :   -97.0803510 Eh     change       -0.1714644E-03 Eh
 * total energy  :   -97.0804971 Eh     change       -0.1460877E-03 Eh
 * total energy  :   -97.0806138 Eh     change       -0.1167033E-03 Eh
 * total energy  :   -97.0807828 Eh     change       -0.1690290E-03 Eh
 * total energy  :   -97.0809854 Eh     change       -0.2026254E-03 Eh
 * total energy  :   -97.0812253 Eh     change       -0.2398284E-03 Eh
 * total energy  :   -97.0815112 Eh     change       -0.2858926E-03 Eh
 * total energy  :   -97.0850464 Eh     change       -0.1139575E-04 Eh
 * total energy  :   -97.0850568 Eh     change       -0.1040812E-04 Eh
 * total energy  :   -97.0850675 Eh     change       -0.1067221E-04 Eh
 * total energy  :   -97.0850782 Eh     change       -0.1076882E-04 Eh
 * total energy  :   -97.0850874 Eh     change       -0.9186146E-05 Eh
 * total energy  :   -97.0850951 Eh     change       -0.7621469E-05 Eh
 * total energy  :   -97.0851020 Eh     change       -0.6936530E-05 Eh
 * total energy  :   -97.0851086 Eh     change       -0.6601910E-05 Eh
 * total energy  :   -97.0851107 Eh     change       -0.2111391E-05 Eh
   *** GEOMETRY OPTIMIZATION CONVERGED AFTER 94 ITERATIONS ***

 final structure:
================
86
 xtb: 6.7.1 (edcfbbe)
C            1.26827951932603        0.80198468513319       -0.35228947347505
C            1.49658127996249       -0.70150099507193       -0.45453527738497
C            1.57145388183349       -1.39496266518456        0.90666461796982
C            0.30594085984666       -1.28192921095330        1.75900702373856
C           -0.95718158224302       -1.86321051387260        1.12126957745260
C           -0.88461203578446       -3.35394910620021        0.78412188788489
C           -0.59408312489103       -4.27349579160625        1.97237291502493
C           -1.57666780020232       -4.15249564117804        3.13868928860169
C           -3.03803177871718       -4.42913591625763        2.78194363718225
C           -3.32448503739188       -5.84671498606958        2.28271674687702
C           -3.00340149467772       -6.96373528423379        3.27903734458755
C           -3.67484809609433       -6.82324204888220        4.64740619278295
C           -5.19892228052594       -6.69652340680564        4.60195878810175
C           -5.93410381082117       -7.91135881636650        4.03258834134310
C           -5.72537047399694       -9.23164572539697        4.78927242327750
C           -5.88851153291587       -9.20743520100561        6.31221038132229
N           -7.26743610362362       -9.34119950353656        6.88146908072969
C           -7.83537206755641      -10.70793250337987        6.65654143472349
C           -7.21914188877230      -11.87891147800149        7.42859729697401
C           -7.79299626618390      -12.17415609386598        8.82275639686647
C           -9.32074611170906      -12.24404152087425        8.90669099127262
C           -9.98070670660490      -13.23513891880711        7.94635020312772
C           -9.63295791560189      -14.70418143049516        8.19503397390245
C          -10.16574888578108      -15.24886248118482        9.51849047163885
C          -11.68039003862005      -15.26920482527193        9.57365433754937
O          -12.41482374598047      -14.95729701489155        8.67372278466455
O          -12.08714585518797      -15.69018406735881       10.77233261045921
C          -13.48792974920657      -15.80502112789770       11.00508099193555
C           -7.18694712359415       -9.03726304603830        8.32184943623583
C           -8.18982072048678       -8.36977455558474        6.26554703239598
H            0.28564738569728        1.02357247027510        0.05640765137414
H            1.33483706033956        1.26062632413014       -1.33620303633534
H            2.01948100715556        1.25812161294694        0.28901227460410
H            0.70497825114830       -1.14976082597131       -1.05762859623151
H            2.44041026019185       -0.87928250393448       -0.97589075466079
H            1.80873277884646       -2.44921895747960        0.74895474912470
H            2.39874885628318       -0.95902193545996        1.47288137213129
H            0.49161047638319       -1.78077971554364        2.71283214558700
H            0.12058346055024       -0.22953438793064        1.98253842535668
H           -1.79491559475777       -1.68639384260299        1.80000313013422
H           -1.17625668592807       -1.31834865744674        0.20106758614704
H           -1.83109403467947       -3.64663146238241        0.32322357160874
H           -0.10634722576451       -3.51367696612370        0.03559793896487
H           -0.58316232666844       -5.30493842465091        1.61218128091562
H            0.40686299245016       -4.06014300613521        2.35210248092616
H           -1.25831670083716       -4.83758620776337        3.92810378075929
H           -1.51552245419928       -3.14358003447092        3.55067614339469
H           -3.65117319402798       -4.22100191701715        3.66220188739147
H           -3.35270458908936       -3.72926231656235        2.00638048108247
H           -4.37809684494358       -5.90459959678631        1.99788421437758
H           -2.74414455716583       -6.02902132231556        1.37722742798839
H           -3.28576198031137       -7.91788587311759        2.82702501402730
H           -1.92493151004973       -6.99772606401678        3.44018137079367
H           -3.38929140282969       -7.68127660276207        5.26191051171948
H           -3.28040617546781       -5.93408463366020        5.14119540635951
H           -5.56075020980253       -6.46775784972757        5.60938243878370
H           -5.45920135186644       -5.83809351975107        3.98306569215882
H           -6.99366830894276       -7.66576993082287        3.95379776806461
H           -5.58212621381171       -8.07756791965379        3.01418615320167
H           -6.35869166625747       -9.99774325042579        4.33970075680623
H           -4.69530064866591       -9.54611954389185        4.61320660457696
H           -5.30200988535082      -10.02585773475299        6.73248107272172
H           -5.47123442060633       -8.27343760430078        6.69026838923031
H           -8.89892240677539      -10.65904201415126        6.89177093487636
H           -7.74200624029448      -10.90785734103196        5.58824777140792
H           -7.39091028157035      -12.76359565564963        6.81382984478295
H           -6.13668059564681      -11.77034202989987        7.50967162396474
H           -7.38431771369618      -13.13727534407062        9.13000180316806
H           -7.44379693852938      -11.44540361343435        9.55534118174162
H           -9.58088355686261      -12.51166873806490        9.93105205869000
H           -9.75404340678486      -11.25421281861544        8.73500594333560
H          -11.06204038259647      -13.12897289783324        8.03114245746039
H           -9.71410609480925      -12.98899549659162        6.91633174656030
H          -10.07531517950033      -15.28920903144727        7.38735547288035
H           -8.55203389230335      -14.85172847522338        8.16105609356091
H           -9.82718090833939      -16.27754920471036        9.65800719376538
H           -9.80195650927856      -14.67689471336510       10.37294378275454
H          -14.03418544298744      -15.66136621520882       10.07155263582645
H          -13.67711555883670      -16.79876452780289       11.40778579966661
H          -13.78510071561254      -15.04814937505147       11.73165913663715
H           -6.94623291771427       -7.98503547416034        8.46674970213300
H           -8.14204352474609       -9.24513660250709        8.79968952709077
H           -6.41331102422552       -9.63657613044957        8.79486750697097
H           -7.74651125596661       -7.37627177355247        6.27421963851694
H           -8.40974593925564       -8.65340735462932        5.23971864788267
H           -9.12475737480105       -8.33987378135954        6.82327270520033

          :  Hamiltonian                  GFN2-xTB          :
         :: total energy             -97.085110703778 Eh    ::
         :: gradient norm              0.000193927474 Eh/a0 ::
         :: HOMO-LUMO gap              4.335728277198 eV    ::
         :: SCC energy               -98.412076569770 Eh    ::
         :: -> dispersion             -0.073863622316 Eh    ::
         :: repulsion energy           1.326965865992 Eh    ::

    * Orbital Energies and Occupations

         #    Occupation            Energy/Eh            Energy/eV
      -------------------------------------------------------------
         1        2.0000           -0.8555240             -23.2800
       ...           ...                  ...                  ...
        78        2.0000           -0.5072815             -13.8038
        79        2.0000           -0.5042753             -13.7220
        80        2.0000           -0.4970987             -13.5267
        81        2.0000           -0.4920006             -13.3880
        82        2.0000           -0.4882579             -13.2862
        83        2.0000           -0.4838857             -13.1672
        84        2.0000           -0.4826198             -13.1328
        85        2.0000           -0.4737808             -12.8922
        86        2.0000           -0.4726354             -12.8611
        87        2.0000           -0.4693840             -12.7726
        88        2.0000           -0.4593557             -12.4997
        89        2.0000           -0.4541050             -12.3568
        90        2.0000           -0.4527948             -12.3212 (HOMO)
        91                         -0.2934597              -7.9854 (LUMO)
        92                         -0.2238015              -6.0899
        93                         -0.1628743              -4.4320
        94                         -0.1420231              -3.8646
        95                         -0.1371020              -3.7307
        96                         -0.0769474              -2.0938
        97                         -0.0756033              -2.0573
        98                         -0.0620791              -1.6893
        99                         -0.0561032              -1.5266
       100                         -0.0339563              -0.9240
       101                         -0.0320362              -0.8717
       ...                                ...                  ...
       176                          0.5926829              16.1277
      -------------------------------------------------------------
                  HL-Gap            0.1593351 Eh            4.3357 eV

     #   Z          covCN         q      C6AA      α(0)
     1   6 C        3.751    -0.102    22.503     6.765
     2   6 C        3.799    -0.052    21.510     6.603
     3   6 C        3.800    -0.057    21.600     6.617
     4   6 C        3.800    -0.057    21.596     6.617
     5   6 C        3.800    -0.056    21.588     6.615
     6   6 C        3.800    -0.057    21.596     6.617
     7   6 C        3.800    -0.057    21.596     6.617
     8   6 C        3.800    -0.057    21.599     6.617
     9   6 C        3.800    -0.058    21.615     6.619
    10   6 C        3.800    -0.059    21.635     6.623
    11   6 C        3.800    -0.059    21.642     6.624
    12   6 C        3.800    -0.061    21.670     6.628
    13   6 C        3.800    -0.062    21.687     6.630
    14   6 C        3.799    -0.071    21.865     6.658
    15   6 C        3.798    -0.071    21.863     6.658
    16   6 C        3.758    -0.040    21.346     6.587
    17   7 N        3.620     0.129    19.036     6.480
    18   6 C        3.759    -0.042    21.372     6.591
    19   6 C        3.798    -0.072    21.877     6.660
    20   6 C        3.799    -0.072    21.872     6.659
    21   6 C        3.799    -0.063    21.713     6.634
    22   6 C        3.800    -0.069    21.821     6.651
    23   6 C        3.802    -0.059    21.627     6.621
    24   6 C        3.803    -0.094    22.291     6.722
    25   6 C        2.713     0.359    20.915     7.486
    26   8 O        0.856    -0.411    21.912     6.276
    27   8 O        1.705    -0.262    18.339     5.782
    28   6 C        3.647     0.023    20.506     6.507
    29   6 C        3.727    -0.092    22.355     6.751
    30   6 C        3.727    -0.092    22.362     6.752
    31   1 H        0.925     0.034     2.536     2.491
    32   1 H        0.925     0.032     2.556     2.500
    33   1 H        0.925     0.034     2.531     2.488
    34   1 H        0.924     0.030     2.586     2.515
    35   1 H        0.924     0.028     2.620     2.532
    36   1 H        0.924     0.028     2.616     2.529
    37   1 H        0.924     0.029     2.604     2.524
    38   1 H        0.924     0.027     2.635     2.538
    39   1 H        0.924     0.032     2.560     2.502
    40   1 H        0.924     0.025     2.657     2.549
    41   1 H        0.924     0.033     2.547     2.496
    42   1 H        0.924     0.025     2.653     2.547
    43   1 H        0.924     0.033     2.537     2.491
    44   1 H        0.924     0.026     2.651     2.546
    45   1 H        0.924     0.033     2.538     2.491
    46   1 H        0.924     0.024     2.671     2.556
    47   1 H        0.924     0.034     2.527     2.486
    48   1 H        0.924     0.022     2.697     2.568
    49   1 H        0.924     0.037     2.482     2.464
    50   1 H        0.924     0.024     2.676     2.558
    51   1 H        0.924     0.040     2.445     2.445
    52   1 H        0.924     0.024     2.667     2.554
    53   1 H        0.924     0.041     2.436     2.441
    54   1 H        0.924     0.020     2.729     2.583
    55   1 H        0.924     0.044     2.401     2.423
    56   1 H        0.924     0.012     2.856     2.643
    57   1 H        0.925     0.055     2.264     2.353
    58   1 H        0.924     0.033     2.544     2.494
    59   1 H        0.924     0.063     2.170     2.303
    60   1 H        0.924     0.048     2.349     2.397
    61   1 H        0.924     0.075     2.033     2.230
    62   1 H        0.924     0.078     2.002     2.213
    63   1 H        0.924     0.091     1.872     2.140
    64   1 H        0.924     0.093     1.849     2.126
    65   1 H        0.924     0.079     1.986     2.204
    66   1 H        0.924     0.075     2.027     2.226
    67   1 H        0.924     0.048     2.346     2.395
    68   1 H        0.924     0.059     2.210     2.325
    69   1 H        0.924     0.035     2.521     2.483
    70   1 H        0.924     0.049     2.332     2.388
    71   1 H        0.924     0.019     2.752     2.594
    72   1 H        0.925     0.064     2.151     2.294
    73   1 H        0.924     0.029     2.600     2.522
    74   1 H        0.924     0.057     2.230     2.335
    75   1 H        0.924     0.037     2.492     2.469
    76   1 H        0.924     0.073     2.055     2.242
    77   1 H        0.924     0.065     2.136     2.285
    78   1 H        0.924     0.078     1.996     2.210
    79   1 H        0.925     0.071     2.070     2.250
    80   1 H        0.924     0.065     2.143     2.289
    81   1 H        0.925     0.092     1.864     2.135
    82   1 H        0.925     0.099     1.792     2.094
    83   1 H        0.925     0.099     1.798     2.097
    84   1 H        0.925     0.100     1.786     2.090
    85   1 H        0.925     0.099     1.790     2.092
    86   1 H        0.925     0.092     1.863     2.134

Wiberg/Mayer (AO) data.
largest (>0.10) Wiberg bond orders for each atom

     #   Z sym  total        # sym  WBO       # sym  WBO       # sym  WBO
 ---------------------------------------------------------------------------
     1   6 C    3.997 --     2 C    1.020    33 H    0.988    32 H    0.987
                            31 H    0.986
     2   6 C    3.998 --     1 C    1.020     3 C    1.008    35 H    0.978
                            34 H    0.976
     3   6 C    3.998 --     2 C    1.008     4 C    1.008    37 H    0.977
                            36 H    0.976
     4   6 C    3.998 --     5 C    1.008     3 C    1.008    39 H    0.975
                            38 H    0.975
     5   6 C    3.998 --     4 C    1.008     6 C    1.008    40 H    0.975
                            41 H    0.975
     6   6 C    3.997 --     5 C    1.008     7 C    1.008    42 H    0.975
                            43 H    0.975
     7   6 C    3.997 --     8 C    1.008     6 C    1.008    44 H    0.976
                            45 H    0.975
     8   6 C    3.997 --     9 C    1.008     7 C    1.008    46 H    0.975
                            47 H    0.974
     9   6 C    3.997 --     8 C    1.008    10 C    1.008    48 H    0.975
                            49 H    0.974
    10   6 C    3.997 --     9 C    1.008    11 C    1.007    50 H    0.975
                            51 H    0.974
    11   6 C    3.996 --    10 C    1.007    12 C    1.007    52 H    0.976
                            53 H    0.974
    12   6 C    3.996 --    11 C    1.007    13 C    1.007    54 H    0.976
                            55 H    0.974
    13   6 C    3.995 --    14 C    1.008    12 C    1.007    56 H    0.970
                            57 H    0.970
    14   6 C    3.991 --    13 C    1.008    15 C    1.004    58 H    0.973
                            59 H    0.970
    15   6 C    3.984 --    16 C    1.006    14 C    1.004    60 H    0.967
                            61 H    0.965
    16   6 C    3.928 --    15 C    1.006    62 H    0.964    63 H    0.959
                            17 N    0.923
    17   7 N    3.809 --    29 C    0.961    30 C    0.960    18 C    0.924
                            16 C    0.923
    18   6 C    3.928 --    19 C    1.006    65 H    0.963    64 H    0.959
                            17 N    0.924
    19   6 C    3.985 --    18 C    1.006    20 C    1.004    67 H    0.966
                            66 H    0.965
    20   6 C    3.992 --    21 C    1.007    19 C    1.004    69 H    0.974
                            68 H    0.971
    21   6 C    3.995 --    22 C    1.008    20 C    1.007    71 H    0.971
                            70 H    0.971
    22   6 C    3.994 --    23 C    1.008    21 C    1.008    73 H    0.975
                            72 H    0.971
    23   6 C    3.995 --    24 C    1.009    22 C    1.008    75 H    0.975
                            74 H    0.974
    24   6 C    3.995 --    23 C    1.009    25 C    0.967    77 H    0.955
                            76 H    0.953
    25   6 C    3.916 --    26 O    1.747    27 O    1.143    24 C    0.967
    26   8 O    2.044 --    25 C    1.747    27 O    0.176
    27   8 O    2.313 --    25 C    1.143    28 C    0.951    26 O    0.176
    28   6 C    3.917 --    79 H    0.977    80 H    0.977    78 H    0.975
                            27 O    0.951
    29   6 C    3.931 --    81 H    0.975    82 H    0.973    83 H    0.972
                            17 N    0.961
    30   6 C    3.930 --    86 H    0.975    84 H    0.972    85 H    0.971
                            17 N    0.960
    31   1 H    0.999 --     1 C    0.986
    32   1 H    0.999 --     1 C    0.987
    33   1 H    0.999 --     1 C    0.988
    34   1 H    0.999 --     2 C    0.976
    35   1 H    0.999 --     2 C    0.978
    36   1 H    0.999 --     3 C    0.976
    37   1 H    0.999 --     3 C    0.977
    38   1 H    0.999 --     4 C    0.975
    39   1 H    0.999 --     4 C    0.975
    40   1 H    0.999 --     5 C    0.975
    41   1 H    0.999 --     5 C    0.975
    42   1 H    0.999 --     6 C    0.975
    43   1 H    0.999 --     6 C    0.975
    44   1 H    0.999 --     7 C    0.976
    45   1 H    0.999 --     7 C    0.975
    46   1 H    0.999 --     8 C    0.975
    47   1 H    0.999 --     8 C    0.974
    48   1 H    0.999 --     9 C    0.975
    49   1 H    0.999 --     9 C    0.974
    50   1 H    0.999 --    10 C    0.975
    51   1 H    0.998 --    10 C    0.974
    52   1 H    0.999 --    11 C    0.976
    53   1 H    0.998 --    11 C    0.974
    54   1 H    1.000 --    12 C    0.976
    55   1 H    0.998 --    12 C    0.974
    56   1 H    1.000 --    13 C    0.970
    57   1 H    0.997 --    13 C    0.970
    58   1 H    0.999 --    14 C    0.973
    59   1 H    0.996 --    14 C    0.970
    60   1 H    0.998 --    15 C    0.967
    61   1 H    0.994 --    15 C    0.965
    62   1 H    0.994 --    16 C    0.964
    63   1 H    0.992 --    16 C    0.959
    64   1 H    0.991 --    18 C    0.959
    65   1 H    0.994 --    18 C    0.963
    66   1 H    0.994 --    19 C    0.965
    67   1 H    0.998 --    19 C    0.966
    68   1 H    0.996 --    20 C    0.971
    69   1 H    0.999 --    20 C    0.974
    70   1 H    0.998 --    21 C    0.971
    71   1 H    1.000 --    21 C    0.971
    72   1 H    0.996 --    22 C    0.971
    73   1 H    0.999 --    22 C    0.975
    74   1 H    0.997 --    23 C    0.974
    75   1 H    0.998 --    23 C    0.975
    76   1 H    0.995 --    24 C    0.953
    77   1 H    0.996 --    24 C    0.955
    78   1 H    0.994 --    28 C    0.975
    79   1 H    0.995 --    28 C    0.977
    80   1 H    0.996 --    28 C    0.977
    81   1 H    0.992 --    29 C    0.975
    82   1 H    0.990 --    29 C    0.973
    83   1 H    0.990 --    29 C    0.972
    84   1 H    0.990 --    30 C    0.972
    85   1 H    0.990 --    30 C    0.971
    86   1 H    0.992 --    30 C    0.975
 ---------------------------------------------------------------------------

molecular dipole:
                 x           y           z       tot (Debye)
 q only:      -13.286     -18.008      13.310
   full:      -13.276     -18.080      13.483      66.521

           -------------------------------------------------
          | TOTAL ENERGY              -97.085110703778 Eh   |
          | GRADIENT NORM               0.000193927474 Eh/α |
          | HOMO-LUMO GAP               4.335728277198 eV   |
           -------------------------------------------------

 * finished run on 2024/12/20 at 07:19:46.688
