   * xtb version 6.7.1 (edcfbbe) compiled by 'conda@3ef47c1a292c' on 2024-11-25

   ID    Z sym.   atoms
    1    9 F      1, 15-22
    2   16 S      2
    3    6 C      3-8, 10-14
    4    7 N      9
    5    1 H      23-35

          program call               : xtb C1323.xyz --opt --namespace C1323 --charge +1
          :  Hamiltonian                  GFN2-xTB          :
 * total energy  :   -43.7633001 Eh     change       -0.1402782E-08 Eh
 * total energy  :   -77.5356417 Eh     change       -0.3377234E+02 Eh
 * total energy  :   -77.8959345 Eh     change       -0.3602927E+00 Eh
 * total energy  :   -78.1116661 Eh     change       -0.2157316E+00 Eh
 * total energy  :   -78.2599706 Eh     change       -0.1483045E+00 Eh
 * total energy  :   -78.3595779 Eh     change       -0.9960734E-01 Eh
 * total energy  :   -78.4306867 Eh     change       -0.7110877E-01 Eh
 * total energy  :   -78.4845597 Eh     change       -0.5387298E-01 Eh
 * total energy  :   -78.5265382 Eh     change       -0.4197857E-01 Eh
 * total energy  :   -78.5572722 Eh     change       -0.3073392E-01 Eh
 * total energy  :   -78.6427376 Eh     change       -0.1264310E-04 Eh
 * total energy  :   -78.6427520 Eh     change       -0.1440610E-04 Eh
 * total energy  :   -78.6427661 Eh     change       -0.1412360E-04 Eh
 * total energy  :   -78.6427782 Eh     change       -0.1215077E-04 Eh
 * total energy  :   -78.6427891 Eh     change       -0.1086262E-04 Eh
 * total energy  :   -78.6427993 Eh     change       -0.1018575E-04 Eh
 * total energy  :   -78.6428079 Eh     change       -0.8575075E-05 Eh
 * total energy  :   -78.6428140 Eh     change       -0.6160866E-05 Eh
 * total energy  :   -78.6428185 Eh     change       -0.4443168E-05 Eh
   *** GEOMETRY OPTIMIZATION CONVERGED AFTER 110 ITERATIONS ***

 final structure:
================
35
 xtb: 6.7.1 (edcfbbe)
F            0.75986703214446       -0.39852948920064        0.72366661337569
S           -0.39503011510294       -1.03539310403701       -0.24240226408905
C            0.71261769228220        2.52515795157156       -0.90108712156076
C           -0.20157856704925        3.52439042294533       -0.13868348786876
C           -0.83686101938713        3.01850358264527        1.14992124364985
C            0.11570568696349        2.47398031107380        2.21850531971498
C            1.19454065707950        3.43553664721926        2.71734412216330
C            0.65790548199237        4.67266976900973        3.45251660041993
N            0.06121883847227        4.29944254447159        4.72318478909017
C            0.85529129099346        4.09108226830239        5.78030816967518
C            0.34167488418165        3.67472270346528        6.99038938144332
C           -1.02643835770134        3.46196443933032        7.11057789275144
C           -1.83338357396311        3.67999304414265        6.00200890343708
C           -1.25706153014735        4.09919923297341        4.81962396926185
F            0.53739576340322        4.64603243970671        0.08434366826498
F           -1.17768213039236        3.89737014259552       -0.99733978571267
F            1.81498472010980        2.24812009553025       -0.21288510489943
F            1.07006261112260        2.99117099267758       -2.08287538444687
F            0.74973149810934       -2.06389588710438       -0.88277665673281
F           -0.87959661476746       -2.19362568091272        0.77001816428555
F           -1.48536753778507        0.03426486089223        0.56004214482843
F            0.07060762256491        1.34966118088551       -1.11279749542049
H           -1.42751329245436        3.85928747711654        1.52214209184391
H           -1.53271474583382        2.22507892801138        0.87311857820953
H           -0.50412177635510        2.13756966171507        3.05254856747737
H            0.61639305792964        1.58742771166461        1.83548933185523
H            1.85783507232855        2.88302246759646        3.38495584159826
H            1.80105337436959        3.78681412918531        1.88459333060720
H            1.48369664897783        5.36091325051652        3.64046648205453
H           -0.08201990448851        5.18736131170909        2.83968640415679
H            1.91246729296136        4.26820578806042        5.64612349707473
H            1.00439669001059        3.52163153990706        7.82700676633158
H           -1.45281572456505        3.13730842292158        8.04661161370476
H           -2.89992328034777        3.52916871807722        6.05060403600822
H           -1.85644774566282        4.28960212529354        3.94211977749880

          :  Hamiltonian                  GFN2-xTB          :
         :: total energy             -78.642818471406 Eh    ::
         :: gradient norm              0.000265353321 Eh/a0 ::
         :: HOMO-LUMO gap              2.380618213730 eV    ::
         :: SCC energy               -79.198224729309 Eh    ::
         :: -> dispersion             -0.032495200056 Eh    ::
         :: repulsion energy           0.555406257903 Eh    ::

    * Orbital Energies and Occupations

         #    Occupation            Energy/Eh            Energy/eV
      -------------------------------------------------------------
         1        2.0000           -1.0158658             -27.6431
       ...           ...                  ...                  ...
        53        2.0000           -0.6214778             -16.9113
        54        2.0000           -0.6210143             -16.8987
        55        2.0000           -0.6148897             -16.7320
        56        2.0000           -0.6115928             -16.6423
        57        2.0000           -0.6024614             -16.3938
        58        2.0000           -0.5961535             -16.2222
        59        2.0000           -0.5909526             -16.0806
        60        2.0000           -0.5905217             -16.0689
        61        2.0000           -0.5894087             -16.0386
        62        2.0000           -0.5889107             -16.0251
        63        2.0000           -0.5846843             -15.9101
        64        2.0000           -0.5779812             -15.7277
        65        2.0000           -0.5522608             -15.0278 (HOMO)
        66                         -0.4647747             -12.6472 (LUMO)
        67                         -0.4342144             -11.8156
        68                         -0.3134360              -8.5290
        69                         -0.3101114              -8.4386
        70                         -0.1776188              -4.8333
        71                         -0.1646756              -4.4811
        72                         -0.1583846              -4.3099
        73                         -0.1401075              -3.8125
        74                         -0.1207691              -3.2863
        75                         -0.1129807              -3.0744
        76                         -0.0903454              -2.4584
       ...                                ...                  ...
       106                          0.6660015              18.1228
      -------------------------------------------------------------
                  HL-Gap            0.0874861 Eh            2.3806 eV

     #   Z          covCN         q      C6AA      α(0)
     1   9 F        0.787    -0.430    13.905     4.405
     2  16 S        3.172     1.882    84.754    15.495
     3   6 C        3.329     0.489    17.352     6.613
     4   6 C        3.517     0.314    16.996     6.083
     5   6 C        3.802    -0.097    22.347     6.730
     6   6 C        3.800    -0.083    22.090     6.692
     7   6 C        3.801    -0.079    22.017     6.681
     8   6 C        3.759    -0.043    21.384     6.593
     9   7 N        2.749     0.118    19.227     6.512
    10   6 C        2.894     0.031    27.301     8.567
    11   6 C        2.915    -0.009    28.237     8.714
    12   6 C        2.925     0.015    27.685     8.629
    13   6 C        2.915    -0.010    28.271     8.719
    14   6 C        2.891     0.031    27.308     8.568
    15   9 F        0.788    -0.207    11.306     3.972
    16   9 F        0.790    -0.194    11.178     3.949
    17   9 F        0.791    -0.172    10.951     3.909
    18   9 F        0.791    -0.151    10.741     3.871
    19   9 F        0.786    -0.501    14.858     4.553
    20   9 F        0.788    -0.404    13.578     4.353
    21   9 F        0.782    -0.557    15.665     4.675
    22   9 F        0.820    -0.222    11.458     3.999
    23   1 H        0.924     0.077     2.008     2.216
    24   1 H        0.924     0.121     1.608     1.983
    25   1 H        0.924     0.061     2.188     2.313
    26   1 H        0.925     0.100     1.783     2.088
    27   1 H        0.924     0.070     2.086     2.259
    28   1 H        0.925     0.094     1.838     2.120
    29   1 H        0.924     0.100     1.785     2.089
    30   1 H        0.925     0.100     1.785     2.089
    31   1 H        0.926     0.113     1.673     2.022
    32   1 H        0.926     0.112     1.682     2.028
    33   1 H        0.926     0.111     1.691     2.033
    34   1 H        0.926     0.111     1.687     2.031
    35   1 H        0.926     0.110     1.700     2.039

Wiberg/Mayer (AO) data.
largest (>0.10) Wiberg bond orders for each atom

     #   Z sym  total        # sym  WBO       # sym  WBO       # sym  WBO
 ---------------------------------------------------------------------------
     1   9 F    0.946 --     2 S    0.898
     2  16 S    3.403 --    20 F    0.943     1 F    0.898    19 F    0.812
                            21 F    0.719
     3   6 C    3.845 --    18 F    0.996    17 F    0.975    22 F    0.918
                             4 C    0.897
     4   6 C    3.859 --     5 C    0.967    16 F    0.960    15 F    0.944
                             3 C    0.897
     5   6 C    3.968 --     6 C    1.005     4 C    0.967    23 H    0.962
                            24 H    0.953
     6   6 C    3.985 --     7 C    1.012     5 C    1.005    25 H    0.969
                            26 H    0.961
     7   6 C    3.981 --     6 C    1.012     8 C    0.976    27 H    0.970
                            28 H    0.961
     8   6 C    3.933 --     7 C    0.976     9 N    0.965    30 H    0.960
                            29 H    0.959
     9   7 N    3.770 --    14 C    1.329    10 C    1.324     8 C    0.965
    10   6 C    3.958 --    11 C    1.467     9 N    1.324    31 H    0.954
    11   6 C    3.980 --    10 C    1.467    12 C    1.417    32 H    0.958
    12   6 C    3.968 --    13 C    1.425    11 C    1.417    33 H    0.960
    13   6 C    3.980 --    14 C    1.457    12 C    1.425    34 H    0.958
    14   6 C    3.958 --    13 C    1.457     9 N    1.329    35 H    0.953
    15   9 F    1.058 --     4 C    0.944
    16   9 F    1.070 --     4 C    0.960
    17   9 F    1.105 --     3 C    0.975
    18   9 F    1.129 --     3 C    0.996
    19   9 F    0.851 --     2 S    0.812
    20   9 F    0.986 --     2 S    0.943
    21   9 F    0.763 --     2 S    0.719
    22   9 F    1.071 --     3 C    0.918
    23   1 H    0.994 --     5 C    0.962
    24   1 H    0.985 --     5 C    0.953
    25   1 H    0.996 --     6 C    0.969
    26   1 H    0.989 --     6 C    0.961
    27   1 H    0.995 --     7 C    0.970
    28   1 H    0.990 --     7 C    0.961
    29   1 H    0.990 --     8 C    0.959
    30   1 H    0.990 --     8 C    0.960
    31   1 H    0.987 --    10 C    0.954
    32   1 H    0.987 --    11 C    0.958
    33   1 H    0.988 --    12 C    0.960
    34   1 H    0.987 --    13 C    0.958
    35   1 H    0.988 --    14 C    0.953
 ---------------------------------------------------------------------------

molecular dipole:
                 x           y           z       tot (Debye)
 q only:       -1.111       7.433       8.906
   full:       -1.086       7.339       8.966      29.580

           -------------------------------------------------
          | TOTAL ENERGY              -78.642818471406 Eh   |
          | GRADIENT NORM               0.000265353321 Eh/α |
          | HOMO-LUMO GAP               2.380618213730 eV   |
           -------------------------------------------------

 * finished run on 2024/12/20 at 07:19:38.588
