   * xtb version 6.7.1 (edcfbbe) compiled by 'conda@3ef47c1a292c' on 2024-11-25

   ID    Z sym.   atoms
    1    6 C      1, 3-5, 7-11
    2    8 O      2
    3    7 N      6
    4    1 H      12-25

          program call               : xtb C1338.xyz --opt --namespace C1338 --charge +1
          :  Hamiltonian                  GFN2-xTB          :
 * total energy  :   -33.0065078 Eh     change       -0.5217728E-09 Eh
 * total energy  :   -33.0108143 Eh     change       -0.4306487E-02 Eh
 * total energy  :   -33.0119254 Eh     change       -0.1111085E-02 Eh
 * total energy  :   -33.0119788 Eh     change       -0.5338542E-04 Eh
 * total energy  :   -33.0119983 Eh     change       -0.1949213E-04 Eh
 * total energy  :   -33.0120031 Eh     change       -0.4832575E-05 Eh
   *** GEOMETRY OPTIMIZATION CONVERGED AFTER 6 ITERATIONS ***

 final structure:
================
25
 xtb: 6.7.1 (edcfbbe)
C            1.20827534365339        0.11665607234693        0.24141189022635
O            0.37323323056452       -0.45646250128615        1.23829685385717
C            0.74366494345084       -1.52911540064044        1.89122087142865
C            1.95743154130697       -2.22647874888685        1.72608942581525
C            2.20441925082094       -3.34575257260520        2.47604821920523
N            1.32826693322911       -3.81707325379987        3.37428402788270
C            0.16604596858147       -3.16744355441113        3.55981303884283
C           -0.15369059025304       -2.04352384191027        2.85356519328125
C            1.63685748072333       -5.03119775998222        4.14422507859819
C            1.82011808850022       -6.21926366764590        3.20448097390066
C            2.85856199114973       -4.79876213677036        5.02818290573739
H            0.65739057148536        0.97348576547224       -0.14043827746617
H            1.39169794091267       -0.58938212841411       -0.57147251600692
H            2.15590277825442        0.45408286321380        0.66666467716805
H            2.70035095031255       -1.89696279650857        1.01854630292608
H            3.12926134460253       -3.88866093056596        2.35899843041553
H           -0.51387295699623       -3.57228409164332        4.29462015408338
H           -1.09087729597511       -1.53650587087060        3.01553631427837
H            0.77051158550981       -5.22067329721966        4.78456543429287
H            2.71745398142694       -6.12238060249791        2.59945534529885
H            1.91157968123743       -7.12742699092894        3.79301278789568
H            0.96190199711552       -6.32791977987225        2.54529364490926
H            2.72046741465576       -3.92277748130493        5.65774736744286
H            2.99967007021788       -5.66063431417015        5.67373137858611
H            3.76334775551305       -4.66930297909823        4.44048047740045

          :  Hamiltonian                  GFN2-xTB          :
         :: total energy             -33.012003096252 Eh    ::
         :: gradient norm              0.000891941503 Eh/a0 ::
         :: HOMO-LUMO gap              3.619199537583 eV    ::
         :: SCC energy               -33.502938025824 Eh    ::
         :: -> dispersion             -0.018452123791 Eh    ::
         :: repulsion energy           0.490934929571 Eh    ::

    * Orbital Energies and Occupations

         #    Occupation            Energy/Eh            Energy/eV
      -------------------------------------------------------------
         1        2.0000           -0.8920797             -24.2747
       ...           ...                  ...                  ...
        18        2.0000           -0.6641255             -18.0718
        19        2.0000           -0.6514888             -17.7279
        20        2.0000           -0.6464988             -17.5921
        21        2.0000           -0.6396073             -17.4046
        22        2.0000           -0.6226429             -16.9430
        23        2.0000           -0.6195929             -16.8600
        24        2.0000           -0.6077511             -16.5377
        25        2.0000           -0.6028146             -16.4034
        26        2.0000           -0.6025756             -16.3969
        27        2.0000           -0.6004220             -16.3383
        28        2.0000           -0.5922291             -16.1154
        29        2.0000           -0.5863728             -15.9560
        30        2.0000           -0.5679099             -15.4536 (HOMO)
        31                         -0.4349068             -11.8344 (LUMO)
        32                         -0.4157961             -11.3144
        33                         -0.2926169              -7.9625
        34                         -0.1776640              -4.8345
        35                         -0.1334815              -3.6322
        36                         -0.0668903              -1.8202
        37                         -0.0646398              -1.7589
        38                         -0.0473441              -1.2883
        39                         -0.0270195              -0.7352
        40                         -0.0176057              -0.4791
        41                         -0.0076031              -0.2069
       ...                                ...                  ...
        58                          0.4698840              12.7862
      -------------------------------------------------------------
                  HL-Gap            0.1330031 Eh            3.6192 eV

     #   Z          covCN         q      C6AA      α(0)
     1   6 C        3.645     0.006    20.812     6.557
     2   8 O        1.706    -0.178    16.998     5.567
     3   6 C        2.868     0.191    23.938     8.020
     4   6 C        2.912    -0.061    29.511     8.908
     5   6 C        2.888     0.035    27.223     8.554
     6   7 N        2.750     0.074    19.962     6.636
     7   6 C        2.886     0.030    27.337     8.572
     8   6 C        2.915    -0.046    29.140     8.852
     9   6 C        3.799     0.024    20.170     6.395
    10   6 C        3.754    -0.128    23.009     6.840
    11   6 C        3.754    -0.128    23.006     6.839
    12   1 H        0.925     0.107     1.721     2.052
    13   1 H        0.924     0.077     2.013     2.219
    14   1 H        0.924     0.077     2.008     2.216
    15   1 H        0.926     0.097     1.811     2.104
    16   1 H        0.926     0.108     1.712     2.046
    17   1 H        0.926     0.106     1.735     2.060
    18   1 H        0.926     0.113     1.668     2.020
    19   1 H        0.924     0.077     2.005     2.214
    20   1 H        0.925     0.064     2.154     2.295
    21   1 H        0.925     0.085     1.931     2.173
    22   1 H        0.925     0.061     2.191     2.315
    23   1 H        0.925     0.061     2.188     2.313
    24   1 H        0.925     0.085     1.930     2.173
    25   1 H        0.925     0.064     2.156     2.296

Wiberg/Mayer (AO) data.
largest (>0.10) Wiberg bond orders for each atom

     #   Z sym  total        # sym  WBO       # sym  WBO       # sym  WBO
 ---------------------------------------------------------------------------
     1   6 C    3.903 --    12 H    0.974    13 H    0.972    14 H    0.971
                             2 O    0.948
     2   8 O    2.401 --     3 C    1.227     1 C    0.948
     3   6 C    3.943 --     4 C    1.285     8 C    1.271     2 O    1.227
     4   6 C    3.985 --     5 C    1.523     3 C    1.285    15 H    0.958
     5   6 C    3.962 --     4 C    1.523     6 N    1.303    16 H    0.951
     6   7 N    3.732 --     5 C    1.303     7 C    1.286     9 C    0.933
     7   6 C    3.963 --     8 C    1.544     6 N    1.286    17 H    0.953
     8   6 C    3.982 --     7 C    1.544     3 C    1.271    18 H    0.956
     9   6 C    3.937 --    10 C    0.998    11 C    0.997    19 H    0.960
                             6 N    0.933
    10   6 C    3.981 --     9 C    0.998    22 H    0.983    20 H    0.980
                            21 H    0.976
    11   6 C    3.981 --     9 C    0.997    23 H    0.983    25 H    0.981
                            24 H    0.976
    12   1 H    0.988 --     1 C    0.974
    13   1 H    0.994 --     1 C    0.972
    14   1 H    0.994 --     1 C    0.971
    15   1 H    0.990 --     4 C    0.958
    16   1 H    0.988 --     5 C    0.951
    17   1 H    0.988 --     7 C    0.953
    18   1 H    0.987 --     8 C    0.956
    19   1 H    0.994 --     9 C    0.960
    20   1 H    0.996 --    10 C    0.980
    21   1 H    0.992 --    10 C    0.976
    22   1 H    0.996 --    10 C    0.983
    23   1 H    0.996 --    11 C    0.983
    24   1 H    0.992 --    11 C    0.976
    25   1 H    0.996 --    11 C    0.981
 ---------------------------------------------------------------------------

molecular dipole:
                 x           y           z       tot (Debye)
 q only:        2.782      -5.760       5.021
   full:        2.832      -5.749       4.984      20.635

           -------------------------------------------------
          | TOTAL ENERGY              -33.012003096252 Eh   |
          | GRADIENT NORM               0.000891941503 Eh/α |
          | HOMO-LUMO GAP               3.619199537583 eV   |
           -------------------------------------------------

 * finished run on 2024/12/20 at 07:20:09.426
