   * xtb version 6.7.1 (edcfbbe) compiled by 'conda@3ef47c1a292c' on 2024-11-25

   ID    Z sym.   atoms
    1    6 C      1-12, 14-19, 21, 23-31
    2    7 N      13, 20, 22
    3    1 H      32-73

          program call               : xtb C1333.xyz --opt --namespace C1333 --charge +1
          :  Hamiltonian                  GFN2-xTB          :
 * total energy  :   -89.8267743 Eh     change       -0.1860201E-08 Eh
 * total energy  :   -89.8323804 Eh     change       -0.5606132E-02 Eh
 * total energy  :   -89.8332388 Eh     change       -0.8583576E-03 Eh
 * total energy  :   -89.8335016 Eh     change       -0.2627970E-03 Eh
 * total energy  :   -89.8337461 Eh     change       -0.2445360E-03 Eh
 * total energy  :   -89.8339209 Eh     change       -0.1748136E-03 Eh
 * total energy  :   -89.8341486 Eh     change       -0.2276316E-03 Eh
 * total energy  :   -89.8344287 Eh     change       -0.2801020E-03 Eh
 * total energy  :   -89.8347301 Eh     change       -0.3014724E-03 Eh
 * total energy  :   -89.8350198 Eh     change       -0.2896560E-03 Eh
 * total energy  :   -89.8417516 Eh     change       -0.1939923E-04 Eh
 * total energy  :   -89.8417737 Eh     change       -0.2210638E-04 Eh
 * total energy  :   -89.8417993 Eh     change       -0.2559357E-04 Eh
 * total energy  :   -89.8418248 Eh     change       -0.2550682E-04 Eh
 * total energy  :   -89.8418486 Eh     change       -0.2377190E-04 Eh
 * total energy  :   -89.8418541 Eh     change       -0.5448227E-05 Eh
 * total energy  :   -89.8418605 Eh     change       -0.6485176E-05 Eh
 * total energy  :   -89.8418671 Eh     change       -0.6559445E-05 Eh
 * total energy  :   -89.8418719 Eh     change       -0.4777288E-05 Eh
   *** GEOMETRY OPTIMIZATION CONVERGED AFTER 97 ITERATIONS ***

 final structure:
================
73
 xtb: 6.7.1 (edcfbbe)
C            1.42177403849750       -0.01324505579817       -2.06506010513877
C            1.56177957894049       -1.51854977866696       -2.25874943338145
C            1.64942791265407       -2.29111952641713       -0.94166625121519
C            0.41898177729808       -2.17108838016281       -0.04028110974617
C           -0.88745746341654       -2.67004805497217       -0.66056566287454
C           -0.89049193197301       -4.14680021084392       -1.06097542136975
C           -0.60604140272996       -5.12887405735215        0.07812084164039
C           -1.53363709728695       -5.00582491814221        1.28893185714129
C           -3.01308880839617       -5.26409878858611        0.99321980927959
C           -3.34572708694614       -6.73225384417876        0.71419127604703
C           -3.36465445752187       -7.60501509347110        1.97201731790135
C           -4.59704448819205       -7.36913425934075        2.85267911857931
N           -5.81277815479651       -7.86919346946885        2.24447787144569
C           -6.74397828580593       -7.12347539988623        1.53121666524400
C           -6.80489340001894       -5.77824161738992        1.20705749796321
C           -7.89859737329040       -5.35585173609385        0.47323182696999
C           -8.89972980453142       -6.23924339355857        0.07770601050696
C           -8.84673356100552       -7.58340642924525        0.39958150451940
C           -7.75319528350652       -8.01213366340147        1.13279659868748
N           -7.40535225976826       -9.26647493801197        1.61976628714890
C           -6.23422933885354       -9.14735185357261        2.26777787574438
N           -5.60827279543491      -10.14361662318847        2.90384376718324
C           -8.22833025549143      -10.44965128119560        1.49416173687030
C           -8.07112334804665      -11.13667626876872        0.13493920654945
C           -6.70013035390848      -11.79036778085167       -0.06083049165898
C           -6.31814015492665      -12.76712627335066        1.02178066651662
C           -5.01918157693083      -12.76932356489106        1.52651282881328
C           -4.63760972404838      -13.66840859745569        2.51081732753405
C           -5.55425497858170      -14.57550669701786        3.01155190743682
C           -6.84562706552812      -14.58977690528866        2.51010074295641
C           -7.22363631585358      -13.69676049090497        1.52298723744957
H            0.46930333023579        0.23806865553524       -1.60518410011790
H            1.47712162581818        0.49626015444759       -3.02420246182262
H            2.22114291119415        0.36434441649271       -1.43116694027020
H            0.72475248713361       -1.88892362568513       -2.85345652591690
H            2.47400563015010       -1.71621336856235       -2.82669930562180
H            1.83506044484780       -3.34396682911697       -1.16473167305521
H            2.51285649024189       -1.92306606625297       -0.38178637046562
H            0.61627235214854       -2.72190958822953        0.88202724944297
H            0.28406757836078       -1.12445437925550        0.23814926453503
H           -1.69718144023032       -2.48513304687159        0.04950638137505
H           -1.10843759576543       -2.07862036287997       -1.55069811755211
H           -1.85989157480650       -4.37912894816440       -1.50934987461553
H           -0.13987570703620       -4.30720705373117       -1.83652629908779
H           -0.65946731717269       -6.14339012248264       -0.32452240426616
H            0.41736494728455       -4.98069713236135        0.42581107242803
H           -1.18792026280392       -5.70056387247519        2.05824315495053
H           -1.43801515000278       -4.00181190947364        1.70311799812871
H           -3.59795690034908       -4.90812092369591        1.84491419839819
H           -3.30988057269435       -4.66935455353690        0.12953227926742
H           -4.31574966437643       -6.79907486640331        0.21519790914343
H           -2.60225085505099       -7.13348396071825        0.02555941259165
H           -3.32625977732840       -8.65779760246099        1.68074617222400
H           -2.47780265426531       -7.39638352215861        2.57029265005388
H           -4.47134053474289       -7.84994227551776        3.82715207552409
H           -4.73469669209456       -6.30196770858942        3.02697950681503
H           -6.03601595580445       -5.08415382608359        1.50172819445506
H           -7.97769651965398       -4.31572899012239        0.20097040350925
H           -9.73536640942270       -5.86688696106205       -0.49253822815982
H           -9.62514100649635       -8.26135728838512        0.09099094551399
H           -4.70442473916848       -9.96333380791906        3.30758144099426
H           -5.79759327544385      -11.11031837441215        2.65381213665424
H           -7.97937874897849      -11.14215596078312        2.30122381674042
H           -9.26630569859520      -10.13407776555444        1.62567969140138
H           -8.85532436530414      -11.88804003944684        0.05111751313947
H           -8.22961623226269      -10.40610843143400       -0.65991884777357
H           -6.71395781229907      -12.32034866092864       -1.01679038966471
H           -5.93136662123481      -11.01643617817497       -0.13909432549849
H           -4.28556143538087      -12.08978218621891        1.11161966541656
H           -3.62208914795326      -13.66377915238109        2.87668244621613
H           -5.26091784660992      -15.27767975601673        3.77564733621763
H           -7.56040017660093      -15.30717788789537        2.88224323327222
H           -8.22780164759543      -13.73947729000475        1.13041041027598

          :  Hamiltonian                  GFN2-xTB          :
         :: total energy             -89.841871884677 Eh    ::
         :: gradient norm              0.000436969538 Eh/a0 ::
         :: HOMO-LUMO gap              2.432230286245 eV    ::
         :: SCC energy               -91.293236919804 Eh    ::
         :: -> dispersion             -0.074629925686 Eh    ::
         :: repulsion energy           1.451365035127 Eh    ::

    * Orbital Energies and Occupations

         #    Occupation            Energy/Eh            Energy/eV
      -------------------------------------------------------------
         1        2.0000           -0.8650489             -23.5392
       ...           ...                  ...                  ...
        72        2.0000           -0.5202219             -14.1560
        73        2.0000           -0.5168830             -14.0651
        74        2.0000           -0.5110609             -13.9067
        75        2.0000           -0.5077169             -13.8157
        76        2.0000           -0.5069033             -13.7935
        77        2.0000           -0.5009148             -13.6306
        78        2.0000           -0.5006634             -13.6237
        79        2.0000           -0.4901326             -13.3372
        80        2.0000           -0.4875053             -13.2657
        81        2.0000           -0.4834078             -13.1542
        82        2.0000           -0.4702929             -12.7973
        83        2.0000           -0.4658872             -12.6774
        84        2.0000           -0.4638780             -12.6228 (HOMO)
        85                         -0.3744952             -10.1905 (LUMO)
        86                         -0.3424108              -9.3175
        87                         -0.3306568              -8.9976
        88                         -0.3273208              -8.9069
        89                         -0.3260298              -8.8717
        90                         -0.2167772              -5.8988
        91                         -0.1984379              -5.3998
        92                         -0.1782888              -4.8515
        93                         -0.1249431              -3.3999
        94                         -0.1171253              -3.1871
        95                         -0.0574131              -1.5623
       ...                                ...                  ...
       166                          0.5639473              15.3458
      -------------------------------------------------------------
                  HL-Gap            0.0893828 Eh            2.4322 eV

     #   Z          covCN         q      C6AA      α(0)
     1   6 C        3.751    -0.102    22.516     6.767
     2   6 C        3.799    -0.052    21.517     6.605
     3   6 C        3.801    -0.058    21.613     6.619
     4   6 C        3.800    -0.058    21.614     6.619
     5   6 C        3.800    -0.057    21.607     6.618
     6   6 C        3.800    -0.058    21.616     6.620
     7   6 C        3.800    -0.059    21.631     6.622
     8   6 C        3.800    -0.061    21.665     6.627
     9   6 C        3.800    -0.061    21.672     6.628
    10   6 C        3.801    -0.063    21.718     6.635
    11   6 C        3.801    -0.067    21.787     6.646
    12   6 C        3.739    -0.014    20.902     6.523
    13   7 N        2.820    -0.031    21.832     6.940
    14   6 C        3.084     0.039    27.030     8.523
    15   6 C        2.911    -0.037    28.930     8.820
    16   6 C        2.926    -0.024    28.615     8.772
    17   6 C        2.926    -0.024    28.610     8.772
    18   6 C        2.910    -0.038    28.948     8.823
    19   6 C        3.092     0.036    27.089     8.531
    20   7 N        2.818    -0.027    21.771     6.930
    21   6 C        2.995     0.196    23.824     8.007
    22   7 N        2.637    -0.256    26.664     7.669
    23   6 C        3.739    -0.014    20.906     6.524
    24   6 C        3.801    -0.069    21.822     6.651
    25   6 C        3.806    -0.070    21.832     6.652
    26   6 C        2.966     0.001    28.001     8.680
    27   6 C        2.925    -0.054    29.347     8.884
    28   6 C        2.917    -0.032    28.802     8.801
    29   6 C        2.919    -0.028    28.707     8.786
    30   6 C        2.919    -0.026    28.644     8.777
    31   6 C        2.923    -0.041    29.018     8.834
    32   1 H        0.925     0.033     2.541     2.493
    33   1 H        0.925     0.033     2.538     2.491
    34   1 H        0.925     0.035     2.512     2.479
    35   1 H        0.924     0.029     2.597     2.520
    36   1 H        0.924     0.029     2.599     2.521
    37   1 H        0.924     0.028     2.622     2.532
    38   1 H        0.924     0.031     2.571     2.507
    39   1 H        0.924     0.027     2.632     2.537
    40   1 H        0.924     0.034     2.524     2.485
    41   1 H        0.924     0.024     2.675     2.558
    42   1 H        0.924     0.035     2.511     2.478
    43   1 H        0.924     0.023     2.692     2.566
    44   1 H        0.924     0.038     2.479     2.462
    45   1 H        0.924     0.024     2.672     2.556
    46   1 H        0.924     0.040     2.450     2.448
    47   1 H        0.924     0.026     2.651     2.546
    48   1 H        0.924     0.043     2.405     2.425
    49   1 H        0.924     0.021     2.712     2.575
    50   1 H        0.925     0.047     2.363     2.404
    51   1 H        0.924     0.028     2.622     2.532
    52   1 H        0.925     0.054     2.274     2.358
    53   1 H        0.924     0.033     2.544     2.494
    54   1 H        0.925     0.065     2.138     2.287
    55   1 H        0.924     0.059     2.213     2.326
    56   1 H        0.925     0.086     1.920     2.167
    57   1 H        0.926     0.067     2.123     2.279
    58   1 H        0.926     0.071     2.073     2.252
    59   1 H        0.926     0.071     2.077     2.254
    60   1 H        0.926     0.062     2.171     2.304
    61   1 H        0.860     0.213     1.042     1.599
    62   1 H        0.860     0.226     0.983     1.553
    63   1 H        0.924     0.069     2.097     2.265
    64   1 H        0.924     0.079     1.994     2.208
    65   1 H        0.925     0.066     2.125     2.280
    66   1 H        0.924     0.056     2.243     2.342
    67   1 H        0.924     0.067     2.122     2.278
    68   1 H        0.924     0.033     2.542     2.493
    69   1 H        0.925     0.026     2.651     2.546
    70   1 H        0.926     0.042     2.427     2.436
    71   1 H        0.926     0.049     2.331     2.388
    72   1 H        0.926     0.049     2.335     2.389
    73   1 H        0.926     0.041     2.441     2.443

Wiberg/Mayer (AO) data.
largest (>0.10) Wiberg bond orders for each atom

     #   Z sym  total        # sym  WBO       # sym  WBO       # sym  WBO
 ---------------------------------------------------------------------------
     1   6 C    3.997 --     2 C    1.020    34 H    0.987    33 H    0.987
                            32 H    0.986
     2   6 C    3.998 --     1 C    1.020     3 C    1.008    36 H    0.978
                            35 H    0.976
     3   6 C    3.997 --     2 C    1.008     4 C    1.008    38 H    0.977
                            37 H    0.976
     4   6 C    3.997 --     5 C    1.008     3 C    1.008    39 H    0.975
                            40 H    0.975
     5   6 C    3.997 --     4 C    1.008     6 C    1.008    41 H    0.975
                            42 H    0.974
     6   6 C    3.997 --     5 C    1.008     7 C    1.007    43 H    0.975
                            44 H    0.974
     7   6 C    3.996 --     8 C    1.008     6 C    1.007    46 H    0.974
                            45 H    0.974
     8   6 C    3.996 --     7 C    1.008     9 C    1.007    47 H    0.973
                            48 H    0.973
     9   6 C    3.996 --    10 C    1.007     8 C    1.007    50 H    0.972
                            49 H    0.972
    10   6 C    3.993 --     9 C    1.007    11 C    1.007    51 H    0.976
                            52 H    0.971
    11   6 C    3.988 --    10 C    1.007    12 C    0.992    53 H    0.976
                            54 H    0.966
    12   6 C    3.946 --    11 C    0.992    13 N    0.969    55 H    0.964
                            56 H    0.959
    13   7 N    3.598 --    21 C    1.263    14 C    1.090    12 C    0.969
    14   6 C    3.951 --    15 C    1.365    19 C    1.287    13 N    1.090
    15   6 C    3.986 --    16 C    1.465    14 C    1.365    57 H    0.961
                            18 C    0.114
    16   6 C    3.982 --    15 C    1.465    17 C    1.407    58 H    0.967
    17   6 C    3.982 --    18 C    1.465    16 C    1.407    59 H    0.967
    18   6 C    3.986 --    17 C    1.465    19 C    1.367    60 H    0.964
                            15 C    0.114
    19   6 C    3.950 --    18 C    1.367    14 C    1.287    20 N    1.089
    20   7 N    3.600 --    21 C    1.266    19 C    1.089    23 C    0.971
    21   6 C    3.971 --    22 N    1.271    20 N    1.266    13 N    1.263
    22   7 N    3.346 --    21 C    1.271    61 H    0.929    62 H    0.887
    23   6 C    3.948 --    24 C    0.993    20 N    0.971    64 H    0.963
                            63 H    0.963
    24   6 C    3.989 --    25 C    1.001    23 C    0.993    66 H    0.974
                            65 H    0.968
    25   6 C    3.994 --    26 C    1.010    24 C    1.001    68 H    0.975
                            67 H    0.956
    26   6 C    3.988 --    31 C    1.406    27 C    1.397    25 C    1.010
                            29 C    0.108
    27   6 C    3.991 --    28 C    1.430    26 C    1.397    69 H    0.967
                            30 C    0.108
    28   6 C    3.991 --    29 C    1.444    27 C    1.430    70 H    0.970
                            31 C    0.111
    29   6 C    3.991 --    28 C    1.444    30 C    1.434    71 H    0.970
                            26 C    0.108
    30   6 C    3.991 --    31 C    1.449    29 C    1.434    72 H    0.970
                            27 C    0.108
    31   6 C    3.992 --    30 C    1.449    26 C    1.406    73 H    0.966
                            28 C    0.111
    32   1 H    0.999 --     1 C    0.986
    33   1 H    0.999 --     1 C    0.987
    34   1 H    0.999 --     1 C    0.987
    35   1 H    0.999 --     2 C    0.976
    36   1 H    0.999 --     2 C    0.978
    37   1 H    0.999 --     3 C    0.976
    38   1 H    0.999 --     3 C    0.977
    39   1 H    0.999 --     4 C    0.975
    40   1 H    0.999 --     4 C    0.975
    41   1 H    0.999 --     5 C    0.975
    42   1 H    0.999 --     5 C    0.974
    43   1 H    0.999 --     6 C    0.975
    44   1 H    0.999 --     6 C    0.974
    45   1 H    0.999 --     7 C    0.974
    46   1 H    0.998 --     7 C    0.974
    47   1 H    0.999 --     8 C    0.973
    48   1 H    0.998 --     8 C    0.973
    49   1 H    1.000 --     9 C    0.972
    50   1 H    0.998 --     9 C    0.972
    51   1 H    0.999 --    10 C    0.976
    52   1 H    0.997 --    10 C    0.971
    53   1 H    0.999 --    11 C    0.976
    54   1 H    0.995 --    11 C    0.966
    55   1 H    0.996 --    12 C    0.964
    56   1 H    0.992 --    12 C    0.959
    57   1 H    0.995 --    15 C    0.961
    58   1 H    0.995 --    16 C    0.967
    59   1 H    0.995 --    17 C    0.967
    60   1 H    0.996 --    18 C    0.964
    61   1 H    0.954 --    22 N    0.929
    62   1 H    0.948 --    22 N    0.887
    63   1 H    0.995 --    23 C    0.963
    64   1 H    0.993 --    23 C    0.963
    65   1 H    0.995 --    24 C    0.968
    66   1 H    0.996 --    24 C    0.974
    67   1 H    0.995 --    25 C    0.956
    68   1 H    0.999 --    25 C    0.975
    69   1 H    0.999 --    27 C    0.967
    70   1 H    0.998 --    28 C    0.970
    71   1 H    0.997 --    29 C    0.970
    72   1 H    0.997 --    30 C    0.970
    73   1 H    0.998 --    31 C    0.966
 ---------------------------------------------------------------------------

molecular dipole:
                 x           y           z       tot (Debye)
 q only:      -11.750     -16.821       3.373
   full:      -11.624     -17.089       3.450      53.260

           -------------------------------------------------
          | TOTAL ENERGY              -89.841871884677 Eh   |
          | GRADIENT NORM               0.000436969538 Eh/α |
          | HOMO-LUMO GAP               2.432230286245 eV   |
           -------------------------------------------------

 * finished run on 2024/12/20 at 07:20:04.974
