   * xtb version 6.7.1 (edcfbbe) compiled by 'conda@3ef47c1a292c' on 2024-11-25

   ID    Z sym.   atoms
    1    6 C      1-4, 6, 8, 10, 11, 13-15
    2    7 N      5, 9, 12
    3    8 O      7
    4    1 H      16-35

          program call               : xtb C1334.xyz --opt --namespace C1334 --charge +1
          :  Hamiltonian                  GFN2-xTB          :
 * total energy  :   -46.2337614 Eh     change       -0.5212257E-09 Eh
 * total energy  :   -46.2407946 Eh     change       -0.7033186E-02 Eh
 * total energy  :   -46.2427556 Eh     change       -0.1961030E-02 Eh
 * total energy  :   -46.2431124 Eh     change       -0.3567526E-03 Eh
 * total energy  :   -46.2433680 Eh     change       -0.2556040E-03 Eh
 * total energy  :   -46.2435273 Eh     change       -0.1593325E-03 Eh
 * total energy  :   -46.2437654 Eh     change       -0.2380727E-03 Eh
 * total energy  :   -46.2440646 Eh     change       -0.2992240E-03 Eh
 * total energy  :   -46.2444344 Eh     change       -0.3698161E-03 Eh
 * total energy  :   -46.2448233 Eh     change       -0.3889131E-03 Eh
 * total energy  :   -46.2489067 Eh     change       -0.8284902E-05 Eh
 * total energy  :   -46.2489147 Eh     change       -0.7962070E-05 Eh
 * total energy  :   -46.2489219 Eh     change       -0.7233027E-05 Eh
 * total energy  :   -46.2489284 Eh     change       -0.6473381E-05 Eh
 * total energy  :   -46.2489343 Eh     change       -0.5935254E-05 Eh
 * total energy  :   -46.2489400 Eh     change       -0.5638386E-05 Eh
 * total energy  :   -46.2489455 Eh     change       -0.5511742E-05 Eh
 * total energy  :   -46.2489509 Eh     change       -0.5429918E-05 Eh
 * total energy  :   -46.2489546 Eh     change       -0.3745586E-05 Eh
   *** GEOMETRY OPTIMIZATION CONVERGED AFTER 68 ITERATIONS ***

 final structure:
================
35
 xtb: 6.7.1 (edcfbbe)
C            0.46394525728989       -0.81915201863636        0.47565346456531
C            1.04379262580041        0.56156802206068        0.19363761429470
C            1.26785213075677        0.83510541121113       -1.29501414956446
C           -0.01482583413326        0.93822034535736       -2.13348355216593
N           -0.90607646226950        2.01233514923892       -1.72806848973659
C           -0.77176700694692        3.28935073013195       -2.07025010133037
O           -1.50337015475565        4.19471405649010       -1.70836391245453
C            0.39105276810116        3.65234791553780       -3.05332452234317
N            0.57699316819497        5.06848677373654       -2.96195519565497
C            1.63592814411842        5.71956875604115       -2.39996399615986
C            1.28834508036018        7.02845510406221       -2.28222702703487
N            0.01667819442325        7.15608914973297       -2.75831445435120
C           -0.39844491780197        5.95744760473522       -3.15444923195200
C           -0.73737766746027        8.37930686864703       -2.79486921938339
C           -2.06213168630139        1.63560979017752       -0.93251647874053
H           -0.52835589428265       -0.94110833188552        0.04885599225670
H            0.38848278561738       -0.97687921926443        1.54809875037286
H            1.10990932358722       -1.59100722475377        0.06461087934046
H            0.40397746045317        1.33727898020032        0.61887268010835
H            2.01155969254760        0.63647894039804        0.69332748749810
H            1.85080949372761        1.75418568528866       -1.38585836370343
H            1.86512195485689        0.02543412798307       -1.71797000096039
H            0.24880520558391        1.05471248428280       -3.18842836734590
H           -0.57316874802542        0.00665584378953       -2.03895085155178
H            1.32447759019633        3.15013732042714       -2.81048554397083
H            0.07160626819187        3.37163165953427       -4.06137186056272
H            2.54586134927189        5.22153749325551       -2.13474878066305
H            1.84520027368665        7.85806761101833       -1.89724646553546
H           -1.35745036290912        5.74422909070801       -3.58277641002142
H           -0.21574937130669        9.12551864276112       -3.39513052728189
H           -1.71887228817188        8.19398276903430       -3.22444698056225
H           -0.86192335340741        8.77034363852625       -1.78440731834352
H           -2.70565382292379        0.97064772741180       -1.51046563946361
H           -1.75256081059944        1.13026376325945       -0.02040171261315
H           -2.61683038549682        2.53488533947691       -0.67479771500663

          :  Hamiltonian                  GFN2-xTB          :
         :: total energy             -46.248954641540 Eh    ::
         :: gradient norm              0.000167144686 Eh/a0 ::
         :: HOMO-LUMO gap              3.352230854003 eV    ::
         :: SCC energy               -46.892751991139 Eh    ::
         :: -> dispersion             -0.028445735258 Eh    ::
         :: repulsion energy           0.643797349599 Eh    ::

    * Orbital Energies and Occupations

         #    Occupation            Energy/Eh            Energy/eV
      -------------------------------------------------------------
         1        2.0000           -0.8804796             -23.9591
       ...           ...                  ...                  ...
        30        2.0000           -0.6147159             -16.7273
        31        2.0000           -0.5995549             -16.3147
        32        2.0000           -0.5950511             -16.1922
        33        2.0000           -0.5898730             -16.0513
        34        2.0000           -0.5827958             -15.8587
        35        2.0000           -0.5789705             -15.7546
        36        2.0000           -0.5728029             -15.5868
        37        2.0000           -0.5646813             -15.3658
        38        2.0000           -0.5407482             -14.7145
        39        2.0000           -0.5341753             -14.5356
        40        2.0000           -0.5334538             -14.5160
        41        2.0000           -0.5275428             -14.3552
        42        2.0000           -0.5127988             -13.9540 (HOMO)
        43                         -0.3896066             -10.6017 (LUMO)
        44                         -0.3585952              -9.7579
        45                         -0.3386015              -9.2138
        46                         -0.1681893              -4.5767
        47                         -0.1364393              -3.7127
        48                         -0.1115258              -3.0348
        49                         -0.0916126              -2.4929
        50                         -0.0508523              -1.3838
        51                         -0.0365630              -0.9949
        52                         -0.0348981              -0.9496
        53                         -0.0131484              -0.3578
       ...                                ...                  ...
        80                          0.4932829              13.4229
      -------------------------------------------------------------
                  HL-Gap            0.1231922 Eh            3.3522 eV

     #   Z          covCN         q      C6AA      α(0)
     1   6 C        3.751    -0.111    22.691     6.793
     2   6 C        3.799    -0.057    21.609     6.619
     3   6 C        3.800    -0.067    21.784     6.645
     4   6 C        3.743    -0.021    21.022     6.541
     5   7 N        2.730    -0.058    22.367     7.024
     6   6 C        2.768     0.259    22.647     7.794
     7   8 O        0.858    -0.442    22.531     6.364
     8   6 C        3.744    -0.052    21.575     6.626
     9   7 N        2.874     0.071    20.008     6.643
    10   6 C        3.065    -0.008    28.160     8.702
    11   6 C        3.070    -0.009    28.177     8.704
    12   7 N        2.868     0.077    19.894     6.624
    13   6 C        3.092     0.062    26.513     8.440
    14   6 C        3.693    -0.085    22.320     6.760
    15   6 C        3.707    -0.063    21.860     6.683
    16   1 H        0.925     0.036     2.501     2.473
    17   1 H        0.925     0.049     2.330     2.387
    18   1 H        0.925     0.046     2.372     2.409
    19   1 H        0.924     0.036     2.503     2.474
    20   1 H        0.924     0.046     2.367     2.406
    21   1 H        0.924     0.027     2.628     2.535
    22   1 H        0.924     0.060     2.202     2.320
    23   1 H        0.924     0.048     2.343     2.394
    24   1 H        0.925     0.083     1.947     2.182
    25   1 H        0.925     0.095     1.830     2.115
    26   1 H        0.924     0.092     1.856     2.130
    27   1 H        0.926     0.101     1.778     2.085
    28   1 H        0.926     0.107     1.723     2.053
    29   1 H        0.926     0.127     1.561     1.954
    30   1 H        0.924     0.103     1.760     2.075
    31   1 H        0.925     0.100     1.783     2.088
    32   1 H        0.924     0.107     1.722     2.052
    33   1 H        0.924     0.068     2.112     2.272
    34   1 H        0.925     0.080     1.975     2.197
    35   1 H        0.925     0.094     1.837     2.119

Wiberg/Mayer (AO) data.
largest (>0.10) Wiberg bond orders for each atom

     #   Z sym  total        # sym  WBO       # sym  WBO       # sym  WBO
 ---------------------------------------------------------------------------
     1   6 C    3.994 --     2 C    1.021    18 H    0.986    17 H    0.985
                            16 H    0.983
     2   6 C    3.995 --     1 C    1.021     3 C    1.007    20 H    0.976
                            19 H    0.975
     3   6 C    3.992 --     2 C    1.007     4 C    0.993    21 H    0.971
                            22 H    0.971
     4   6 C    3.959 --     3 C    0.993     5 N    0.978    23 H    0.968
                            24 H    0.965
     5   7 N    3.557 --     6 C    1.335    15 C    0.982     4 C    0.978
                             7 O    0.206
     6   6 C    3.965 --     7 O    1.635     5 N    1.335     8 C    0.900
     7   8 O    2.029 --     6 C    1.635     5 N    0.206
     8   6 C    3.946 --     9 N    0.999    25 H    0.956    26 H    0.948
                             6 C    0.900
     9   7 N    3.705 --    13 C    1.339    10 C    1.210     8 C    0.999
    10   6 C    3.947 --    11 C    1.605     9 N    1.210    27 H    0.962
    11   6 C    3.948 --    10 C    1.605    12 N    1.216    28 H    0.962
    12   7 N    3.716 --    13 C    1.363    11 C    1.216    14 C    0.991
    13   6 C    3.945 --    12 N    1.363     9 N    1.339    29 H    0.951
    14   6 C    3.935 --    12 N    0.991    31 H    0.976    30 H    0.965
                            32 H    0.962
    15   6 C    3.947 --     5 N    0.982    35 H    0.973    33 H    0.973
                            34 H    0.969
    16   1 H    0.999 --     1 C    0.983
    17   1 H    0.998 --     1 C    0.985
    18   1 H    0.998 --     1 C    0.986
    19   1 H    0.999 --     2 C    0.975
    20   1 H    0.998 --     2 C    0.976
    21   1 H    0.999 --     3 C    0.971
    22   1 H    0.996 --     3 C    0.971
    23   1 H    0.998 --     4 C    0.968
    24   1 H    0.993 --     4 C    0.965
    25   1 H    0.991 --     8 C    0.956
    26   1 H    0.991 --     8 C    0.948
    27   1 H    0.989 --    10 C    0.962
    28   1 H    0.989 --    11 C    0.962
    29   1 H    0.984 --    13 C    0.951
    30   1 H    0.989 --    14 C    0.965
    31   1 H    0.990 --    14 C    0.976
    32   1 H    0.988 --    14 C    0.962
    33   1 H    0.995 --    15 C    0.973
    34   1 H    0.993 --    15 C    0.969
    35   1 H    0.991 --    15 C    0.973
 ---------------------------------------------------------------------------

molecular dipole:
                 x           y           z       tot (Debye)
 q only:        0.618       9.156      -4.926
   full:        0.734       9.048      -5.124      26.496

           -------------------------------------------------
          | TOTAL ENERGY              -46.248954641540 Eh   |
          | GRADIENT NORM               0.000167144686 Eh/α |
          | HOMO-LUMO GAP               3.352230854003 eV   |
           -------------------------------------------------

 * finished run on 2024/12/20 at 07:20:06.525
