   * xtb version 6.7.1 (edcfbbe) compiled by 'conda@3ef47c1a292c' on 2024-11-25

   ID    Z sym.   atoms
    1    6 C      1-3, 5-10
    2    7 N      4
    3    1 H      11-24

          program call               : xtb C1332.xyz --opt --namespace C1332 --charge +1
          :  Hamiltonian                  GFN2-xTB          :
 * total energy  :   -28.9279264 Eh     change       -0.3771561E-10 Eh
 * total energy  :   -28.9303456 Eh     change       -0.2419177E-02 Eh
 * total energy  :   -28.9308466 Eh     change       -0.5010444E-03 Eh
 * total energy  :   -28.9309929 Eh     change       -0.1462334E-03 Eh
 * total energy  :   -28.9311034 Eh     change       -0.1104944E-03 Eh
 * total energy  :   -28.9311842 Eh     change       -0.8083885E-04 Eh
 * total energy  :   -28.9312654 Eh     change       -0.8114143E-04 Eh
 * total energy  :   -28.9313544 Eh     change       -0.8908345E-04 Eh
 * total energy  :   -28.9314150 Eh     change       -0.6056485E-04 Eh
 * total energy  :   -28.9314344 Eh     change       -0.1943569E-04 Eh
 * total energy  :   -28.9314374 Eh     change       -0.2981113E-05 Eh
   *** GEOMETRY OPTIMIZATION CONVERGED AFTER 11 ITERATIONS ***

 final structure:
================
24
 xtb: 6.7.1 (edcfbbe)
C            1.39457397071805       -0.03637906083127       -0.20462470644839
C            0.56254095665066        0.44137070375120       -1.38972699988001
C            0.82045623448240       -0.41498447428347       -2.65422767584366
N            0.45343008311200       -1.80060583131167       -2.45025452028524
C            1.35340330102820       -2.66187117512683       -1.96094259464993
C            1.01056584514738       -3.96542081410633       -1.66651249765428
C           -0.29496310183407       -4.38927360815335       -1.87856134998093
C           -1.21232615597996       -3.48368868859718       -2.39542428159101
C           -0.80621984594288       -2.19452612986111       -2.67234623485744
C           -0.91885275994081        0.49415091421412       -1.03309296698159
H            1.09002588453936       -1.02754899236880        0.12742087862291
H            1.25722166730865        0.64361989464650        0.63086805422888
H            2.45437390031797       -0.05059063317394       -0.44617718444045
H            0.88908725873941        1.45044214775153       -1.65700135492582
H            0.23815105857760       -0.01171055951484       -3.48452891539050
H            1.87992230696714       -0.36333773850521       -2.91061810470962
H            2.35959319801450       -2.29845135623372       -1.81565795560973
H            1.75817904196604       -4.63778428997456       -1.27732790561946
H           -0.58835368279334       -5.40214063394466       -1.65320608731693
H           -2.23363948053362       -3.77257156054213       -2.58477582328465
H           -1.48753432695260       -1.46664594544332       -3.08624513298602
H           -1.06712917036990        1.18534645961016       -0.20859659105846
H           -1.51426043660303        0.84922403812883       -1.87077891946691
H           -1.29128574661951       -0.47828266613005       -0.71486112987035

          :  Hamiltonian                  GFN2-xTB          :
         :: total energy             -28.931437418684 Eh    ::
         :: gradient norm              0.000479266743 Eh/a0 ::
         :: HOMO-LUMO gap              3.108840118413 eV    ::
         :: SCC energy               -29.418351248468 Eh    ::
         :: -> dispersion             -0.018421481731 Eh    ::
         :: repulsion energy           0.486913829784 Eh    ::

    * Orbital Energies and Occupations

         #    Occupation            Energy/Eh            Energy/eV
      -------------------------------------------------------------
         1        2.0000           -0.8804824             -23.9591
       ...           ...                  ...                  ...
        15        2.0000           -0.6793779             -18.4868
        16        2.0000           -0.6588089             -17.9271
        17        2.0000           -0.6569576             -17.8767
        18        2.0000           -0.6388111             -17.3829
        19        2.0000           -0.6277028             -17.0807
        20        2.0000           -0.6240256             -16.9806
        21        2.0000           -0.6222803             -16.9331
        22        2.0000           -0.6187345             -16.8366
        23        2.0000           -0.6073589             -16.5271
        24        2.0000           -0.5922288             -16.1154
        25        2.0000           -0.5824726             -15.8499
        26        2.0000           -0.5792274             -15.7616
        27        2.0000           -0.5733332             -15.6012 (HOMO)
        28                         -0.4590854             -12.4923 (LUMO)
        29                         -0.4288611             -11.6699
        30                         -0.3084557              -8.3935
        31                         -0.1683905              -4.5821
        32                         -0.0894287              -2.4335
        33                         -0.0735213              -2.0006
        34                         -0.0579962              -1.5782
        35                         -0.0362716              -0.9870
        36                         -0.0261844              -0.7125
        37                         -0.0154200              -0.4196
        38                         -0.0122286              -0.3328
       ...                                ...                  ...
        54                          0.4474743              12.1764
      -------------------------------------------------------------
                  HL-Gap            0.1142478 Eh            3.1088 eV

     #   Z          covCN         q      C6AA      α(0)
     1   6 C        3.755    -0.123    22.905     6.824
     2   6 C        3.849    -0.015    20.807     6.488
     3   6 C        3.761    -0.043    21.388     6.593
     4   7 N        2.749     0.119    19.203     6.508
     5   6 C        2.893     0.033    27.271     8.562
     6   6 C        2.916    -0.011    28.292     8.722
     7   6 C        2.925     0.013    27.729     8.635
     8   6 C        2.916    -0.011    28.293     8.722
     9   6 C        2.893     0.032    27.274     8.562
    10   6 C        3.755    -0.123    22.911     6.825
    11   1 H        0.925     0.038     2.475     2.460
    12   1 H        0.925     0.074     2.044     2.236
    13   1 H        0.925     0.051     2.312     2.378
    14   1 H        0.924     0.076     2.022     2.224
    15   1 H        0.924     0.092     1.864     2.135
    16   1 H        0.924     0.091     1.868     2.137
    17   1 H        0.926     0.111     1.684     2.029
    18   1 H        0.926     0.107     1.722     2.052
    19   1 H        0.926     0.106     1.729     2.056
    20   1 H        0.926     0.107     1.723     2.053
    21   1 H        0.926     0.112     1.679     2.026
    22   1 H        0.925     0.074     2.044     2.236
    23   1 H        0.925     0.051     2.312     2.378
    24   1 H        0.925     0.039     2.462     2.454

Wiberg/Mayer (AO) data.
largest (>0.10) Wiberg bond orders for each atom

     #   Z sym  total        # sym  WBO       # sym  WBO       # sym  WBO
 ---------------------------------------------------------------------------
     1   6 C    3.991 --     2 C    1.013    13 H    0.984    11 H    0.982
                            12 H    0.978
     2   6 C    3.982 --    10 C    1.013     1 C    1.013    14 H    0.955
                             3 C    0.951
     3   6 C    3.933 --     4 N    0.971    16 H    0.963    15 H    0.962
                             2 C    0.951
     4   7 N    3.770 --     5 C    1.323     9 C    1.323     3 C    0.971
     5   6 C    3.958 --     6 C    1.461     4 N    1.323    17 H    0.953
     6   6 C    3.981 --     5 C    1.461     7 C    1.422    18 H    0.959
     7   6 C    3.969 --     8 C    1.422     6 C    1.422    19 H    0.961
     8   6 C    3.981 --     9 C    1.461     7 C    1.422    20 H    0.959
     9   6 C    3.958 --     8 C    1.461     4 N    1.323    21 H    0.953
    10   6 C    3.991 --     2 C    1.013    23 H    0.984    24 H    0.982
                            22 H    0.977
    11   1 H    0.999 --     1 C    0.982
    12   1 H    0.994 --     1 C    0.978
    13   1 H    0.997 --     1 C    0.984
    14   1 H    0.992 --     2 C    0.955
    15   1 H    0.991 --     3 C    0.962
    16   1 H    0.991 --     3 C    0.963
    17   1 H    0.988 --     5 C    0.953
    18   1 H    0.988 --     6 C    0.959
    19   1 H    0.989 --     7 C    0.961
    20   1 H    0.988 --     8 C    0.959
    21   1 H    0.987 --     9 C    0.953
    22   1 H    0.994 --    10 C    0.977
    23   1 H    0.997 --    10 C    0.984
    24   1 H    0.998 --    10 C    0.982
 ---------------------------------------------------------------------------

molecular dipole:
                 x           y           z       tot (Debye)
 q only:        0.501      -3.953      -3.953
   full:        0.518      -3.994      -4.022      14.468

           -------------------------------------------------
          | TOTAL ENERGY              -28.931437418684 Eh   |
          | GRADIENT NORM               0.000479266743 Eh/α |
          | HOMO-LUMO GAP               3.108840118413 eV   |
           -------------------------------------------------

 * finished run on 2024/12/20 at 07:19:57.369
