   * xtb version 6.7.1 (edcfbbe) compiled by 'conda@3ef47c1a292c' on 2024-11-25

   ID    Z sym.   atoms
    1    6 C      1, 2, 4, 5, 7-10, 12
    2    8 O      3, 11
    3    7 N      6
    4    1 H      13-34

          program call               : xtb C1336.xyz --opt --namespace C1336 --charge +1
          :  Hamiltonian                  GFN2-xTB          :
 * total energy  :   -41.1226949 Eh     change       -0.5033485E-10 Eh
 * total energy  :   -41.1316023 Eh     change       -0.8907372E-02 Eh
 * total energy  :   -41.1344808 Eh     change       -0.2878525E-02 Eh
 * total energy  :   -41.1349314 Eh     change       -0.4506602E-03 Eh
 * total energy  :   -41.1354527 Eh     change       -0.5212480E-03 Eh
 * total energy  :   -41.1356732 Eh     change       -0.2205453E-03 Eh
 * total energy  :   -41.1358707 Eh     change       -0.1974643E-03 Eh
 * total energy  :   -41.1360349 Eh     change       -0.1642202E-03 Eh
 * total energy  :   -41.1362204 Eh     change       -0.1854440E-03 Eh
 * total energy  :   -41.1364081 Eh     change       -0.1877057E-03 Eh
 * total energy  :   -41.1376007 Eh     change       -0.2928020E-04 Eh
 * total energy  :   -41.1376123 Eh     change       -0.1154823E-04 Eh
 * total energy  :   -41.1376208 Eh     change       -0.8499213E-05 Eh
 * total energy  :   -41.1376277 Eh     change       -0.6883786E-05 Eh
 * total energy  :   -41.1376353 Eh     change       -0.7660063E-05 Eh
 * total energy  :   -41.1376450 Eh     change       -0.9637736E-05 Eh
 * total energy  :   -41.1376518 Eh     change       -0.6866181E-05 Eh
 * total energy  :   -41.1376582 Eh     change       -0.6403335E-05 Eh
 * total energy  :   -41.1376623 Eh     change       -0.4091698E-05 Eh
   *** GEOMETRY OPTIMIZATION CONVERGED AFTER 37 ITERATIONS ***

 final structure:
================
34
 xtb: 6.7.1 (edcfbbe)
C            0.65958321243861       -0.35751244911498        2.09154426449585
C            0.29945695427864       -1.28783061236376        0.94086030533968
O            1.01270255365949       -1.01752871476846       -0.26088149149552
C            2.39243294262886       -1.30041453353016       -0.21465147728693
C            2.95262619160810       -1.50412625393724       -1.62671382036298
N            2.65962412713917       -0.41232570978631       -2.60791796636683
C            2.78254734670102        0.91077791906008       -1.96842670468075
C            3.63928064973254       -0.50223131630778       -3.70618358686224
C            1.26358615927792       -0.54984554646306       -3.12903786005917
C            1.05189305184222       -1.60831730356992       -4.21463687843767
O            1.55399982286001       -2.85909092200075       -3.80587885030298
C            1.16445728966231       -3.92409624083730       -4.65115457125890
H           -0.01365297085069       -0.54553964611064        2.92195728837220
H            0.55297268945207        0.68155987471983        1.78900537608387
H            1.67765734880184       -0.52560235225895        2.43452375215023
H            0.46159094336073       -2.33351933872912        1.23215288673267
H           -0.74800090499108       -1.15666533850360        0.66271617266338
H            2.93299166746878       -0.50169029122525        0.31176591521096
H            2.57037526231750       -2.23711504295241        0.33257903791100
H            4.03566239236204       -1.60217313948390       -1.53555559895453
H            2.54314314288406       -2.42124968072442       -2.05274393507344
H            3.74852969387312        0.99728424860442       -1.47402476083540
H            2.70452180343202        1.69552703255933       -2.71878750842718
H            1.98703391966350        1.04067343803254       -1.23774529101014
H            3.65141889975120       -1.51298346846237       -4.10828741487091
H            3.37940390695095        0.20069165076988       -4.49571432887638
H            4.63450082751890       -0.25899763210410       -3.33803797677208
H            0.63560074035303       -0.78235172547142       -2.26716856420126
H            0.95735460306777        0.40986232747649       -3.54853350342573
H           -0.03299035731567       -1.67109375711919       -4.38537434090835
H            1.51476915200714       -1.30994953666490       -5.16778096165681
H            1.52592166071566       -3.76686938024348       -5.67194220478836
H            1.61544631037845       -4.82218896735346       -4.23717248296301
H            0.07648896698032       -4.03258759112750       -4.66764291908630

          :  Hamiltonian                  GFN2-xTB          :
         :: total energy             -41.137662315118 Eh    ::
         :: gradient norm              0.000388570412 Eh/a0 ::
         :: HOMO-LUMO gap              8.182269388675 eV    ::
         :: SCC energy               -41.607742453708 Eh    ::
         :: -> dispersion             -0.024136147682 Eh    ::
         :: repulsion energy           0.470080138590 Eh    ::

    * Orbital Energies and Occupations

         #    Occupation            Energy/Eh            Energy/eV
      -------------------------------------------------------------
         1        2.0000           -0.8558895             -23.2899
       ...           ...                  ...                  ...
        25        2.0000           -0.6326072             -17.2141
        26        2.0000           -0.6300021             -17.1432
        27        2.0000           -0.6290398             -17.1170
        28        2.0000           -0.6142645             -16.7150
        29        2.0000           -0.6057216             -16.4825
        30        2.0000           -0.5999978             -16.3268
        31        2.0000           -0.5966666             -16.2361
        32        2.0000           -0.5841729             -15.8962
        33        2.0000           -0.5766839             -15.6924
        34        2.0000           -0.5646000             -15.3635
        35        2.0000           -0.5471790             -14.8895
        36        2.0000           -0.5328167             -14.4987
        37        2.0000           -0.5275337             -14.3549 (HOMO)
        38                         -0.2268408              -6.1727 (LUMO)
        39                         -0.1663262              -4.5260
        40                         -0.1449771              -3.9450
        41                         -0.1434685              -3.9040
        42                         -0.1214090              -3.3037
        43                         -0.1019487              -2.7742
        44                         -0.0532781              -1.4498
        45                         -0.0376623              -1.0248
        46                         -0.0300434              -0.8175
        47                         -0.0217053              -0.5906
        48                         -0.0123828              -0.3370
       ...                                ...                  ...
        70                          0.1798163               4.8930
      -------------------------------------------------------------
                  HL-Gap            0.3006929 Eh            8.1823 eV

     #   Z          covCN         q      C6AA      α(0)
     1   6 C        3.750    -0.124    22.938     6.830
     2   6 C        3.691     0.073    19.537     6.325
     3   8 O        1.699    -0.332    19.555     5.970
     4   6 C        3.690     0.072    19.561     6.329
     5   6 C        3.759    -0.056    21.623     6.629
     6   7 N        3.621     0.142    18.836     6.446
     7   6 C        3.722    -0.099    22.515     6.777
     8   6 C        3.721    -0.099    22.500     6.775
     9   6 C        3.760    -0.055    21.617     6.628
    10   6 C        3.699     0.071    19.546     6.323
    11   8 O        1.700    -0.321    19.359     5.940
    12   6 C        3.650     0.026    20.442     6.494
    13   1 H        0.925     0.063     2.168     2.303
    14   1 H        0.925     0.053     2.280     2.361
    15   1 H        0.925     0.047     2.357     2.401
    16   1 H        0.924     0.037     2.489     2.467
    17   1 H        0.924     0.064     2.148     2.292
    18   1 H        0.923     0.048     2.348     2.396
    19   1 H        0.923     0.063     2.165     2.301
    20   1 H        0.924     0.087     1.908     2.160
    21   1 H        0.924     0.130     1.533     1.936
    22   1 H        0.925     0.097     1.817     2.108
    23   1 H        0.925     0.095     1.833     2.117
    24   1 H        0.925     0.114     1.660     2.015
    25   1 H        0.925     0.112     1.682     2.028
    26   1 H        0.925     0.096     1.819     2.109
    27   1 H        0.925     0.095     1.829     2.115
    28   1 H        0.924     0.133     1.515     1.925
    29   1 H        0.924     0.088     1.894     2.152
    30   1 H        0.923     0.064     2.154     2.295
    31   1 H        0.923     0.045     2.389     2.417
    32   1 H        0.924     0.044     2.395     2.420
    33   1 H        0.925     0.077     2.014     2.219
    34   1 H        0.924     0.050     2.326     2.385

Wiberg/Mayer (AO) data.
largest (>0.10) Wiberg bond orders for each atom

     #   Z sym  total        # sym  WBO       # sym  WBO       # sym  WBO
 ---------------------------------------------------------------------------
     1   6 C    3.992 --     2 C    1.015    14 H    0.986    15 H    0.985
                            13 H    0.981
     2   6 C    3.936 --     1 C    1.015    17 H    0.969    16 H    0.969
                             3 O    0.955
     3   8 O    2.072 --     4 C    0.994     2 C    0.955
     4   6 C    3.959 --     5 C    1.002     3 O    0.994    18 H    0.963
                            19 H    0.958
     5   6 C    3.928 --     4 C    1.002    20 H    0.968    21 H    0.949
                             6 N    0.931
     6   7 N    3.815 --     8 C    0.959     7 C    0.958     9 C    0.932
                             5 C    0.931
     7   6 C    3.926 --    23 H    0.975    22 H    0.975    24 H    0.970
                             6 N    0.958
     8   6 C    3.927 --    27 H    0.975    26 H    0.975    25 H    0.971
                             6 N    0.959
     9   6 C    3.928 --    10 C    1.004    29 H    0.967    28 H    0.948
                             6 N    0.932
    10   6 C    3.958 --     9 C    1.004    11 O    0.992    31 H    0.963
                            30 H    0.958
    11   8 O    2.072 --    10 C    0.992    12 C    0.975
    12   6 C    3.934 --    32 H    0.979    33 H    0.978    34 H    0.978
                            11 O    0.975
    13   1 H    0.996 --     1 C    0.981
    14   1 H    0.997 --     1 C    0.986
    15   1 H    0.998 --     1 C    0.985
    16   1 H    0.999 --     2 C    0.969
    17   1 H    0.996 --     2 C    0.969
    18   1 H    0.998 --     4 C    0.963
    19   1 H    0.996 --     4 C    0.958
    20   1 H    0.992 --     5 C    0.968
    21   1 H    0.983 --     5 C    0.949
    22   1 H    0.990 --     7 C    0.975
    23   1 H    0.991 --     7 C    0.975
    24   1 H    0.987 --     7 C    0.970
    25   1 H    0.988 --     8 C    0.971
    26   1 H    0.990 --     8 C    0.975
    27   1 H    0.991 --     8 C    0.975
    28   1 H    0.982 --     9 C    0.948
    29   1 H    0.992 --     9 C    0.967
    30   1 H    0.996 --    10 C    0.958
    31   1 H    0.998 --    10 C    0.963
    32   1 H    0.998 --    12 C    0.979
    33   1 H    0.994 --    12 C    0.978
    34   1 H    0.998 --    12 C    0.978
 ---------------------------------------------------------------------------

molecular dipole:
                 x           y           z       tot (Debye)
 q only:        4.537      -1.250      -4.599
   full:        4.560      -1.265      -4.647      16.857

           -------------------------------------------------
          | TOTAL ENERGY              -41.137662315118 Eh   |
          | GRADIENT NORM               0.000388570412 Eh/α |
          | HOMO-LUMO GAP               8.182269388675 eV   |
           -------------------------------------------------

 * finished run on 2024/12/20 at 07:20:08.316
