   * xtb version 6.7.1 (edcfbbe) compiled by 'conda@3ef47c1a292c' on 2024-11-25

   ID    Z sym.   atoms
    1    6 C      1, 2, 4-17
    2    7 N      3
    3    1 H      18-37

          program call               : xtb C1330.xyz --opt --namespace C1330 --charge +1
          :  Hamiltonian                  GFN2-xTB          :
 * total energy  :   -46.9445907 Eh     change       -0.3030962E-09 Eh
 * total energy  :   -46.9532841 Eh     change       -0.8693385E-02 Eh
 * total energy  :   -46.9556032 Eh     change       -0.2319119E-02 Eh
 * total energy  :   -46.9559126 Eh     change       -0.3094123E-03 Eh
 * total energy  :   -46.9561109 Eh     change       -0.1983526E-03 Eh
 * total energy  :   -46.9562164 Eh     change       -0.1054320E-03 Eh
 * total energy  :   -46.9563398 Eh     change       -0.1234186E-03 Eh
 * total energy  :   -46.9564783 Eh     change       -0.1385419E-03 Eh
 * total energy  :   -46.9565795 Eh     change       -0.1011551E-03 Eh
 * total energy  :   -46.9566354 Eh     change       -0.5590937E-04 Eh
 * total energy  :   -46.9609948 Eh     change       -0.1614986E-04 Eh
 * total energy  :   -46.9610092 Eh     change       -0.1440094E-04 Eh
 * total energy  :   -46.9610215 Eh     change       -0.1233691E-04 Eh
 * total energy  :   -46.9610291 Eh     change       -0.7551352E-05 Eh
 * total energy  :   -46.9610353 Eh     change       -0.6197758E-05 Eh
 * total energy  :   -46.9610427 Eh     change       -0.7495010E-05 Eh
 * total energy  :   -46.9610520 Eh     change       -0.9246953E-05 Eh
 * total energy  :   -46.9610580 Eh     change       -0.5981238E-05 Eh
 * total energy  :   -46.9610601 Eh     change       -0.2127449E-05 Eh
   *** GEOMETRY OPTIMIZATION CONVERGED AFTER 59 ITERATIONS ***

 final structure:
================
37
 xtb: 6.7.1 (edcfbbe)
C            0.12594165098033        0.96888486455438       -0.00938358741198
C            0.88725575370123        2.25652589604685        0.27785132861617
N            1.65643254936992        2.83396449821156       -0.86728228300178
C            2.51855533414083        3.96437174470317       -0.42313303014525
C            3.45466900342957        4.48154614895348       -1.31338412801994
C            4.25928129716686        5.54643542249509       -0.94852020734311
C            4.13427550738394        6.12077549922466        0.30441851718232
C            3.19022673641711        5.62330492722050        1.18214865715288
C            2.38184507134377        4.55408326901994        0.82501041375423
C            0.71485534662537        3.36732741431705       -1.91665337632692
C           -0.13590923155436        4.50478761585664       -1.41539960025219
C           -1.40095455888784        4.26176652991308       -0.88843923334969
C           -2.17728570515178        5.30635503564158       -0.41797729351407
C           -1.69971694241158        6.60480521023333       -0.47146313203895
C           -0.45047772265880        6.85725781511887       -1.01327517008354
C            0.32651406868732        5.81478507276204       -1.48581818503146
C            2.49518495920580        1.76764236751565       -1.45164383190681
H           -0.53051375956065        1.04753498461845       -0.87117599233786
H           -0.50053324338944        0.76341037221200        0.85554659948130
H            0.78346073380109        0.11429979917388       -0.13870167242582
H            0.17619165975098        3.01791804973052        0.60243697464086
H            1.60050222439169        2.06173276917097        1.08122976163166
H            3.57363398173167        4.08298944881071       -2.30848889753993
H            4.98050969566664        5.92762114281467       -1.65394339076917
H            4.76046131298684        6.95095426991785        0.58815939980103
H            3.06885613848516        6.06489859051385        2.15826270965017
H            1.65646220980593        4.21970932397380        1.54547083816081
H            1.32022346923874        3.70570530969732       -2.75873642988245
H            0.08567510194427        2.54257654037287       -2.25330670602580
H           -1.79578581023694        3.25625252224601       -0.86252439512133
H           -3.15744595947896        5.10458990533601       -0.01533846451468
H           -2.30487225886718        7.41862740381152       -0.10473619914687
H           -0.08086387805021        7.86863267259579       -1.07627437734886
H            1.29127002919305        6.02628582469089       -1.92229787547074
H            3.16310283670800        1.37374587906346       -0.68696469586129
H            1.86667257104703        0.96713220391425       -1.83293966242747
H            3.09462982704343        2.14281365554995       -2.27534338275032

          :  Hamiltonian                  GFN2-xTB          :
         :: total energy             -46.961060101673 Eh    ::
         :: gradient norm              0.000202691185 Eh/a0 ::
         :: HOMO-LUMO gap              4.095538754893 eV    ::
         :: SCC energy               -47.791248658967 Eh    ::
         :: -> dispersion             -0.039254501689 Eh    ::
         :: repulsion energy           0.830188557294 Eh    ::

    * Orbital Energies and Occupations

         #    Occupation            Energy/Eh            Energy/eV
      -------------------------------------------------------------
         1        2.0000           -0.8476268             -23.0651
       ...           ...                  ...                  ...
        32        2.0000           -0.6030408             -16.4096
        33        2.0000           -0.5978041             -16.2671
        34        2.0000           -0.5953286             -16.1997
        35        2.0000           -0.5949565             -16.1896
        36        2.0000           -0.5924191             -16.1205
        37        2.0000           -0.5694191             -15.4947
        38        2.0000           -0.5607899             -15.2599
        39        2.0000           -0.5505028             -14.9799
        40        2.0000           -0.5491070             -14.9420
        41        2.0000           -0.5433289             -14.7847
        42        2.0000           -0.5386286             -14.6568
        43        2.0000           -0.5250495             -14.2873
        44        2.0000           -0.5239874             -14.2584 (HOMO)
        45                         -0.3734791             -10.1629 (LUMO)
        46                         -0.3665021              -9.9730
        47                         -0.3524881              -9.5917
        48                         -0.3424724              -9.3191
        49                         -0.2400496              -6.5321
        50                         -0.2318000              -6.3076
        51                         -0.2084269              -5.6716
        52                         -0.1480924              -4.0298
        53                         -0.1406734              -3.8279
        54                         -0.1135613              -3.0902
        55                         -0.0561690              -1.5284
       ...                                ...                  ...
        88                          0.5433887              14.7864
      -------------------------------------------------------------
                  HL-Gap            0.1505083 Eh            4.0955 eV

     #   Z          covCN         q      C6AA      α(0)
     1   6 C        3.750    -0.126    22.974     6.836
     2   6 C        3.756    -0.028    21.131     6.554
     3   7 N        3.621     0.109    19.371     6.537
     4   6 C        2.927     0.036    27.202     8.553
     5   6 C        2.922    -0.036    28.908     8.817
     6   6 C        2.921    -0.018    28.460     8.748
     7   6 C        2.918    -0.016    28.407     8.740
     8   6 C        2.922    -0.017    28.444     8.746
     9   6 C        2.921    -0.039    28.968     8.826
    10   6 C        3.764    -0.032    21.183     6.560
    11   6 C        2.968    -0.006    28.177     8.707
    12   6 C        2.923    -0.039    28.964     8.826
    13   6 C        2.919    -0.023    28.591     8.768
    14   6 C        2.920    -0.019    28.482     8.752
    15   6 C        2.919    -0.023    28.567     8.765
    16   6 C        2.923    -0.036    28.893     8.815
    17   6 C        3.716    -0.085    22.259     6.740
    18   1 H        0.925     0.062     2.177     2.307
    19   1 H        0.925     0.082     1.959     2.189
    20   1 H        0.925     0.066     2.127     2.281
    21   1 H        0.924     0.088     1.903     2.157
    22   1 H        0.924     0.082     1.962     2.190
    23   1 H        0.926     0.053     2.287     2.365
    24   1 H        0.926     0.071     2.078     2.254
    25   1 H        0.926     0.074     2.042     2.234
    26   1 H        0.926     0.071     2.077     2.254
    27   1 H        0.926     0.057     2.229     2.335
    28   1 H        0.924     0.080     1.978     2.199
    29   1 H        0.924     0.081     1.970     2.195
    30   1 H        0.926     0.042     2.422     2.434
    31   1 H        0.926     0.058     2.227     2.334
    32   1 H        0.926     0.061     2.191     2.315
    33   1 H        0.926     0.055     2.253     2.347
    34   1 H        0.926     0.036     2.502     2.474
    35   1 H        0.925     0.091     1.865     2.135
    36   1 H        0.925     0.098     1.807     2.102
    37   1 H        0.925     0.093     1.854     2.129

Wiberg/Mayer (AO) data.
largest (>0.10) Wiberg bond orders for each atom

     #   Z sym  total        # sym  WBO       # sym  WBO       # sym  WBO
 ---------------------------------------------------------------------------
     1   6 C    3.983 --     2 C    1.021    20 H    0.982    18 H    0.977
                            19 H    0.973
     2   6 C    3.936 --     1 C    1.021    22 H    0.967    21 H    0.960
                             3 N    0.931
     3   7 N    3.799 --    17 C    0.959     2 C    0.931     4 C    0.911
                            10 C    0.906
     4   6 C    3.928 --     9 C    1.426     5 C    1.406     3 N    0.911
                             7 C    0.108
     5   6 C    3.990 --     6 C    1.445     4 C    1.406    23 H    0.959
                             8 C    0.112
     6   6 C    3.988 --     5 C    1.445     7 C    1.432    24 H    0.967
                             9 C    0.109
     7   6 C    3.986 --     8 C    1.448     6 C    1.432    25 H    0.967
                             4 C    0.108
     8   6 C    3.988 --     7 C    1.448     9 C    1.427    26 H    0.967
                             5 C    0.112
     9   6 C    3.990 --     8 C    1.427     4 C    1.426    27 H    0.962
                             6 C    0.109
    10   6 C    3.932 --    11 C    1.006    28 H    0.964    29 H    0.961
                             3 N    0.906
    11   6 C    3.980 --    16 C    1.409    12 C    1.408    10 C    1.006
                            14 C    0.109
    12   6 C    3.991 --    13 C    1.443    11 C    1.408    30 H    0.966
                            15 C    0.109
    13   6 C    3.990 --    12 C    1.443    14 C    1.439    31 H    0.969
                            16 C    0.110
    14   6 C    3.989 --    13 C    1.439    15 C    1.437    32 H    0.969
                            11 C    0.109
    15   6 C    3.990 --    16 C    1.446    14 C    1.437    33 H    0.969
                            12 C    0.109
    16   6 C    3.992 --    15 C    1.446    11 C    1.409    34 H    0.968
                            13 C    0.110
    17   6 C    3.932 --    35 H    0.976    36 H    0.971    37 H    0.969
                             3 N    0.959
    18   1 H    0.996 --     1 C    0.977
    19   1 H    0.993 --     1 C    0.973
    20   1 H    0.995 --     1 C    0.982
    21   1 H    0.992 --     2 C    0.960
    22   1 H    0.993 --     2 C    0.967
    23   1 H    0.997 --     5 C    0.959
    24   1 H    0.995 --     6 C    0.967
    25   1 H    0.994 --     7 C    0.967
    26   1 H    0.995 --     8 C    0.967
    27   1 H    0.997 --     9 C    0.962
    28   1 H    0.993 --    10 C    0.964
    29   1 H    0.992 --    10 C    0.961
    30   1 H    0.998 --    12 C    0.966
    31   1 H    0.996 --    13 C    0.969
    32   1 H    0.996 --    14 C    0.969
    33   1 H    0.997 --    15 C    0.969
    34   1 H    0.999 --    16 C    0.968
    35   1 H    0.991 --    17 C    0.976
    36   1 H    0.990 --    17 C    0.971
    37   1 H    0.991 --    17 C    0.969
 ---------------------------------------------------------------------------

molecular dipole:
                 x           y           z       tot (Debye)
 q only:        2.945       6.438      -1.169
   full:        2.976       6.365      -1.244      18.137

           -------------------------------------------------
          | TOTAL ENERGY              -46.961060101673 Eh   |
          | GRADIENT NORM               0.000202691185 Eh/α |
          | HOMO-LUMO GAP               4.095538754893 eV   |
           -------------------------------------------------

 * finished run on 2024/12/20 at 07:19:55.907
