   * xtb version 6.7.1 (edcfbbe) compiled by 'conda@3ef47c1a292c' on 2024-11-25

   ID    Z sym.   atoms
    1    6 C      1, 2, 4-15
    2    7 N      3
    3    1 H      16-39

          program call               : xtb C1331.xyz --opt --namespace C1331 --charge +1
          :  Hamiltonian                  GFN2-xTB          :
 * total energy  :   -44.7215521 Eh     change       -0.2585764E-08 Eh
 * total energy  :   -44.7309501 Eh     change       -0.9397987E-02 Eh
 * total energy  :   -44.7339171 Eh     change       -0.2966968E-02 Eh
 * total energy  :   -44.7342271 Eh     change       -0.3100007E-03 Eh
 * total energy  :   -44.7343295 Eh     change       -0.1024047E-03 Eh
 * total energy  :   -44.7343583 Eh     change       -0.2882292E-04 Eh
 * total energy  :   -44.7343840 Eh     change       -0.2572313E-04 Eh
 * total energy  :   -44.7343974 Eh     change       -0.1338152E-04 Eh
 * total energy  :   -44.7344057 Eh     change       -0.8306313E-05 Eh
 * total energy  :   -44.7344088 Eh     change       -0.3086924E-05 Eh
   *** GEOMETRY OPTIMIZATION CONVERGED AFTER 10 ITERATIONS ***

 final structure:
================
39
 xtb: 6.7.1 (edcfbbe)
C            1.03032825626684        0.15991315960605       -0.33099612359359
C            0.52117169026940       -0.78320429450721       -1.41503586332170
N            0.96837370814944       -2.20595622125731       -1.32775352623255
C            0.45255573273170       -2.81128576054524       -0.01075415753906
C           -1.06266537525386       -2.87792862281732        0.04968925423388
C           -1.77075589184438       -1.86405065489752        0.68916163120933
C           -3.14918367530025       -1.91699697955809        0.80158023472473
C           -3.84792925155228       -2.99248468505910        0.28240100882287
C           -3.15491232082306       -4.01988588213510       -0.33501515867623
C           -1.77705465246220       -3.96686918755364       -0.44692666822992
C            1.06858696126121       -4.16812806277063        0.32717095741779
C            0.35376838501357       -2.96925627130876       -2.45853570500274
C            0.81561831435845       -2.66670874905931       -3.87568672178491
C            2.46355347562309       -2.30870189808135       -1.33762672090848
C            3.24517286511004       -1.37041389536032       -2.25202437758314
H            0.56054453870110       -0.01339418460197        0.63198112789115
H            0.77516679449069        1.17343362318522       -0.63192404436499
H            2.10599863293188        0.11715937052498       -0.19733837488655
H           -0.57084722773555       -0.78545911334725       -1.39495289732614
H            0.84243986985732       -0.40755387289264       -2.38553546614454
H            0.78277560183873       -2.11058189425357        0.75993151404138
H           -1.24838578622066       -1.02825749547391        1.12991501275369
H           -3.67331244519507       -1.11989568246704        1.30488920571468
H           -4.92154668973867       -3.03773148692208        0.37134594461452
H           -3.68633270665859       -4.87375000511933       -0.72506836975394
H           -1.26841725760619       -4.79546988426876       -0.91375480188682
H            2.11898004835321       -4.09051878549653        0.59176814090872
H            0.54358846193054       -4.55493112669603        1.19790289306894
H            0.96472532700014       -4.90322993686227       -0.46482581168862
H            0.54075735102789       -4.02644430549675       -2.27082933573144
H           -0.72265808200842       -2.79821204814579       -2.40041092992129
H            1.82713062363512       -3.01348288848154       -4.06248762319980
H            0.16030889917703       -3.21720438712073       -4.54747612128412
H            0.73154969268579       -1.61644809827449       -4.13743552129497
H            2.80529564802873       -2.12882732722898       -0.31690168826906
H            2.70969198832546       -3.33741271429114       -1.60259601609168
H            3.14915984953085       -0.32720613098356       -1.97106025462845
H            4.29519148000731       -1.63652997597983       -2.14803347811795
H            2.98839716609334       -1.46972364400069       -3.29883116794062

          :  Hamiltonian                  GFN2-xTB          :
         :: total energy             -44.734408814469 Eh    ::
         :: gradient norm              0.000567504685 Eh/a0 ::
         :: HOMO-LUMO gap              4.633540125966 eV    ::
         :: SCC energy               -45.458241012990 Eh    ::
         :: -> dispersion             -0.036839482098 Eh    ::
         :: repulsion energy           0.723832198521 Eh    ::

    * Orbital Energies and Occupations

         #    Occupation            Energy/Eh            Energy/eV
      -------------------------------------------------------------
         1        2.0000           -0.8415014             -22.8984
       ...           ...                  ...                  ...
        30        2.0000           -0.6032825             -16.4162
        31        2.0000           -0.6025499             -16.3962
        32        2.0000           -0.5979054             -16.2698
        33        2.0000           -0.5966114             -16.2346
        34        2.0000           -0.5955660             -16.2062
        35        2.0000           -0.5866248             -15.9629
        36        2.0000           -0.5861161             -15.9490
        37        2.0000           -0.5843144             -15.9000
        38        2.0000           -0.5796436             -15.7729
        39        2.0000           -0.5438011             -14.7976
        40        2.0000           -0.5387557             -14.6603
        41        2.0000           -0.5253341             -14.2951
        42        2.0000           -0.5243691             -14.2688 (HOMO)
        43                         -0.3540896              -9.6353 (LUMO)
        44                         -0.3432038              -9.3391
        45                         -0.2420133              -6.5855
        46                         -0.2085831              -5.6758
        47                         -0.1656030              -4.5063
        48                         -0.1553727              -4.2279
        49                         -0.1475844              -4.0160
        50                         -0.0620021              -1.6872
        51                         -0.0565418              -1.5386
        52                         -0.0491769              -1.3382
        53                         -0.0399766              -1.0878
       ...                                ...                  ...
        84                          0.5425927              14.7647
      -------------------------------------------------------------
                  HL-Gap            0.1702795 Eh            4.6335 eV

     #   Z          covCN         q      C6AA      α(0)
     1   6 C        3.750    -0.124    22.951     6.832
     2   6 C        3.752    -0.028    21.130     6.555
     3   7 N        3.612     0.089    19.689     6.590
     4   6 C        3.799     0.007    20.459     6.440
     5   6 C        2.967    -0.012    28.302     8.726
     6   6 C        2.925    -0.039    28.967     8.826
     7   6 C        2.919    -0.023    28.580     8.767
     8   6 C        2.920    -0.019    28.483     8.752
     9   6 C        2.919    -0.024    28.595     8.769
    10   6 C        2.923    -0.039    28.975     8.827
    11   6 C        3.753    -0.125    22.957     6.832
    12   6 C        3.753    -0.028    21.128     6.555
    13   6 C        3.750    -0.125    22.956     6.833
    14   6 C        3.746    -0.026    21.103     6.553
    15   6 C        3.750    -0.130    23.064     6.849
    16   1 H        0.925     0.060     2.194     2.316
    17   1 H        0.925     0.078     2.004     2.214
    18   1 H        0.925     0.066     2.133     2.284
    19   1 H        0.924     0.080     1.984     2.203
    20   1 H        0.925     0.087     1.907     2.160
    21   1 H        0.924     0.078     2.004     2.214
    22   1 H        0.926     0.038     2.481     2.463
    23   1 H        0.926     0.057     2.236     2.338
    24   1 H        0.926     0.060     2.195     2.317
    25   1 H        0.926     0.056     2.241     2.341
    26   1 H        0.926     0.042     2.427     2.436
    27   1 H        0.925     0.060     2.199     2.319
    28   1 H        0.925     0.083     1.953     2.185
    29   1 H        0.925     0.058     2.224     2.332
    30   1 H        0.925     0.081     1.970     2.195
    31   1 H        0.924     0.080     1.977     2.199
    32   1 H        0.925     0.067     2.113     2.273
    33   1 H        0.925     0.079     1.987     2.204
    34   1 H        0.925     0.061     2.186     2.312
    35   1 H        0.924     0.079     1.986     2.204
    36   1 H        0.924     0.083     1.952     2.185
    37   1 H        0.925     0.067     2.122     2.278
    38   1 H        0.925     0.077     2.013     2.219
    39   1 H        0.925     0.069     2.094     2.263

Wiberg/Mayer (AO) data.
largest (>0.10) Wiberg bond orders for each atom

     #   Z sym  total        # sym  WBO       # sym  WBO       # sym  WBO
 ---------------------------------------------------------------------------
     1   6 C    3.984 --     2 C    1.021    18 H    0.977    17 H    0.975
                            16 H    0.974
     2   6 C    3.939 --     1 C    1.021    19 H    0.964    20 H    0.961
                             3 N    0.937
     3   7 N    3.791 --     2 C    0.937    12 C    0.936    14 C    0.932
                             4 C    0.883
     4   6 C    3.932 --    11 C    1.011     5 C    0.993    21 H    0.954
                             3 N    0.883
     5   6 C    3.980 --     6 C    1.411    10 C    1.404     4 C    0.993
                             8 C    0.110
     6   6 C    3.991 --     7 C    1.441     5 C    1.411    22 H    0.963
                             9 C    0.108
     7   6 C    3.990 --     6 C    1.441     8 C    1.440    23 H    0.969
                            10 C    0.110
     8   6 C    3.988 --     7 C    1.440     9 C    1.435    24 H    0.969
                             5 C    0.110
     9   6 C    3.990 --    10 C    1.448     8 C    1.435    25 H    0.969
                             6 C    0.108
    10   6 C    3.991 --     9 C    1.448     5 C    1.404    26 H    0.966
                             7 C    0.110
    11   6 C    3.985 --     4 C    1.011    27 H    0.981    29 H    0.974
                            28 H    0.972
    12   6 C    3.940 --    13 C    1.021    31 H    0.963    30 H    0.961
                             3 N    0.936
    13   6 C    3.984 --    12 C    1.021    32 H    0.979    34 H    0.978
                            33 H    0.973
    14   6 C    3.938 --    15 C    1.019    36 H    0.968    35 H    0.967
                             3 N    0.932
    15   6 C    3.981 --    14 C    1.019    37 H    0.978    39 H    0.976
                            38 H    0.974
    16   1 H    0.996 --     1 C    0.974
    17   1 H    0.994 --     1 C    0.975
    18   1 H    0.996 --     1 C    0.977
    19   1 H    0.994 --     2 C    0.964
    20   1 H    0.992 --     2 C    0.961
    21   1 H    0.993 --     4 C    0.954
    22   1 H    0.999 --     6 C    0.963
    23   1 H    0.996 --     7 C    0.969
    24   1 H    0.996 --     8 C    0.969
    25   1 H    0.996 --     9 C    0.969
    26   1 H    0.998 --    10 C    0.966
    27   1 H    0.996 --    11 C    0.981
    28   1 H    0.993 --    11 C    0.972
    29   1 H    0.997 --    11 C    0.974
    30   1 H    0.993 --    12 C    0.961
    31   1 H    0.994 --    12 C    0.963
    32   1 H    0.995 --    13 C    0.979
    33   1 H    0.993 --    13 C    0.973
    34   1 H    0.996 --    13 C    0.978
    35   1 H    0.994 --    14 C    0.967
    36   1 H    0.993 --    14 C    0.968
    37   1 H    0.996 --    15 C    0.978
    38   1 H    0.994 --    15 C    0.974
    39   1 H    0.995 --    15 C    0.976
 ---------------------------------------------------------------------------

molecular dipole:
                 x           y           z       tot (Debye)
 q only:        1.289      -4.184      -2.432
   full:        1.282      -4.232      -2.373      12.755

           -------------------------------------------------
          | TOTAL ENERGY              -44.734408814469 Eh   |
          | GRADIENT NORM               0.000567504685 Eh/α |
          | HOMO-LUMO GAP               4.633540125966 eV   |
           -------------------------------------------------

 * finished run on 2024/12/20 at 07:19:56.871
