   * xtb version 6.7.1 (edcfbbe) compiled by 'conda@3ef47c1a292c' on 2024-11-25

   ID    Z sym.   atoms
    1    8 O      1
    2    7 N      2, 5, 8
    3    6 C      3, 4, 6, 7, 9-11
    4    1 H      12-23

          program call               : xtb C1337.xyz --opt --namespace C1337 --charge +1
          :  Hamiltonian                  GFN2-xTB          :
 * total energy  :   -33.5069468 Eh     change       -0.2948042E-09 Eh
 * total energy  :   -33.5130190 Eh     change       -0.6072138E-02 Eh
 * total energy  :   -33.5141788 Eh     change       -0.1159808E-02 Eh
 * total energy  :   -33.5144076 Eh     change       -0.2288288E-03 Eh
 * total energy  :   -33.5145342 Eh     change       -0.1265875E-03 Eh
 * total energy  :   -33.5146302 Eh     change       -0.9602420E-04 Eh
 * total energy  :   -33.5147698 Eh     change       -0.1395616E-03 Eh
 * total energy  :   -33.5150073 Eh     change       -0.2374989E-03 Eh
 * total energy  :   -33.5153135 Eh     change       -0.3062197E-03 Eh
 * total energy  :   -33.5158230 Eh     change       -0.5095260E-03 Eh
 * total energy  :   -33.5183433 Eh     change       -0.1433373E-03 Eh
 * total energy  :   -33.5183518 Eh     change       -0.8428772E-05 Eh
 * total energy  :   -33.5183741 Eh     change       -0.2235938E-04 Eh
 * total energy  :   -33.5183809 Eh     change       -0.6767513E-05 Eh
 * total energy  :   -33.5183935 Eh     change       -0.1258858E-04 Eh
 * total energy  :   -33.5183999 Eh     change       -0.6412730E-05 Eh
 * total energy  :   -33.5184055 Eh     change       -0.5630338E-05 Eh
 * total energy  :   -33.5184106 Eh     change       -0.5081891E-05 Eh
 * total energy  :   -33.5184135 Eh     change       -0.2900506E-05 Eh
   *** GEOMETRY OPTIMIZATION CONVERGED AFTER 42 ITERATIONS ***

 final structure:
================
23
 xtb: 6.7.1 (edcfbbe)
O            0.46578187175413        1.52954521945936       -0.40621614146407
N           -0.01714844309551        0.74277266122134       -1.44085616633167
C           -1.05527459159992        0.06129506634258       -1.23133105136067
C           -1.79872590429207        0.05172645480884        0.10726481463231
N           -2.53977277021727        1.27904734075872        0.26967752946162
C           -3.81267333809524        1.50397859053164       -0.15941414961637
C           -4.10482156689129        2.80701300443357        0.10699199808700
N           -3.00359812338378        3.35802237379598        0.68855847291410
C           -2.06934535928097        2.41595429275460        0.77631091625154
C           -2.88461112758342        4.72419467878608        1.12081677640000
C           -1.59454364650107       -0.77687638473972       -2.33255116045203
H            1.31914149812859        1.85139760239357       -0.73509776276412
H           -2.48638648725222       -0.79263066400226        0.15222632479673
H           -1.06059114715583       -0.02211066617125        0.91082039395490
H           -4.41748804545530        0.74027867126962       -0.60389764318356
H           -5.00122170986091        3.36387177139173       -0.07449797032883
H           -1.08141440216376        2.54172798178485        1.17595717779786
H           -1.93751334569280        4.86767879413188        1.63622995213554
H           -2.92713732344094        5.39492151246055        0.26100994912711
H           -3.70294550569720        4.97554441719848        1.79640497346587
H           -0.97974479249393       -0.66292390418870       -3.21961080365074
H           -1.59695601353627       -1.82400879958167       -2.03416547450580
H           -2.61852972619297       -0.48893001483994       -2.56598095536601

          :  Hamiltonian                  GFN2-xTB          :
         :: total energy             -33.518413508806 Eh    ::
         :: gradient norm              0.000657787309 Eh/a0 ::
         :: HOMO-LUMO gap              3.194547350728 eV    ::
         :: SCC energy               -33.970903197627 Eh    ::
         :: -> dispersion             -0.017014769438 Eh    ::
         :: repulsion energy           0.452489688821 Eh    ::

    * Orbital Energies and Occupations

         #    Occupation            Energy/Eh            Energy/eV
      -------------------------------------------------------------
         1        2.0000           -0.8951457             -24.3582
       ...           ...                  ...                  ...
        18        2.0000           -0.6758183             -18.3900
        19        2.0000           -0.6663228             -18.1316
        20        2.0000           -0.6614258             -17.9983
        21        2.0000           -0.6535312             -17.7835
        22        2.0000           -0.6390628             -17.3898
        23        2.0000           -0.6378003             -17.3554
        24        2.0000           -0.6154869             -16.7483
        25        2.0000           -0.6127482             -16.6737
        26        2.0000           -0.6037072             -16.4277
        27        2.0000           -0.5890858             -16.0298
        28        2.0000           -0.5854902             -15.9320
        29        2.0000           -0.5451840             -14.8352
        30        2.0000           -0.5223195             -14.2130 (HOMO)
        31                         -0.4049220             -11.0185 (LUMO)
        32                         -0.3733271             -10.1587
        33                         -0.3663536              -9.9690
        34                         -0.1789142              -4.8685
        35                         -0.1726658              -4.6985
        36                         -0.1240647              -3.3760
        37                         -0.0551007              -1.4994
        38                         -0.0531784              -1.4471
        39                         -0.0425074              -1.1567
        40                         -0.0183426              -0.4991
        41                         -0.0074014              -0.2014
       ...                                ...                  ...
        56                          0.4639162              12.6238
      -------------------------------------------------------------
                  HL-Gap            0.1173975 Eh            3.1945 eV

     #   Z          covCN         q      C6AA      α(0)
     1   8 O        1.725    -0.357    20.020     6.041
     2   7 N        1.838    -0.098    23.903     7.245
     3   6 C        2.872     0.094    25.920     8.346
     4   6 C        3.744    -0.034    21.252     6.576
     5   7 N        2.872     0.073    19.976     6.638
     6   6 C        3.071    -0.008    28.148     8.699
     7   6 C        3.072    -0.009    28.175     8.703
     8   7 N        2.868     0.077    19.893     6.624
     9   6 C        3.096     0.047    26.826     8.488
    10   6 C        3.692    -0.087    22.347     6.764
    11   6 C        3.763    -0.134    23.125     6.855
    12   1 H        0.804     0.333     0.629     1.245
    13   1 H        0.925     0.091     1.867     2.137
    14   1 H        0.924     0.101     1.774     2.083
    15   1 H        0.926     0.106     1.735     2.060
    16   1 H        0.926     0.109     1.704     2.041
    17   1 H        0.926     0.129     1.545     1.944
    18   1 H        0.925     0.101     1.780     2.086
    19   1 H        0.924     0.107     1.722     2.052
    20   1 H        0.924     0.107     1.724     2.053
    21   1 H        0.925     0.094     1.845     2.124
    22   1 H        0.925     0.086     1.922     2.168
    23   1 H        0.925     0.074     2.045     2.236

Wiberg/Mayer (AO) data.
largest (>0.10) Wiberg bond orders for each atom

     #   Z sym  total        # sym  WBO       # sym  WBO       # sym  WBO
 ---------------------------------------------------------------------------
     1   8 O    2.071 --     2 N    1.038    12 H    0.879
     2   7 N    3.031 --     3 C    1.840     1 O    1.038
     3   6 C    3.974 --     2 N    1.840    11 C    1.034     4 C    0.945
     4   6 C    3.937 --     5 N    0.970    13 H    0.965    14 H    0.954
                             3 C    0.945
     5   7 N    3.719 --     9 C    1.358     6 C    1.224     4 C    0.970
     6   6 C    3.949 --     7 C    1.592     5 N    1.224    15 H    0.962
     7   6 C    3.949 --     6 C    1.592     8 N    1.227    16 H    0.961
     8   7 N    3.721 --     9 C    1.361     7 C    1.227    10 C    0.991
     9   6 C    3.943 --     8 N    1.361     5 N    1.358    17 H    0.948
    10   6 C    3.933 --     8 N    0.991    18 H    0.975    20 H    0.964
                            19 H    0.961
    11   6 C    3.985 --     3 C    1.034    21 H    0.975    23 H    0.959
                            22 H    0.956
    12   1 H    0.889 --     1 O    0.879
    13   1 H    0.991 --     4 C    0.965
    14   1 H    0.990 --     4 C    0.954
    15   1 H    0.989 --     6 C    0.962
    16   1 H    0.988 --     7 C    0.961
    17   1 H    0.983 --     9 C    0.948
    18   1 H    0.989 --    10 C    0.975
    19   1 H    0.988 --    10 C    0.961
    20   1 H    0.988 --    10 C    0.964
    21   1 H    0.991 --    11 C    0.975
    22   1 H    0.993 --    11 C    0.956
    23   1 H    0.995 --    11 C    0.959
 ---------------------------------------------------------------------------

molecular dipole:
                 x           y           z       tot (Debye)
 q only:       -4.826       4.096       0.289
   full:       -4.877       4.082       0.499      16.215

           -------------------------------------------------
          | TOTAL ENERGY              -33.518413508806 Eh   |
          | GRADIENT NORM               0.000657787309 Eh/α |
          | HOMO-LUMO GAP               3.194547350728 eV   |
           -------------------------------------------------

 * finished run on 2024/12/20 at 07:20:08.959
