   * xtb version 6.7.1 (edcfbbe) compiled by 'conda@3ef47c1a292c' on 2024-11-25

   ID    Z sym.   atoms
    1    6 C      1-5, 7-9, 11
    2    7 N      6
    3    8 O      10
    4    1 H      12-33

          program call               : xtb C1335.xyz --opt --namespace C1335 --charge +1
          :  Hamiltonian                  GFN2-xTB          :
 * total energy  :   -37.0671259 Eh     change       -0.7727152E-10 Eh
 * total energy  :   -37.0739942 Eh     change       -0.6868325E-02 Eh
 * total energy  :   -37.0758031 Eh     change       -0.1808924E-02 Eh
 * total energy  :   -37.0760391 Eh     change       -0.2359809E-03 Eh
 * total energy  :   -37.0764061 Eh     change       -0.3669873E-03 Eh
 * total energy  :   -37.0765830 Eh     change       -0.1769072E-03 Eh
 * total energy  :   -37.0768554 Eh     change       -0.2724440E-03 Eh
 * total energy  :   -37.0770577 Eh     change       -0.2022743E-03 Eh
 * total energy  :   -37.0772363 Eh     change       -0.1786128E-03 Eh
 * total energy  :   -37.0773848 Eh     change       -0.1485103E-03 Eh
 * total energy  :   -37.0782732 Eh     change       -0.5935985E-05 Eh
 * total energy  :   -37.0782786 Eh     change       -0.5452694E-05 Eh
 * total energy  :   -37.0782841 Eh     change       -0.5440292E-05 Eh
 * total energy  :   -37.0782893 Eh     change       -0.5228220E-05 Eh
 * total energy  :   -37.0782944 Eh     change       -0.5094482E-05 Eh
 * total energy  :   -37.0783000 Eh     change       -0.5560226E-05 Eh
 * total energy  :   -37.0783065 Eh     change       -0.6523490E-05 Eh
 * total energy  :   -37.0783133 Eh     change       -0.6787805E-05 Eh
 * total energy  :   -37.0783174 Eh     change       -0.4119945E-05 Eh
   *** GEOMETRY OPTIMIZATION CONVERGED AFTER 39 ITERATIONS ***

 final structure:
================
33
 xtb: 6.7.1 (edcfbbe)
C            1.18530039339760        0.43805488636809       -0.26029697050562
C            0.73031490889501        0.06856000124526        1.14701719850459
C            1.00711532709949        1.15448978161517        2.19041579255655
C            0.39324965798808        2.53613160122949        1.89439064641199
C           -1.14269439103600        2.52506894839821        1.67099824999803
N           -2.03178760714512        2.75155379872156        2.84899419267720
C           -2.07026440524436        4.18754739388547        3.19138024795298
C           -3.39540286200218        2.31997967886197        2.48383260132332
C           -1.59105003256584        1.98678268453562        4.02776682989361
O            0.70698225555644        3.47732662548148        2.90815280262166
C            2.01321715368848        4.01800610766840        2.85415320104514
H            0.59649848313012        1.25297579963194       -0.67531477828043
H            1.07814604309449       -0.41968258358383       -0.91869389958594
H            2.23204788897984        0.73117145360541       -0.25782537769872
H           -0.32916826270260       -0.20036663226212        1.13082411760827
H            1.27210097404546       -0.82395282405929        1.46378385731630
H            0.69094544838726        0.80179727602895        3.17222438327504
H            2.08808264637651        1.29761411854484        2.23785767441390
H            0.82575708631676        2.88640841358835        0.94455255747012
H           -1.39172680836061        3.30065742608360        0.94429863327486
H           -1.39541751476601        1.55856618039798        1.23385090687959
H           -2.48023750189314        4.76062800070771        2.36208200213936
H           -2.69551518003750        4.34380311674574        4.06805090640344
H           -1.06034742362020        4.53267635898353        3.40101551363791
H           -3.42107981793143        1.24636961087741        2.30364140532007
H           -4.08695814774466        2.55154388177071        3.29232729307396
H           -3.72900972800144        2.83418013341824        1.58391590799572
H           -1.54155835996752        0.92654711968666        3.78821859570315
H           -0.61158569050854        2.34179790283697        4.34115025436264
H           -2.29723467229970        2.12790352936663        4.84425277383967
H            2.04124694012545        4.80598809738812        3.60360831222803
H            2.77273082927590        3.27071045567952        3.09344025564485
H            2.22012236947243        4.44307165655373        1.86796391249748

          :  Hamiltonian                  GFN2-xTB          :
         :: total energy             -37.078317401566 Eh    ::
         :: gradient norm              0.000478485915 Eh/a0 ::
         :: HOMO-LUMO gap              8.148614402467 eV    ::
         :: SCC energy               -37.551654969136 Eh    ::
         :: -> dispersion             -0.023950054090 Eh    ::
         :: repulsion energy           0.473337567570 Eh    ::

    * Orbital Energies and Occupations

         #    Occupation            Energy/Eh            Energy/eV
      -------------------------------------------------------------
         1        2.0000           -0.8620825             -23.4585
       ...           ...                  ...                  ...
        22        2.0000           -0.6361547             -17.3107
        23        2.0000           -0.6348528             -17.2752
        24        2.0000           -0.6316946             -17.1893
        25        2.0000           -0.6223782             -16.9358
        26        2.0000           -0.6162059             -16.7678
        27        2.0000           -0.6053339             -16.4720
        28        2.0000           -0.5967155             -16.2375
        29        2.0000           -0.5834638             -15.8769
        30        2.0000           -0.5770768             -15.7031
        31        2.0000           -0.5558396             -15.1252
        32        2.0000           -0.5535510             -15.0629
        33        2.0000           -0.5476551             -14.9025
        34        2.0000           -0.5273543             -14.3500 (HOMO)
        35                         -0.2278982              -6.2014 (LUMO)
        36                         -0.1606894              -4.3726
        37                         -0.1533689              -4.1734
        38                         -0.1381339              -3.7588
        39                         -0.1245517              -3.3892
        40                         -0.0708813              -1.9288
        41                         -0.0586522              -1.5960
        42                         -0.0459246              -1.2497
        43                         -0.0206789              -0.5627
        44                         -0.0159742              -0.4347
        45                         -0.0078039              -0.2124
       ...                                ...                  ...
        66                          0.1877531               5.1090
      -------------------------------------------------------------
                  HL-Gap            0.2994561 Eh            8.1486 eV

     #   Z          covCN         q      C6AA      α(0)
     1   6 C        3.751    -0.115    22.759     6.803
     2   6 C        3.799    -0.062    21.691     6.631
     3   6 C        3.799    -0.085    22.132     6.698
     4   6 C        3.736     0.105    18.929     6.209
     5   6 C        3.760    -0.050    21.528     6.615
     6   7 N        3.622     0.153    18.655     6.415
     7   6 C        3.724    -0.105    22.627     6.793
     8   6 C        3.730    -0.099    22.488     6.770
     9   6 C        3.721    -0.101    22.552     6.783
    10   8 O        1.699    -0.331    19.540     5.968
    11   6 C        3.640     0.028    20.453     6.504
    12   1 H        0.925     0.030     2.585     2.514
    13   1 H        0.925     0.056     2.248     2.345
    14   1 H        0.925     0.050     2.318     2.381
    15   1 H        0.924     0.025     2.664     2.553
    16   1 H        0.924     0.058     2.224     2.332
    17   1 H        0.925     0.047     2.357     2.401
    18   1 H        0.924     0.063     2.168     2.303
    19   1 H        0.923     0.056     2.242     2.342
    20   1 H        0.924     0.086     1.918     2.166
    21   1 H        0.924     0.097     1.817     2.108
    22   1 H        0.925     0.094     1.845     2.124
    23   1 H        0.925     0.095     1.827     2.114
    24   1 H        0.925     0.128     1.549     1.947
    25   1 H        0.925     0.097     1.813     2.106
    26   1 H        0.925     0.102     1.769     2.080
    27   1 H        0.925     0.097     1.809     2.103
    28   1 H        0.925     0.096     1.819     2.109
    29   1 H        0.925     0.123     1.590     1.972
    30   1 H        0.925     0.095     1.830     2.115
    31   1 H        0.925     0.073     2.055     2.242
    32   1 H        0.924     0.049     2.338     2.391
    33   1 H        0.924     0.046     2.374     2.409

Wiberg/Mayer (AO) data.
largest (>0.10) Wiberg bond orders for each atom

     #   Z sym  total        # sym  WBO       # sym  WBO       # sym  WBO
 ---------------------------------------------------------------------------
     1   6 C    3.994 --     2 C    1.021    12 H    0.986    14 H    0.986
                            13 H    0.984
     2   6 C    3.994 --     1 C    1.021     3 C    1.005    16 H    0.974
                            15 H    0.972
     3   6 C    3.990 --     2 C    1.005     4 C    0.984    17 H    0.972
                            18 H    0.968
     4   6 C    3.948 --     3 C    0.984     5 C    0.979    10 O    0.976
                            19 H    0.952
     5   6 C    3.934 --     4 C    0.979    20 H    0.970    21 H    0.959
                             6 N    0.936
     6   7 N    3.820 --     8 C    0.959     9 C    0.955     7 C    0.953
                             5 C    0.936
     7   6 C    3.917 --    22 H    0.976    23 H    0.976    24 H    0.961
                             6 N    0.953
     8   6 C    3.930 --    27 H    0.976    25 H    0.975    26 H    0.974
                             6 N    0.959
     9   6 C    3.921 --    30 H    0.975    28 H    0.974    29 H    0.964
                             6 N    0.955
    10   8 O    2.076 --    11 C    0.977     4 C    0.976
    11   6 C    3.936 --    33 H    0.977    31 H    0.977    32 H    0.977
                            10 O    0.977
    12   1 H    0.999 --     1 C    0.986
    13   1 H    0.997 --     1 C    0.984
    14   1 H    0.997 --     1 C    0.986
    15   1 H    0.999 --     2 C    0.972
    16   1 H    0.997 --     2 C    0.974
    17   1 H    0.998 --     3 C    0.972
    18   1 H    0.996 --     3 C    0.968
    19   1 H    0.997 --     4 C    0.952
    20   1 H    0.993 --     5 C    0.970
    21   1 H    0.991 --     5 C    0.959
    22   1 H    0.991 --     7 C    0.976
    23   1 H    0.991 --     7 C    0.976
    24   1 H    0.984 --     7 C    0.961
    25   1 H    0.991 --     8 C    0.975
    26   1 H    0.989 --     8 C    0.974
    27   1 H    0.991 --     8 C    0.976
    28   1 H    0.991 --     9 C    0.974
    29   1 H    0.985 --     9 C    0.964
    30   1 H    0.991 --     9 C    0.975
    31   1 H    0.994 --    11 C    0.977
    32   1 H    0.998 --    11 C    0.977
    33   1 H    0.998 --    11 C    0.977
 ---------------------------------------------------------------------------

molecular dipole:
                 x           y           z       tot (Debye)
 q only:       -2.879       4.920       4.987
   full:       -2.841       4.908       4.850      18.967

           -------------------------------------------------
          | TOTAL ENERGY              -37.078317401566 Eh   |
          | GRADIENT NORM               0.000478485915 Eh/α |
          | HOMO-LUMO GAP               8.148614402467 eV   |
           -------------------------------------------------

 * finished run on 2024/12/20 at 07:20:07.493
