   * xtb version 6.7.1 (edcfbbe) compiled by 'conda@3ef47c1a292c' on 2024-11-25

   ID    Z sym.   atoms
    1    6 C      1, 2, 5-9, 11
    2    8 O      3, 10
    3    7 N      4
    4    1 H      12-23

          program call               : xtb C1339.xyz --opt --namespace C1339 --charge +1
          :  Hamiltonian                  GFN2-xTB          :
 * total energy  :   -33.8414259 Eh     change       -0.4570637E-09 Eh
 * total energy  :   -33.8465274 Eh     change       -0.5101560E-02 Eh
 * total energy  :   -33.8479995 Eh     change       -0.1472026E-02 Eh
 * total energy  :   -33.8481536 Eh     change       -0.1541148E-03 Eh
 * total energy  :   -33.8483239 Eh     change       -0.1702967E-03 Eh
 * total energy  :   -33.8484371 Eh     change       -0.1132322E-03 Eh
 * total energy  :   -33.8486390 Eh     change       -0.2018754E-03 Eh
 * total energy  :   -33.8489700 Eh     change       -0.3310344E-03 Eh
 * total energy  :   -33.8493055 Eh     change       -0.3355009E-03 Eh
 * total energy  :   -33.8496510 Eh     change       -0.3454559E-03 Eh
 * total energy  :   -33.8512410 Eh     change       -0.2820814E-04 Eh
 * total energy  :   -33.8512617 Eh     change       -0.2066351E-04 Eh
 * total energy  :   -33.8512774 Eh     change       -0.1577109E-04 Eh
 * total energy  :   -33.8512959 Eh     change       -0.1849131E-04 Eh
 * total energy  :   -33.8513092 Eh     change       -0.1327686E-04 Eh
 * total energy  :   -33.8513191 Eh     change       -0.9860567E-05 Eh
 * total energy  :   -33.8513276 Eh     change       -0.8520929E-05 Eh
 * total energy  :   -33.8513345 Eh     change       -0.6920489E-05 Eh
 * total energy  :   -33.8513394 Eh     change       -0.4919428E-05 Eh
   *** GEOMETRY OPTIMIZATION CONVERGED AFTER 34 ITERATIONS ***

 final structure:
================
23
 xtb: 6.7.1 (edcfbbe)
C            1.02580336410412        0.24875404197584        0.56381066080069
C            0.54874928340367        1.51235826360541       -0.13052458548342
O            1.25051134994186        1.77941020875029       -1.35798777166498
N            2.56654844583190        2.12550629167194       -1.21114765830948
C            3.51194277206042        1.21063784368500       -1.48752307984387
C            4.83440896874875        1.53754823618885       -1.42165584102772
C            5.22845560857692        2.84859988953862       -1.06190567639098
C            4.19820417695570        3.77427550384744       -0.78568204797270
C            2.89027579066684        3.38073613159959       -0.87363603109815
O            6.51124527269452        3.09462037190433       -1.02025476860360
C            7.00145408266669        4.38498018717294       -0.68095181316565
H            0.96806795559885       -0.60140301287572       -0.11114308786135
H            0.38172771198098        0.05154410883527        1.41532180184244
H            2.04727925372182        0.35047309310977        0.92750509537198
H           -0.48077823504028        1.40659255870194       -0.47436325934246
H            0.61847815022792        2.38067250395031        0.53405598955146
H            3.16160172399391        0.22915247859810       -1.77041951552312
H            5.59543100677888        0.80765308321156       -1.64593933104034
H            4.41869139929952        4.79368334811620       -0.51424603103199
H            2.07110153701956        4.06087576377942       -0.68938038525555
H            6.65571600261391        5.13743053152159       -1.39251505954561
H            6.70759451770436        4.66332677418822        0.33319917270477
H            8.08535986045111        4.30665179892282       -0.73512677710975

          :  Hamiltonian                  GFN2-xTB          :
         :: total energy             -33.851339433528 Eh    ::
         :: gradient norm              0.000453177550 Eh/a0 ::
         :: HOMO-LUMO gap              3.511391772493 eV    ::
         :: SCC energy               -34.293308491798 Eh    ::
         :: -> dispersion             -0.016403452013 Eh    ::
         :: repulsion energy           0.441969058270 Eh    ::

    * Orbital Energies and Occupations

         #    Occupation            Energy/Eh            Energy/eV
      -------------------------------------------------------------
         1        2.0000           -0.9123827             -24.8272
       ...           ...                  ...                  ...
        18        2.0000           -0.6804800             -18.5168
        19        2.0000           -0.6754607             -18.3802
        20        2.0000           -0.6695653             -18.2198
        21        2.0000           -0.6591766             -17.9371
        22        2.0000           -0.6389933             -17.3879
        23        2.0000           -0.6363783             -17.3167
        24        2.0000           -0.6276894             -17.0803
        25        2.0000           -0.6191710             -16.8485
        26        2.0000           -0.6089517             -16.5704
        27        2.0000           -0.6000940             -16.3294
        28        2.0000           -0.5908492             -16.0778
        29        2.0000           -0.5819970             -15.8369
        30        2.0000           -0.5762809             -15.6814 (HOMO)
        31                         -0.4472397             -12.1700 (LUMO)
        32                         -0.4281673             -11.6510
        33                         -0.3051573              -8.3038
        34                         -0.2527275              -6.8771
        35                         -0.1424479              -3.8762
        36                         -0.1091562              -2.9703
        37                         -0.0715017              -1.9457
        38                         -0.0412245              -1.1218
        39                         -0.0378727              -1.0306
        40                         -0.0203798              -0.5546
        41                         -0.0158420              -0.4311
       ...                                ...                  ...
        56                          0.4622301              12.5779
      -------------------------------------------------------------
                  HL-Gap            0.1290413 Eh            3.5114 eV

     #   Z          covCN         q      C6AA      α(0)
     1   6 C        3.750    -0.129    23.051     6.847
     2   6 C        3.680     0.060    19.784     6.370
     3   8 O        1.767    -0.227    17.749     5.689
     4   7 N        2.771     0.217    17.682     6.245
     5   6 C        2.868     0.020    27.553     8.604
     6   6 C        2.915    -0.045    29.107     8.847
     7   6 C        2.867     0.191    23.930     8.019
     8   6 C        2.912    -0.059    29.463     8.901
     9   6 C        2.869     0.019    27.574     8.608
    10   8 O        1.706    -0.169    16.853     5.543
    11   6 C        3.645     0.003    20.872     6.566
    12   1 H        0.925     0.072     2.060     2.245
    13   1 H        0.925     0.080     1.975     2.198
    14   1 H        0.925     0.047     2.352     2.399
    15   1 H        0.924     0.107     1.723     2.052
    16   1 H        0.924     0.055     2.263     2.353
    17   1 H        0.926     0.132     1.522     1.929
    18   1 H        0.926     0.124     1.584     1.968
    19   1 H        0.926     0.108     1.718     2.050
    20   1 H        0.926     0.122     1.598     1.977
    21   1 H        0.924     0.081     1.970     2.195
    22   1 H        0.924     0.080     1.977     2.199
    23   1 H        0.925     0.111     1.688     2.032

Wiberg/Mayer (AO) data.
largest (>0.10) Wiberg bond orders for each atom

     #   Z sym  total        # sym  WBO       # sym  WBO       # sym  WBO
 ---------------------------------------------------------------------------
     1   6 C    3.987 --     2 C    1.020    14 H    0.985    12 H    0.982
                            13 H    0.975
     2   6 C    3.900 --     1 C    1.020    16 H    0.970    15 H    0.954
                             3 O    0.915
     3   8 O    2.064 --     4 N    0.995     2 C    0.915
     4   7 N    3.747 --     9 C    1.284     5 C    1.262     3 O    0.995
     5   6 C    3.953 --     6 C    1.548     4 N    1.262    17 H    0.949
     6   6 C    3.979 --     5 C    1.548     7 C    1.266    18 H    0.953
     7   6 C    3.945 --     8 C    1.279     6 C    1.266    10 O    1.239
     8   6 C    3.982 --     9 C    1.525     7 C    1.279    19 H    0.955
     9   6 C    3.956 --     8 C    1.525     4 N    1.284    20 H    0.951
    10   8 O    2.412 --     7 C    1.239    11 C    0.945
    11   6 C    3.898 --    23 H    0.973    21 H    0.970    22 H    0.970
                            10 O    0.945
    12   1 H    0.995 --     1 C    0.982
    13   1 H    0.993 --     1 C    0.975
    14   1 H    0.998 --     1 C    0.985
    15   1 H    0.988 --     2 C    0.954
    16   1 H    0.997 --     2 C    0.970
    17   1 H    0.982 --     5 C    0.949
    18   1 H    0.984 --     6 C    0.953
    19   1 H    0.988 --     8 C    0.955
    20   1 H    0.985 --     9 C    0.951
    21   1 H    0.993 --    11 C    0.970
    22   1 H    0.993 --    11 C    0.970
    23   1 H    0.987 --    11 C    0.973
 ---------------------------------------------------------------------------

molecular dipole:
                 x           y           z       tot (Debye)
 q only:        7.079       4.941      -1.173
   full:        7.031       5.102      -1.098      22.255

           -------------------------------------------------
          | TOTAL ENERGY              -33.851339433528 Eh   |
          | GRADIENT NORM               0.000453177550 Eh/α |
          | HOMO-LUMO GAP               3.511391772493 eV   |
           -------------------------------------------------

 * finished run on 2024/12/20 at 07:20:10.017
