   * xtb version 6.7.1 (edcfbbe) compiled by 'conda@3ef47c1a292c' on 2024-11-25

   ID    Z sym.   atoms
    1    8 O      1, 3
    2    7 N      2, 6, 8
    3    6 C      4, 5, 7, 9-11
    4    1 H      12-21

          program call               : xtb C1342.xyz --opt --namespace C1342 --charge +1
          :  Hamiltonian                  GFN2-xTB          :
 * total energy  :   -34.3581213 Eh     change       -0.3837712E-09 Eh
 * total energy  :   -34.3651534 Eh     change       -0.7032042E-02 Eh
 * total energy  :   -34.3665273 Eh     change       -0.1373957E-02 Eh
 * total energy  :   -34.3666339 Eh     change       -0.1065601E-03 Eh
 * total energy  :   -34.3667593 Eh     change       -0.1253535E-03 Eh
 * total energy  :   -34.3667754 Eh     change       -0.1615449E-04 Eh
 * total energy  :   -34.3667913 Eh     change       -0.1588452E-04 Eh
 * total energy  :   -34.3668009 Eh     change       -0.9616132E-05 Eh
 * total energy  :   -34.3668159 Eh     change       -0.1495768E-04 Eh
 * total energy  :   -34.3668192 Eh     change       -0.3294275E-05 Eh
   *** GEOMETRY OPTIMIZATION CONVERGED AFTER 10 ITERATIONS ***

 final structure:
================
21
 xtb: 6.7.1 (edcfbbe)
O            1.38223668305476       -0.89768799244243       -0.10309193745613
N            2.32693293562336       -0.16081268290209       -0.02151552472769
O            2.75084621951865        0.59039315951394       -0.86039496135915
C            3.02405110305096       -0.19974617576158        1.24337917305945
C            2.73824156293580       -1.01156466275823        2.30759580982581
N            3.63652158260733       -0.72314896783414        3.28024561072570
C            4.46238365594758        0.24240479953256        2.83484127367696
N            4.10275983089175        0.57962015122275        1.59181116569314
C            4.72976966986289        1.57949377579030        0.76506752484149
C            5.57818481839204        0.83339881651857        3.59547288991559
C            3.68642535277236       -1.35960874190987        4.57226720489441
H            1.96483881612579       -1.74926902139837        2.40237338914153
H            5.46924086134980        2.12746797825864        1.34125803607214
H            5.20857745153711        1.10982274813043       -0.09565470689460
H            3.98058199187075        2.27192887541090        0.38071357868277
H            6.49737972199483        0.81614866996345        3.01072208702504
H            5.36443075749596        1.87334745861273        3.84819175236563
H            5.74973949589514        0.28921646573624        4.51905538272435
H            4.62128617421862       -1.90850822525405        4.69324138216914
H            3.60045389020183       -0.61920418781984        5.36777575988630
H            2.85856742465265       -2.05990224060988        4.65509510973812

          :  Hamiltonian                  GFN2-xTB          :
         :: total energy             -34.366819163702 Eh    ::
         :: gradient norm              0.000585850826 Eh/a0 ::
         :: HOMO-LUMO gap              3.277869477826 eV    ::
         :: SCC energy               -34.765151373389 Eh    ::
         :: -> dispersion             -0.015951944231 Eh    ::
         :: repulsion energy           0.398332209687 Eh    ::

    * Orbital Energies and Occupations

         #    Occupation            Energy/Eh            Energy/eV
      -------------------------------------------------------------
         1        2.0000           -0.9306930             -25.3254
       ...           ...                  ...                  ...
        18        2.0000           -0.7150458             -19.4574
        19        2.0000           -0.7009814             -19.0747
        20        2.0000           -0.6908812             -18.7998
        21        2.0000           -0.6779965             -18.4492
        22        2.0000           -0.6620890             -18.0164
        23        2.0000           -0.6613314             -17.9957
        24        2.0000           -0.6579272             -17.9031
        25        2.0000           -0.6534579             -17.7815
        26        2.0000           -0.6245945             -16.9961
        27        2.0000           -0.6174427             -16.8015
        28        2.0000           -0.6070363             -16.5183
        29        2.0000           -0.6019696             -16.3804
        30        2.0000           -0.5914925             -16.0953 (HOMO)
        31                         -0.4710331             -12.8175 (LUMO)
        32                         -0.4290849             -11.6760
        33                         -0.3742294             -10.1833
        34                         -0.2156743              -5.8688
        35                         -0.2127300              -5.7887
        36                         -0.1261398              -3.4324
        37                         -0.0837706              -2.2795
        38                         -0.0795221              -2.1639
        39                         -0.0580923              -1.5808
        40                         -0.0328626              -0.8942
        41                         -0.0138295              -0.3763
       ...                                ...                  ...
        54                          0.4074129              11.0863
      -------------------------------------------------------------
                  HL-Gap            0.1204595 Eh            3.2779 eV

     #   Z          covCN         q      C6AA      α(0)
     1   8 O        0.934    -0.331    20.308     6.044
     2   7 N        2.755     0.571    13.256     5.407
     3   8 O        0.930    -0.342    20.519     6.075
     4   6 C        3.054     0.026    27.360     8.578
     5   6 C        3.035     0.001    27.971     8.675
     6   7 N        2.864     0.062    20.163     6.669
     7   6 C        3.108     0.112    25.405     8.258
     8   7 N        2.846     0.057    20.245     6.683
     9   6 C        3.691    -0.091    22.432     6.778
    10   6 C        3.754    -0.145    23.357     6.891
    11   6 C        3.692    -0.089    22.395     6.772
    12   1 H        0.926     0.139     1.471     1.896
    13   1 H        0.925     0.104     1.746     2.066
    14   1 H        0.924     0.124     1.582     1.967
    15   1 H        0.925     0.129     1.546     1.944
    16   1 H        0.925     0.114     1.659     2.014
    17   1 H        0.924     0.117     1.639     2.002
    18   1 H        0.925     0.108     1.717     2.049
    19   1 H        0.924     0.110     1.701     2.039
    20   1 H        0.925     0.110     1.698     2.038
    21   1 H        0.925     0.115     1.655     2.012

Wiberg/Mayer (AO) data.
largest (>0.10) Wiberg bond orders for each atom

     #   Z sym  total        # sym  WBO       # sym  WBO       # sym  WBO
 ---------------------------------------------------------------------------
     1   8 O    1.986 --     2 N    1.473     3 O    0.391
     2   7 N    3.927 --     1 O    1.473     3 O    1.458     4 C    0.963
     3   8 O    1.972 --     2 N    1.458     1 O    0.391
     4   6 C    3.944 --     5 C    1.520     8 N    1.177     2 N    0.963
     5   6 C    3.950 --     4 C    1.520     6 N    1.252    12 H    0.952
     6   7 N    3.708 --     7 C    1.296     5 C    1.252    11 C    0.985
     7   6 C    3.948 --     8 N    1.343     6 N    1.296    10 C    1.052
     8   7 N    3.704 --     7 C    1.343     4 C    1.177     9 C    0.984
     9   6 C    3.917 --     8 N    0.984    13 H    0.970    15 H    0.953
                            14 H    0.951
    10   6 C    3.969 --     7 C    1.052    18 H    0.967    16 H    0.948
                            17 H    0.938
    11   6 C    3.923 --     6 N    0.985    21 H    0.972    20 H    0.962
                            19 H    0.960
    12   1 H    0.980 --     5 C    0.952
    13   1 H    0.989 --     9 C    0.970
    14   1 H    0.984 --     9 C    0.951
    15   1 H    0.983 --     9 C    0.953
    16   1 H    0.986 --    10 C    0.948
    17   1 H    0.985 --    10 C    0.938
    18   1 H    0.988 --    10 C    0.967
    19   1 H    0.987 --    11 C    0.960
    20   1 H    0.987 --    11 C    0.962
    21   1 H    0.986 --    11 C    0.972
 ---------------------------------------------------------------------------

molecular dipole:
                 x           y           z       tot (Debye)
 q only:        8.735       0.204       6.407
   full:        8.735       0.164       6.477      27.643

           -------------------------------------------------
          | TOTAL ENERGY              -34.366819163702 Eh   |
          | GRADIENT NORM               0.000585850826 Eh/α |
          | HOMO-LUMO GAP               3.277869477826 eV   |
           -------------------------------------------------

 * finished run on 2024/12/20 at 07:20:13.419
