   * xtb version 6.7.1 (edcfbbe) compiled by 'conda@3ef47c1a292c' on 2024-11-25

   ID    Z sym.   atoms
    1    6 C      1-4, 6-14
    2   15 P      5
    3    1 H      15-44

          program call               : xtb C1340.xyz --opt --namespace C1340 --charge +1
          :  Hamiltonian                  GFN2-xTB          :
 * total energy  :   -45.2708615 Eh     change       -0.2118981E-09 Eh
 * total energy  :   -45.2759228 Eh     change       -0.5061309E-02 Eh
 * total energy  :   -45.2775014 Eh     change       -0.1578597E-02 Eh
 * total energy  :   -45.2777128 Eh     change       -0.2114183E-03 Eh
 * total energy  :   -45.2778209 Eh     change       -0.1080967E-03 Eh
 * total energy  :   -45.2778995 Eh     change       -0.7858580E-04 Eh
 * total energy  :   -45.2779913 Eh     change       -0.9185516E-04 Eh
 * total energy  :   -45.2780894 Eh     change       -0.9811763E-04 Eh
 * total energy  :   -45.2781841 Eh     change       -0.9471477E-04 Eh
 * total energy  :   -45.2782851 Eh     change       -0.1009529E-03 Eh
 * total energy  :   -45.2793250 Eh     change       -0.6149514E-05 Eh
 * total energy  :   -45.2793315 Eh     change       -0.6488689E-05 Eh
 * total energy  :   -45.2793387 Eh     change       -0.7242419E-05 Eh
 * total energy  :   -45.2793464 Eh     change       -0.7650279E-05 Eh
 * total energy  :   -45.2793536 Eh     change       -0.7279005E-05 Eh
 * total energy  :   -45.2793601 Eh     change       -0.6417591E-05 Eh
 * total energy  :   -45.2793658 Eh     change       -0.5734923E-05 Eh
 * total energy  :   -45.2793710 Eh     change       -0.5244200E-05 Eh
 * total energy  :   -45.2793759 Eh     change       -0.4901754E-05 Eh
   *** GEOMETRY OPTIMIZATION CONVERGED AFTER 37 ITERATIONS ***

 final structure:
================
44
 xtb: 6.7.1 (edcfbbe)
C            2.25086775997607       -0.48011325353467        0.89780070958534
C            1.41030012593074       -0.79553446999252        2.12899683419874
C            1.18714371294548        0.41988793352783        3.02823151006023
C            0.22946079840810        1.46732940138171        2.45529456311861
P           -1.53994402847976        0.97649156862990        2.40288875314935
C           -1.85364196582439       -0.09259821630161        3.83596975867293
C           -2.64943650499701        2.42498827786349        2.66238864406847
C           -2.04866974941531        3.81387682294431        2.44456720989958
C           -1.67858758701612        4.09467364602801        0.98844590284703
C           -2.88418225994613        4.48170123672946        0.13949851917321
C           -2.14084515777574       -0.01512824685105        0.97865719339259
C           -2.29513905633701        0.67975335832827       -0.37445928465629
C           -0.99201025360753        0.82429590041477       -1.16096075497394
C           -0.46891834565029       -0.50204477242537       -1.69899909680843
H            1.77112318660809        0.25244257201329        0.25460148026526
H            2.41340537489781       -1.38195342921576        0.31421218151186
H            3.22188935065516       -0.09223841129476        1.19441809399341
H            0.44596121197683       -1.21267359475271        1.82650973827738
H            1.92660661076043       -1.55971355437329        2.71217722100477
H            0.83269946571775        0.09226334974579        4.00668327591537
H            2.14907768294938        0.91237448616086        3.18569496463077
H            0.25825196710599        2.35610681046689        3.09282509241805
H            0.54873046569480        1.76921760102872        1.45779953268213
H           -1.50905291273632        0.39959154893336        4.74479745358037
H           -2.92512841435338       -0.27350056453109        3.91702585862429
H           -1.34080827505097       -1.04619009649218        3.72517941854167
H           -3.51359280058953        2.28301018300819        2.00817392231736
H           -3.00061904243203        2.34399279893975        3.69548419517150
H           -2.78708308077789        4.54957961422563        2.76894126294789
H           -1.17432453970279        3.94338658798738        3.08450918070909
H           -0.95883975497870        4.91345139006221        0.95696555060779
H           -1.19251660855786        3.21058098779112        0.56509948546786
H           -3.30581774057865        5.41958379506145        0.49106539183418
H           -2.58809095127505        4.61323800574259       -0.89756281950909
H           -3.66733502983250        3.72731909465812        0.17560411471600
H           -1.49737937401309       -0.89126605216545        0.88080026352504
H           -3.12244653949280       -0.36656366654437        1.31865084990877
H           -2.98773892865617        0.08468187824652       -0.97345117501467
H           -2.75023276234527        1.66118887592366       -0.23823218843805
H           -1.17823002753370        1.49166710654826       -2.00382425916293
H           -0.22927063190488        1.29482302805531       -0.53635148824875
H           -1.21542640503823       -0.97333153886412       -2.33288421515650
H            0.42350074884585       -0.33585164707884       -2.29586104998564
H           -0.21098973356713       -1.19248634602691       -0.89989179486485

          :  Hamiltonian                  GFN2-xTB          :
         :: total energy             -45.279375935330 Eh    ::
         :: gradient norm              0.000254962928 Eh/a0 ::
         :: HOMO-LUMO gap              6.230906910104 eV    ::
         :: SCC energy               -45.951215095461 Eh    ::
         :: -> dispersion             -0.038294403279 Eh    ::
         :: repulsion energy           0.671839160131 Eh    ::

    * Orbital Energies and Occupations

         #    Occupation            Energy/Eh            Energy/eV
      -------------------------------------------------------------
         1        2.0000           -0.8469291             -23.0461
       ...           ...                  ...                  ...
        31        2.0000           -0.5935996             -16.1527
        32        2.0000           -0.5865374             -15.9605
        33        2.0000           -0.5796366             -15.7727
        34        2.0000           -0.5763746             -15.6840
        35        2.0000           -0.5599700             -15.2376
        36        2.0000           -0.5592453             -15.2178
        37        2.0000           -0.5561352             -15.1332
        38        2.0000           -0.5540797             -15.0773
        39        2.0000           -0.5529993             -15.0479
        40        2.0000           -0.5498269             -14.9616
        41        2.0000           -0.5468146             -14.8796
        42        2.0000           -0.5447757             -14.8241
        43        2.0000           -0.5427739             -14.7696 (HOMO)
        44                         -0.3137923              -8.5387 (LUMO)
        45                         -0.2838494              -7.7239
        46                         -0.2631292              -7.1601
        47                         -0.1883172              -5.1244
        48                         -0.1029681              -2.8019
        49                         -0.0723130              -1.9677
        50                         -0.0547534              -1.4899
        51                         -0.0527506              -1.4354
        52                         -0.0479152              -1.3038
        53                         -0.0357639              -0.9732
        54                         -0.0322152              -0.8766
       ...                                ...                  ...
        91                          0.7998111              21.7640
      -------------------------------------------------------------
                  HL-Gap            0.2289816 Eh            6.2309 eV

     #   Z          covCN         q      C6AA      α(0)
     1   6 C        3.752    -0.113    22.718     6.797
     2   6 C        3.800    -0.057    21.603     6.618
     3   6 C        3.845    -0.068    21.766     6.636
     4   6 C        3.750    -0.068    21.870     6.669
     5  15 P        3.837     0.185   152.265    22.166
     6   6 C        3.700    -0.140    23.379     6.914
     7   6 C        3.750    -0.077    22.044     6.696
     8   6 C        3.834    -0.066    21.735     6.633
     9   6 C        3.800    -0.061    21.667     6.627
    10   6 C        3.752    -0.111    22.685     6.792
    11   6 C        3.750    -0.072    21.939     6.680
    12   6 C        3.831    -0.067    21.754     6.636
    13   6 C        3.800    -0.055    21.570     6.613
    14   6 C        3.752    -0.112    22.712     6.796
    15   1 H        0.925     0.039     2.465     2.455
    16   1 H        0.925     0.052     2.296     2.370
    17   1 H        0.925     0.050     2.323     2.384
    18   1 H        0.924     0.029     2.601     2.522
    19   1 H        0.924     0.054     2.276     2.359
    20   1 H        0.924     0.052     2.299     2.371
    21   1 H        0.924     0.071     2.079     2.255
    22   1 H        0.928     0.091     1.867     2.137
    23   1 H        0.926     0.097     1.813     2.105
    24   1 H        0.926     0.100     1.784     2.089
    25   1 H        0.927     0.098     1.802     2.099
    26   1 H        0.926     0.103     1.755     2.072
    27   1 H        0.926     0.092     1.861     2.133
    28   1 H        0.927     0.087     1.910     2.161
    29   1 H        0.924     0.072     2.067     2.248
    30   1 H        0.924     0.047     2.355     2.400
    31   1 H        0.924     0.054     2.272     2.357
    32   1 H        0.924     0.038     2.480     2.463
    33   1 H        0.925     0.052     2.290     2.366
    34   1 H        0.925     0.051     2.304     2.374
    35   1 H        0.925     0.033     2.539     2.492
    36   1 H        0.926     0.095     1.827     2.114
    37   1 H        0.930     0.086     1.918     2.166
    38   1 H        0.924     0.066     2.130     2.283
    39   1 H        0.924     0.056     2.242     2.342
    40   1 H        0.924     0.052     2.289     2.366
    41   1 H        0.924     0.028     2.617     2.530
    42   1 H        0.925     0.049     2.337     2.391
    43   1 H        0.925     0.052     2.295     2.369
    44   1 H        0.925     0.037     2.494     2.470

Wiberg/Mayer (AO) data.
largest (>0.10) Wiberg bond orders for each atom

     #   Z sym  total        # sym  WBO       # sym  WBO       # sym  WBO
 ---------------------------------------------------------------------------
     1   6 C    3.993 --     2 C    1.021    17 H    0.985    16 H    0.985
                            15 H    0.981
     2   6 C    3.995 --     1 C    1.021     3 C    1.007    19 H    0.975
                            18 H    0.962
     3   6 C    3.987 --     2 C    1.007     4 C    0.988    20 H    0.969
                            21 H    0.966
     4   6 C    3.983 --     5 P    0.991     3 C    0.988    23 H    0.930
                            22 H    0.926
     5  15 P    4.562 --     6 C    1.058    11 C    0.997     7 C    0.993
                             4 C    0.991
     6   6 C    3.990 --     5 P    1.058    26 H    0.944    24 H    0.944
                            25 H    0.943
     7   6 C    3.985 --     8 C    0.994     5 P    0.993    28 H    0.937
                            27 H    0.934
     8   6 C    3.988 --     9 C    1.007     7 C    0.994    30 H    0.968
                            29 H    0.966
     9   6 C    3.995 --    10 C    1.021     8 C    1.007    31 H    0.976
                            32 H    0.956
    10   6 C    3.993 --     9 C    1.021    34 H    0.985    33 H    0.985
                            35 H    0.982
    11   6 C    3.984 --     5 P    0.997    12 C    0.991    37 H    0.928
                            36 H    0.928
    12   6 C    3.987 --    13 C    1.007    11 C    0.991    38 H    0.968
                            39 H    0.963
    13   6 C    3.995 --    14 C    1.021    12 C    1.007    40 H    0.975
                            41 H    0.963
    14   6 C    3.993 --    13 C    1.021    42 H    0.986    43 H    0.985
                            44 H    0.983
    15   1 H    0.998 --     1 C    0.981
    16   1 H    0.997 --     1 C    0.985
    17   1 H    0.997 --     1 C    0.985
    18   1 H    0.999 --     2 C    0.962
    19   1 H    0.997 --     2 C    0.975
    20   1 H    0.997 --     3 C    0.969
    21   1 H    0.995 --     3 C    0.966
    22   1 H    0.991 --     4 C    0.926
    23   1 H    0.991 --     4 C    0.930
    24   1 H    0.990 --     6 C    0.944
    25   1 H    0.990 --     6 C    0.943
    26   1 H    0.989 --     6 C    0.944
    27   1 H    0.991 --     7 C    0.934
    28   1 H    0.992 --     7 C    0.937
    29   1 H    0.994 --     8 C    0.966
    30   1 H    0.998 --     8 C    0.968
    31   1 H    0.997 --     9 C    0.976
    32   1 H    0.999 --     9 C    0.956
    33   1 H    0.997 --    10 C    0.985
    34   1 H    0.997 --    10 C    0.985
    35   1 H    0.999 --    10 C    0.982
    36   1 H    0.991 --    11 C    0.928
    37   1 H    0.992 --    11 C    0.928
    38   1 H    0.995 --    12 C    0.968
    39   1 H    0.997 --    12 C    0.963
    40   1 H    0.997 --    13 C    0.975
    41   1 H    0.999 --    13 C    0.963
    42   1 H    0.997 --    14 C    0.986
    43   1 H    0.997 --    14 C    0.985
    44   1 H    0.999 --    14 C    0.983
 ---------------------------------------------------------------------------

molecular dipole:
                 x           y           z       tot (Debye)
 q only:       -2.558       2.016       3.974
   full:       -2.675       1.978       4.147      13.513

           -------------------------------------------------
          | TOTAL ENERGY              -45.279375935330 Eh   |
          | GRADIENT NORM               0.000254962928 Eh/α |
          | HOMO-LUMO GAP               6.230906910104 eV   |
           -------------------------------------------------

 * finished run on 2024/12/20 at 07:20:11.685
