   * xtb version 6.7.1 (edcfbbe) compiled by 'conda@3ef47c1a292c' on 2024-11-25

   ID    Z sym.   atoms
    1    6 C      1-16, 18-23, 25-42
    2    7 N      17, 24
    3    1 H      43-115

          program call               : xtb C1348.xyz --opt --namespace C1348 --charge +1
          :  Hamiltonian                  GFN2-xTB          :
 * total energy  :  -128.4500662 Eh     change       -0.2182134E-08 Eh
 * total energy  :  -128.4589817 Eh     change       -0.8915468E-02 Eh
 * total energy  :  -128.4609068 Eh     change       -0.1925056E-02 Eh
 * total energy  :  -128.4613925 Eh     change       -0.4857482E-03 Eh
 * total energy  :  -128.4620750 Eh     change       -0.6824698E-03 Eh
 * total energy  :  -128.4626012 Eh     change       -0.5261925E-03 Eh
 * total energy  :  -128.4630879 Eh     change       -0.4867816E-03 Eh
 * total energy  :  -128.4635006 Eh     change       -0.4126073E-03 Eh
 * total energy  :  -128.4637703 Eh     change       -0.2697646E-03 Eh
 * total energy  :  -128.4639435 Eh     change       -0.1731422E-03 Eh
 * total energy  :  -128.4682966 Eh     change       -0.1164659E-04 Eh
 * total energy  :  -128.4683059 Eh     change       -0.9344955E-05 Eh
 * total energy  :  -128.4683155 Eh     change       -0.9528298E-05 Eh
 * total energy  :  -128.4683285 Eh     change       -0.1305155E-04 Eh
 * total energy  :  -128.4683469 Eh     change       -0.1835344E-04 Eh
 * total energy  :  -128.4683675 Eh     change       -0.2059388E-04 Eh
 * total energy  :  -128.4683766 Eh     change       -0.9096253E-05 Eh
 * total energy  :  -128.4683858 Eh     change       -0.9254852E-05 Eh
 * total energy  :  -128.4683905 Eh     change       -0.4629892E-05 Eh
   *** GEOMETRY OPTIMIZATION CONVERGED AFTER 124 ITERATIONS ***

 final structure:
================
115
 xtb: 6.7.1 (edcfbbe)
C            1.37098117865499        2.04266971746256        1.65456770782851
C            1.83864240225682        2.57285448993714        0.30430434290263
C            1.58987812684339        1.59686598613265       -0.84665101923510
C            0.11934567540259        1.25829782355832       -1.09921588710120
C           -0.77219905874517        2.45592199187149       -1.43290689354638
C           -0.36075724363318        3.24088331211393       -2.68020886740925
C           -0.30824696581692        2.42225524651930       -3.97191334351387
C           -1.61113172776824        1.70921833462074       -4.33835893938125
C           -2.81801591420642        2.62995378838390       -4.52570791713787
C           -2.68296141903897        3.64865669696294       -5.65936310957783
C           -2.43627051283587        3.05027611616364       -7.04709433444871
C           -3.45665362427750        1.99978860017345       -7.49008896297413
C           -4.88858042835305        2.52405036422708       -7.62596925371262
C           -5.12098174106263        3.36012403418126       -8.88785813767378
C           -5.25567943714054        2.52079459841809      -10.16044711563639
C           -6.56239654245526        1.72060906678774      -10.24331636806278
N           -7.70980835553464        2.55207924231973      -10.53952308097192
C           -8.53736949469898        3.14456853022527       -9.60523080649293
C           -8.54608017901324        3.12746442346510       -8.21567395158251
C           -9.54936065128412        3.83484521757230       -7.58632529555789
C          -10.52020390458846        4.53455329968963       -8.30679627599240
C          -10.52830708881869        4.54776819282696       -9.68620032784371
C           -9.52089249097277        3.83907690790982      -10.32889930715836
N           -9.25378858542046        3.62883145762558      -11.66868395978741
C           -8.15940912082427        2.86563625575213      -11.76170805357861
C           -7.54723293873295        2.38367971044656      -13.01788061389343
C          -10.09154507194394        4.14431495407261      -12.73087112341971
C           -9.82642659365477        5.62821781167910      -13.01229470014368
C           -8.58641120501298        5.89615353193730      -13.86645170259344
C           -8.66969849349080        5.37772246422418      -15.30569306765314
C           -9.85428434255344        5.90327706849850      -16.11942887619877
C           -9.90304546721882        7.42251308800376      -16.28698413092503
C           -8.69742004422011        8.02954646811660      -17.00767113164000
C           -8.42812436291018        7.46689817400193      -18.40525129383929
C           -9.60134795657784        7.56978812585610      -19.38192292193352
C          -10.10256781372146        8.99096167708526      -19.64386568304704
C           -9.06514040699174        9.94163619228001      -20.24409305822068
C           -8.47758481343790        9.49423262202517      -21.58416256420059
C           -9.50268533871604        9.26441823884308      -22.69665955000497
C          -10.38049118772727       10.47286471229402      -23.02905511611918
C           -9.61966680524623       11.71876142393105      -23.48486519573208
C           -8.85276992687315       11.51273860373280      -24.78578836538321
H            0.28926679150833        1.93926004305209        1.68278524651260
H            1.66507489383945        2.72456382993893        2.44928921281360
H            1.81576485383938        1.07047747663658        1.85635206290036
H            1.34727852838409        3.52518481310650        0.09718917425940
H            2.91277437086097        2.76744644994778        0.35568731820620
H            2.02687801808002        2.01211106917857       -1.75728617231380
H            2.11828583191920        0.66436073228141       -0.63111404681382
H            0.07203357968250        0.53466190964403       -1.91596278058899
H           -0.28977568206950        0.76547092784798       -0.21501709172355
H           -1.79650281011768        2.09581882231188       -1.55433432743547
H           -0.77803657520950        3.14445504684074       -0.58580343440913
H           -1.05911844409894        4.07166371441324       -2.80695818617201
H            0.62566046394442        3.67938916647190       -2.51763575922673
H           -0.01816565357989        3.08859427072335       -4.78758582502928
H            0.47601631282422        1.66794862162597       -3.88453199974308
H           -1.44297501640579        1.13913128529114       -5.25491553784280
H           -1.85392714124802        0.98761924341588       -3.55613034120871
H           -3.70132492390849        2.01013151634086       -4.69871527326133
H           -2.99504887636914        3.17810120292975       -3.59888112317327
H           -3.58953520280443        4.25908591953203       -5.68068995685715
H           -1.85636327165657        4.32456071194798       -5.43518083914284
H           -2.41305406189388        3.86808745937743       -7.77163506656000
H           -1.44951646996633        2.58526044988276       -7.06157793460468
H           -3.12891492607986        1.58188598727083       -8.44487001569973
H           -3.45401800849983        1.18257982320742       -6.76855719526992
H           -5.56823253388026        1.66819391320941       -7.61580260145452
H           -5.12519454913213        3.13239157941543       -6.75324398647599
H           -6.01314110957872        3.97886165083507       -8.76520656344714
H           -4.27764183568202        4.03916363764591       -9.01490479556176
H           -5.18031556919283        3.17515428618963      -11.03173957360986
H           -4.43031522576636        1.81047906396700      -10.20946239780751
H           -6.48410019009318        0.95591382672083      -11.01836349120140
H           -6.75491569015001        1.21970609384814       -9.29396623656923
H           -7.80535883401881        2.59134958603812       -7.64705833845726
H           -9.58788584155682        3.84706756248736       -6.50893803997022
H          -11.28368386396662        5.07365268045702       -7.76943600016313
H          -11.28415062037556        5.08472655965759      -10.23487860365467
H           -6.46502331138207        2.33598786705334      -12.92646234436938
H           -7.91025758416710        1.38142250861296      -13.25407635568139
H           -7.79127346246461        3.03895833854520      -13.84835237209926
H           -9.94270695554707        3.54859876413946      -13.63049556530831
H          -11.12707278573035        4.01282082379252      -12.40718968400750
H          -10.70104573910452        6.03740828105941      -13.51584317866548
H           -9.72163143886967        6.15273211599355      -12.06018502995130
H           -8.43270430875950        6.97483903431700      -13.89738911836714
H           -7.70629153899713        5.46506840118729      -13.38011358387521
H           -7.74299342270080        5.65088029951597      -15.81172545509285
H           -8.72241912280335        4.28448152142273      -15.31570130110194
H           -9.81010721186517        5.44045366294145      -17.10617536609776
H          -10.78944086912637        5.57320211188560      -15.66021577938106
H          -10.80843963438637        7.66777704767906      -16.84391645847957
H           -9.99495516510492        7.89784631011314      -15.30742867820146
H           -8.85959225206544        9.10592760581706      -17.08297883696713
H           -7.79929349807551        7.88671752336241      -16.40146176966119
H           -7.56981866769901        7.99693312710676      -18.82172005435353
H           -8.14100493661031        6.41530033961544      -18.32495425187138
H           -9.29322460989271        7.12069657125943      -20.32775910983106
H          -10.43825464800783        6.97570712756613      -19.00733320301585
H          -10.95965541984563        8.92775368820028      -20.31699300870267
H          -10.46470490788155        9.42564896549084      -18.70928968535576
H           -9.53537051896102       10.91882564885329      -20.36949943034612
H           -8.24290241000480       10.07383880551498      -19.53684950419134
H           -7.76044414700805       10.25086520223577      -21.90861567601642
H           -7.91618374600216        8.56781085698928      -21.44148396132782
H           -8.96511020024977        8.95569659838207      -23.59543718763674
H          -10.15687643842540        8.43487059686828      -22.41840274718458
H          -11.07188027268036       10.17891035492827      -23.82321950013259
H          -10.98370481001352       10.73209979344298      -22.15639929433497
H          -10.34461676979467       12.52406686392564      -23.62811825526846
H           -8.92960308539013       12.03983317307628      -22.70274714593748
H           -9.51949929782172       11.15579278123498      -25.56781094467313
H           -8.41152581365025       12.45081251271849      -25.11479078135656
H           -8.05154184251408       10.78929528074084      -24.65923661099968

          :  Hamiltonian                  GFN2-xTB          :
         :: total energy            -128.468390452174 Eh    ::
         :: gradient norm              0.000494366624 Eh/a0 ::
         :: HOMO-LUMO gap              1.421298481210 eV    ::
         :: SCC energy              -130.429499116165 Eh    ::
         :: -> dispersion             -0.107991702709 Eh    ::
         :: repulsion energy           1.961108663991 Eh    ::

    * Orbital Energies and Occupations

         #    Occupation            Energy/Eh            Energy/eV
      -------------------------------------------------------------
         1        2.0000           -0.8648549             -23.5339
       ...           ...                  ...                  ...
       109        2.0000           -0.4786311             -13.0242
       110        2.0000           -0.4708343             -12.8121
       111        2.0000           -0.4695047             -12.7759
       112        2.0000           -0.4688370             -12.7577
       113        2.0000           -0.4681592             -12.7393
       114        2.0000           -0.4664412             -12.6925
       115        2.0000           -0.4652462             -12.6600
       116        2.0000           -0.4570923             -12.4381
       117        2.0000           -0.4561856             -12.4134
       118        2.0000           -0.4516549             -12.2902
       119        2.0000           -0.4505447             -12.2599
       120        2.0000           -0.4502485             -12.2519
       121        2.0000           -0.4493735             -12.2281 (HOMO)
       122                         -0.3971417             -10.8068 (LUMO)
       123                         -0.3509101              -9.5487
       124                         -0.3426735              -9.3246
       125                         -0.2254984              -6.1361
       126                         -0.1711920              -4.6584
       127                         -0.1219915              -3.3196
       128                         -0.0637461              -1.7346
       129                         -0.0525442              -1.4298
       130                         -0.0447857              -1.2187
       131                         -0.0402938              -1.0964
       132                         -0.0309493              -0.8422
       ...                                ...                  ...
       241                          0.5529019              15.0452
      -------------------------------------------------------------
                  HL-Gap            0.0522318 Eh            1.4213 eV

     #   Z          covCN         q      C6AA      α(0)
     1   6 C        3.751    -0.101    22.499     6.764
     2   6 C        3.799    -0.052    21.508     6.603
     3   6 C        3.800    -0.057    21.599     6.617
     4   6 C        3.800    -0.057    21.594     6.616
     5   6 C        3.800    -0.056    21.584     6.615
     6   6 C        3.800    -0.056    21.590     6.616
     7   6 C        3.800    -0.057    21.594     6.616
     8   6 C        3.800    -0.057    21.600     6.617
     9   6 C        3.800    -0.057    21.604     6.618
    10   6 C        3.800    -0.058    21.610     6.619
    11   6 C        3.800    -0.059    21.633     6.622
    12   6 C        3.800    -0.061    21.673     6.628
    13   6 C        3.800    -0.061    21.673     6.628
    14   6 C        3.800    -0.065    21.739     6.638
    15   6 C        3.801    -0.066    21.770     6.643
    16   6 C        3.740    -0.018    20.969     6.534
    17   7 N        2.830     0.005    21.162     6.832
    18   6 C        3.095     0.040    26.997     8.516
    19   6 C        2.909    -0.036    28.890     8.814
    20   6 C        2.926    -0.022    28.544     8.762
    21   6 C        2.926    -0.021    28.533     8.760
    22   6 C        2.909    -0.036    28.893     8.814
    23   6 C        3.105     0.037    27.048     8.521
    24   7 N        2.827     0.007    21.127     6.827
    25   6 C        3.078     0.122    25.240     8.237
    26   6 C        3.755    -0.135    23.159     6.862
    27   6 C        3.740    -0.017    20.953     6.531
    28   6 C        3.801    -0.069    21.817     6.650
    29   6 C        3.800    -0.063    21.715     6.635
    30   6 C        3.799    -0.059    21.632     6.622
    31   6 C        3.800    -0.061    21.666     6.627
    32   6 C        3.800    -0.059    21.642     6.624
    33   6 C        3.800    -0.058    21.614     6.619
    34   6 C        3.800    -0.057    21.599     6.617
    35   6 C        3.800    -0.057    21.599     6.617
    36   6 C        3.800    -0.057    21.595     6.616
    37   6 C        3.800    -0.057    21.591     6.616
    38   6 C        3.800    -0.056    21.584     6.615
    39   6 C        3.800    -0.057    21.593     6.616
    40   6 C        3.800    -0.057    21.599     6.617
    41   6 C        3.799    -0.052    21.509     6.603
    42   6 C        3.751    -0.102    22.502     6.765
    43   1 H        0.925     0.034     2.536     2.490
    44   1 H        0.925     0.032     2.563     2.503
    45   1 H        0.925     0.034     2.534     2.489
    46   1 H        0.924     0.030     2.585     2.514
    47   1 H        0.924     0.027     2.626     2.534
    48   1 H        0.924     0.028     2.612     2.528
    49   1 H        0.924     0.029     2.607     2.525
    50   1 H        0.924     0.027     2.627     2.534
    51   1 H        0.924     0.031     2.568     2.506
    52   1 H        0.924     0.025     2.655     2.548
    53   1 H        0.924     0.032     2.559     2.502
    54   1 H        0.924     0.025     2.655     2.548
    55   1 H        0.924     0.033     2.549     2.497
    56   1 H        0.924     0.026     2.642     2.542
    57   1 H        0.924     0.033     2.547     2.496
    58   1 H        0.924     0.026     2.648     2.545
    59   1 H        0.924     0.033     2.540     2.493
    60   1 H        0.924     0.023     2.694     2.567
    61   1 H        0.924     0.036     2.509     2.477
    62   1 H        0.924     0.022     2.706     2.572
    63   1 H        0.924     0.038     2.474     2.460
    64   1 H        0.924     0.025     2.658     2.549
    65   1 H        0.924     0.040     2.451     2.448
    66   1 H        0.924     0.027     2.636     2.539
    67   1 H        0.925     0.043     2.406     2.426
    68   1 H        0.924     0.020     2.733     2.585
    69   1 H        0.925     0.046     2.368     2.407
    70   1 H        0.924     0.028     2.617     2.530
    71   1 H        0.925     0.056     2.252     2.347
    72   1 H        0.924     0.040     2.446     2.446
    73   1 H        0.925     0.067     2.123     2.279
    74   1 H        0.924     0.070     2.090     2.261
    75   1 H        0.924     0.084     1.938     2.177
    76   1 H        0.926     0.072     2.060     2.244
    77   1 H        0.926     0.074     2.040     2.234
    78   1 H        0.926     0.074     2.042     2.234
    79   1 H        0.926     0.067     2.122     2.278
    80   1 H        0.925     0.093     1.847     2.126
    81   1 H        0.924     0.095     1.831     2.116
    82   1 H        0.925     0.097     1.811     2.104
    83   1 H        0.925     0.079     1.990     2.206
    84   1 H        0.924     0.076     2.025     2.225
    85   1 H        0.925     0.070     2.087     2.259
    86   1 H        0.924     0.048     2.346     2.395
    87   1 H        0.925     0.057     2.234     2.337
    88   1 H        0.924     0.023     2.690     2.565
    89   1 H        0.924     0.047     2.355     2.400
    90   1 H        0.924     0.013     2.839     2.635
    91   1 H        0.924     0.044     2.392     2.419
    92   1 H        0.924     0.024     2.673     2.557
    93   1 H        0.924     0.041     2.439     2.442
    94   1 H        0.924     0.025     2.659     2.550
    95   1 H        0.924     0.038     2.478     2.462
    96   1 H        0.924     0.023     2.685     2.563
    97   1 H        0.924     0.036     2.508     2.476
    98   1 H        0.924     0.023     2.695     2.567
    99   1 H        0.924     0.034     2.528     2.486
   100   1 H        0.924     0.025     2.664     2.552
   101   1 H        0.924     0.033     2.541     2.493
   102   1 H        0.924     0.026     2.649     2.545
   103   1 H        0.924     0.033     2.550     2.497
   104   1 H        0.924     0.026     2.650     2.546
   105   1 H        0.924     0.032     2.559     2.502
   106   1 H        0.924     0.025     2.652     2.547
   107   1 H        0.924     0.032     2.562     2.503
   108   1 H        0.924     0.027     2.634     2.538
   109   1 H        0.924     0.029     2.606     2.524
   110   1 H        0.924     0.028     2.616     2.530
   111   1 H        0.924     0.027     2.630     2.536
   112   1 H        0.924     0.030     2.582     2.513
   113   1 H        0.925     0.034     2.534     2.489
   114   1 H        0.925     0.032     2.560     2.502
   115   1 H        0.925     0.034     2.532     2.488

Wiberg/Mayer (AO) data.
largest (>0.10) Wiberg bond orders for each atom

     #   Z sym  total        # sym  WBO       # sym  WBO       # sym  WBO
 ---------------------------------------------------------------------------
     1   6 C    3.997 --     2 C    1.020    45 H    0.988    44 H    0.987
                            43 H    0.986
     2   6 C    3.998 --     1 C    1.020     3 C    1.008    47 H    0.978
                            46 H    0.976
     3   6 C    3.998 --     2 C    1.008     4 C    1.008    49 H    0.977
                            48 H    0.976
     4   6 C    3.998 --     5 C    1.008     3 C    1.008    51 H    0.975
                            50 H    0.975
     5   6 C    3.998 --     4 C    1.008     6 C    1.008    52 H    0.975
                            53 H    0.975
     6   6 C    3.997 --     5 C    1.008     7 C    1.008    54 H    0.975
                            55 H    0.975
     7   6 C    3.997 --     8 C    1.008     6 C    1.008    56 H    0.975
                            57 H    0.975
     8   6 C    3.997 --     9 C    1.008     7 C    1.008    58 H    0.975
                            59 H    0.974
     9   6 C    3.997 --     8 C    1.008    10 C    1.008    60 H    0.975
                            61 H    0.974
    10   6 C    3.997 --     9 C    1.008    11 C    1.007    62 H    0.975
                            63 H    0.974
    11   6 C    3.996 --    12 C    1.008    10 C    1.007    65 H    0.975
                            64 H    0.974
    12   6 C    3.996 --    11 C    1.008    13 C    1.007    66 H    0.973
                            67 H    0.973
    13   6 C    3.996 --    14 C    1.007    12 C    1.007    69 H    0.972
                            68 H    0.971
    14   6 C    3.993 --    13 C    1.007    15 C    1.007    70 H    0.975
                            71 H    0.970
    15   6 C    3.987 --    14 C    1.007    16 C    0.987    72 H    0.975
                            73 H    0.966
    16   6 C    3.943 --    15 C    0.987    17 N    0.969    74 H    0.966
                            75 H    0.957
    17   7 N    3.657 --    25 C    1.329    18 C    1.122    16 C    0.969
    18   6 C    3.955 --    19 C    1.340    23 C    1.280    17 N    1.122
    19   6 C    3.984 --    20 C    1.491    18 C    1.340    76 H    0.960
                            22 C    0.118
    20   6 C    3.985 --    19 C    1.491    21 C    1.382    77 H    0.967
    21   6 C    3.985 --    22 C    1.491    20 C    1.382    78 H    0.967
    22   6 C    3.985 --    21 C    1.491    23 C    1.342    79 H    0.963
                            19 C    0.118
    23   6 C    3.955 --    22 C    1.342    18 C    1.280    24 N    1.120
    24   7 N    3.660 --    25 C    1.335    23 C    1.120    27 C    0.969
    25   6 C    3.957 --    24 N    1.335    17 N    1.329    26 C    1.044
    26   6 C    3.978 --    25 C    1.044    80 H    0.962    82 H    0.959
                            81 H    0.944
    27   6 C    3.942 --    28 C    0.987    24 N    0.969    84 H    0.962
                            83 H    0.961
    28   6 C    3.986 --    29 C    1.008    27 C    0.987    86 H    0.974
                            85 H    0.966
    29   6 C    3.994 --    28 C    1.008    30 C    1.007    88 H    0.976
                            87 H    0.971
    30   6 C    3.996 --    29 C    1.007    31 C    1.007    89 H    0.973
                            90 H    0.968
    31   6 C    3.996 --    32 C    1.008    30 C    1.007    92 H    0.974
                            91 H    0.973
    32   6 C    3.996 --    31 C    1.008    33 C    1.007    94 H    0.975
                            93 H    0.974
    33   6 C    3.997 --    32 C    1.007    34 C    1.007    96 H    0.976
                            95 H    0.975
    34   6 C    3.997 --    35 C    1.008    33 C    1.007    98 H    0.976
                            97 H    0.974
    35   6 C    3.997 --    36 C    1.008    34 C    1.008   100 H    0.975
                            99 H    0.974
    36   6 C    3.997 --    35 C    1.008    37 C    1.008   102 H    0.975
                           101 H    0.974
    37   6 C    3.997 --    36 C    1.008    38 C    1.008   104 H    0.975
                           103 H    0.975
    38   6 C    3.998 --    39 C    1.008    37 C    1.008   106 H    0.975
                           105 H    0.975
    39   6 C    3.998 --    38 C    1.008    40 C    1.008   107 H    0.975
                           108 H    0.975
    40   6 C    3.998 --    41 C    1.008    39 C    1.008   109 H    0.977
                           110 H    0.975
    41   6 C    3.998 --    42 C    1.020    40 C    1.008   111 H    0.978
                           112 H    0.976
    42   6 C    3.997 --    41 C    1.020   113 H    0.988   114 H    0.987
                           115 H    0.986
    43   1 H    0.999 --     1 C    0.986
    44   1 H    0.999 --     1 C    0.987
    45   1 H    0.999 --     1 C    0.988
    46   1 H    0.999 --     2 C    0.976
    47   1 H    0.999 --     2 C    0.978
    48   1 H    0.999 --     3 C    0.976
    49   1 H    0.999 --     3 C    0.977
    50   1 H    0.999 --     4 C    0.975
    51   1 H    0.999 --     4 C    0.975
    52   1 H    0.999 --     5 C    0.975
    53   1 H    0.999 --     5 C    0.975
    54   1 H    0.999 --     6 C    0.975
    55   1 H    0.999 --     6 C    0.975
    56   1 H    0.999 --     7 C    0.975
    57   1 H    0.999 --     7 C    0.975
    58   1 H    0.999 --     8 C    0.975
    59   1 H    0.999 --     8 C    0.974
    60   1 H    0.999 --     9 C    0.975
    61   1 H    0.999 --     9 C    0.974
    62   1 H    1.000 --    10 C    0.975
    63   1 H    0.999 --    10 C    0.974
    64   1 H    0.999 --    11 C    0.974
    65   1 H    0.998 --    11 C    0.975
    66   1 H    0.999 --    12 C    0.973
    67   1 H    0.998 --    12 C    0.973
    68   1 H    1.000 --    13 C    0.971
    69   1 H    0.998 --    13 C    0.972
    70   1 H    0.999 --    14 C    0.975
    71   1 H    0.996 --    14 C    0.970
    72   1 H    0.998 --    15 C    0.975
    73   1 H    0.994 --    15 C    0.966
    74   1 H    0.994 --    16 C    0.966
    75   1 H    0.992 --    16 C    0.957
    76   1 H    0.994 --    19 C    0.960
    77   1 H    0.994 --    20 C    0.967
    78   1 H    0.994 --    21 C    0.967
    79   1 H    0.995 --    22 C    0.963
    80   1 H    0.990 --    26 C    0.962
    81   1 H    0.986 --    26 C    0.944
    82   1 H    0.990 --    26 C    0.959
    83   1 H    0.993 --    27 C    0.961
    84   1 H    0.994 --    27 C    0.962
    85   1 H    0.994 --    28 C    0.966
    86   1 H    0.998 --    28 C    0.974
    87   1 H    0.996 --    29 C    0.971
    88   1 H    0.999 --    29 C    0.976
    89   1 H    0.998 --    30 C    0.973
    90   1 H    1.000 --    30 C    0.968
    91   1 H    0.998 --    31 C    0.973
    92   1 H    0.999 --    31 C    0.974
    93   1 H    0.998 --    32 C    0.974
    94   1 H    0.999 --    32 C    0.975
    95   1 H    0.999 --    33 C    0.975
    96   1 H    0.999 --    33 C    0.976
    97   1 H    0.999 --    34 C    0.974
    98   1 H    0.999 --    34 C    0.976
    99   1 H    0.999 --    35 C    0.974
   100   1 H    0.999 --    35 C    0.975
   101   1 H    0.999 --    36 C    0.974
   102   1 H    0.999 --    36 C    0.975
   103   1 H    0.999 --    37 C    0.975
   104   1 H    0.999 --    37 C    0.975
   105   1 H    0.999 --    38 C    0.975
   106   1 H    0.999 --    38 C    0.975
   107   1 H    0.999 --    39 C    0.975
   108   1 H    0.999 --    39 C    0.975
   109   1 H    0.999 --    40 C    0.977
   110   1 H    0.999 --    40 C    0.975
   111   1 H    0.999 --    41 C    0.978
   112   1 H    0.999 --    41 C    0.976
   113   1 H    0.999 --    42 C    0.988
   114   1 H    0.999 --    42 C    0.987
   115   1 H    0.999 --    42 C    0.986
 ---------------------------------------------------------------------------

molecular dipole:
                 x           y           z       tot (Debye)
 q only:      -15.510       6.419     -21.032
   full:      -15.569       6.271     -21.124      68.577

           -------------------------------------------------
          | TOTAL ENERGY             -128.468390452174 Eh   |
          | GRADIENT NORM               0.000494366624 Eh/α |
          | HOMO-LUMO GAP               1.421298481210 eV   |
           -------------------------------------------------

 * finished run on 2024/12/20 at 07:20:35.327
