   * xtb version 6.7.1 (edcfbbe) compiled by 'conda@3ef47c1a292c' on 2024-11-25

   ID    Z sym.   atoms
    1    6 C      1, 2, 4, 6, 8, 9, 11-18, 20-25
    2    8 O      3, 5, 19
    3    7 N      7, 10
    4    1 H      26-46

          program call               : xtb C1345.xyz --opt --namespace C1345 --charge +1
          :  Hamiltonian                  GFN2-xTB          :
 * total energy  :   -71.2115690 Eh     change       -0.7205472E-09 Eh
 * total energy  :   -71.2231045 Eh     change       -0.1153553E-01 Eh
 * total energy  :   -71.2258145 Eh     change       -0.2709972E-02 Eh
 * total energy  :   -71.2264109 Eh     change       -0.5963989E-03 Eh
 * total energy  :   -71.2270097 Eh     change       -0.5987875E-03 Eh
 * total energy  :   -71.2274654 Eh     change       -0.4556887E-03 Eh
 * total energy  :   -71.2279414 Eh     change       -0.4760083E-03 Eh
 * total energy  :   -71.2283171 Eh     change       -0.3756643E-03 Eh
 * total energy  :   -71.2285509 Eh     change       -0.2338060E-03 Eh
 * total energy  :   -71.2286847 Eh     change       -0.1338784E-03 Eh
 * total energy  :   -71.2315818 Eh     change       -0.2663005E-04 Eh
 * total energy  :   -71.2315988 Eh     change       -0.1700563E-04 Eh
 * total energy  :   -71.2316200 Eh     change       -0.2117450E-04 Eh
 * total energy  :   -71.2316392 Eh     change       -0.1920293E-04 Eh
 * total energy  :   -71.2316452 Eh     change       -0.5964554E-05 Eh
 * total energy  :   -71.2316598 Eh     change       -0.1465597E-04 Eh
 * total energy  :   -71.2316651 Eh     change       -0.5257756E-05 Eh
 * total energy  :   -71.2316705 Eh     change       -0.5398686E-05 Eh
 * total energy  :   -71.2316731 Eh     change       -0.2587635E-05 Eh
   *** GEOMETRY OPTIMIZATION CONVERGED AFTER 108 ITERATIONS ***

 final structure:
================
46
 xtb: 6.7.1 (edcfbbe)
C            1.00296948216763       -0.62312054066839        0.12309212692871
C            0.25366150247547       -0.03977784503158       -1.06172569767803
O            0.94157180973429       -0.30668525542051       -2.29980628510761
C            1.95954751155275        0.49061979956911       -2.60579477689406
O            2.34539484662698        1.42659880775243       -1.97542769034344
C            2.59481680552630        0.06633399315240       -3.94821943461820
N            2.34086477955629       -1.31238895621533       -4.25165473630972
C            1.23694274251787       -1.80485477244397       -4.82946363053963
C            0.16367030958057       -0.97399408199809       -5.40543970199888
N            1.27901975001600       -3.14263863349516       -4.82324806405398
C            2.46035470753515       -3.54196700180105       -4.22304101457331
C            3.13096967561334       -2.36901518761967       -3.83848555594160
C            4.35416278308103       -2.41491105449755       -3.18322919821184
C            4.88688760397921       -3.66503355336165       -2.94076878690744
C            4.23180817088011       -4.83172412874749       -3.34099165273588
C            3.01213671742924       -4.79476817451987       -3.98620832411864
C            0.22847846990542       -4.01149028347055       -5.29041261608848
C           -1.12787639753712       -3.69910093965152       -4.60844500681969
O           -2.09477901532860       -3.49522470875408       -5.29786744730334
C           -1.14237067540551       -3.62002329935257       -3.14028495510842
C           -0.18177347108068       -4.21863114044345       -2.32251851590616
C           -0.27730238817199       -4.10780371086014       -0.94849332559568
C           -1.32246715307712       -3.40132505017301       -0.37203490808330
C           -2.28663581002783       -2.81095869663605       -1.17555576204208
C           -2.20188113258468       -2.92375381137860       -2.54895655005413
H            1.15982111985541       -1.69027166419337       -0.01596557021450
H            0.42040140215348       -0.46583667324690        1.02513364648927
H            1.96443732797684       -0.13070184926180        0.24247488201829
H           -0.72267444557765       -0.51102390297736       -1.18558596604386
H            0.14241261437281        1.04191924187977       -0.95069493682010
H            2.18553208671747        0.71470655699741       -4.72748013646109
H            3.67010773405110        0.24439465304253       -3.88768619370001
H           -0.37424630315865       -0.45468933402518       -4.61140190550361
H            0.58342883370033       -0.21987329135301       -6.07164894787953
H           -0.54863267486012       -1.57055932987883       -5.96677325124694
H            4.86905647400922       -1.52033570669155       -2.87398281014783
H            5.83531877749831       -3.74526704134887       -2.43448880832645
H            4.69266109929179       -5.78580311987058       -3.14130643534129
H            2.52594109617590       -5.70539530165055       -4.29786901268103
H            0.08907948731741       -3.90197055789554       -6.37090251375672
H            0.50468399297264       -5.04667441466160       -5.08602115991678
H            0.61820493997251       -4.80754157498492       -2.74237438882406
H            0.46010926319095       -4.58712137171290       -0.32243175007647
H           -1.39139063806468       -3.32285738136829        0.70192037256887
H           -3.10944510649290       -2.27444220508110       -0.72854308143730
H           -2.94877870606103       -2.48051750562090       -3.19031052258324

          :  Hamiltonian                  GFN2-xTB          :
         :: total energy             -71.231673085269 Eh    ::
         :: gradient norm              0.000810092349 Eh/a0 ::
         :: HOMO-LUMO gap              3.053659218732 eV    ::
         :: SCC energy               -72.294941720172 Eh    ::
         :: -> dispersion             -0.053694883416 Eh    ::
         :: repulsion energy           1.063268634904 Eh    ::

    * Orbital Energies and Occupations

         #    Occupation            Energy/Eh            Energy/eV
      -------------------------------------------------------------
         1        2.0000           -0.8829755             -24.0270
       ...           ...                  ...                  ...
        52        2.0000           -0.5825124             -15.8510
        53        2.0000           -0.5803881             -15.7932
        54        2.0000           -0.5755661             -15.6620
        55        2.0000           -0.5708988             -15.5349
        56        2.0000           -0.5638977             -15.3444
        57        2.0000           -0.5596632             -15.2292
        58        2.0000           -0.5571453             -15.1607
        59        2.0000           -0.5506257             -14.9833
        60        2.0000           -0.5446921             -14.8218
        61        2.0000           -0.5426465             -14.7662
        62        2.0000           -0.5338578             -14.5270
        63        2.0000           -0.5306253             -14.4391
        64        2.0000           -0.5238890             -14.2557 (HOMO)
        65                         -0.4116691             -11.2021 (LUMO)
        66                         -0.4085331             -11.1168
        67                         -0.3652054              -9.9377
        68                         -0.3638925              -9.9020
        69                         -0.3574237              -9.7260
        70                         -0.3484975              -9.4831
        71                         -0.3223328              -8.7711
        72                         -0.2398668              -6.5271
        73                         -0.2138202              -5.8183
        74                         -0.1771749              -4.8212
        75                         -0.1410227              -3.8374
       ...                                ...                  ...
       121                          0.5559952              15.1294
      -------------------------------------------------------------
                  HL-Gap            0.1122199 Eh            3.0537 eV

     #   Z          covCN         q      C6AA      α(0)
     1   6 C        3.751    -0.121    22.882     6.822
     2   6 C        3.698     0.072    19.538     6.322
     3   8 O        1.702    -0.273    18.529     5.812
     4   6 C        2.712     0.360    20.896     7.483
     5   8 O        0.856    -0.354    20.791     6.113
     6   6 C        3.741    -0.050    21.541     6.622
     7   7 N        2.832     0.017    20.952     6.798
     8   6 C        3.070     0.125    25.183     8.228
     9   6 C        3.755    -0.138    23.213     6.870
    10   7 N        2.830     0.014    21.001     6.806
    11   6 C        3.095     0.039    27.004     8.517
    12   6 C        3.094     0.039    27.026     8.520
    13   6 C        2.909    -0.033    28.831     8.804
    14   6 C        2.926    -0.018    28.471     8.750
    15   6 C        2.925    -0.019    28.493     8.754
    16   6 C        2.909    -0.034    28.841     8.806
    17   6 C        3.740    -0.044    21.438     6.606
    18   6 C        2.819     0.225    23.279     7.906
    19   8 O        0.857    -0.326    20.257     6.034
    20   6 C        2.970    -0.018    28.461     8.751
    21   6 C        2.919    -0.030    28.746     8.792
    22   6 C        2.918    -0.024    28.594     8.769
    23   6 C        2.920    -0.013    28.341     8.730
    24   6 C        2.916    -0.022    28.558     8.763
    25   6 C        2.927    -0.015    28.381     8.737
    26   1 H        0.925     0.051     2.306     2.375
    27   1 H        0.925     0.070     2.080     2.255
    28   1 H        0.925     0.070     2.082     2.256
    29   1 H        0.924     0.064     2.152     2.294
    30   1 H        0.924     0.075     2.031     2.229
    31   1 H        0.924     0.108     1.717     2.049
    32   1 H        0.924     0.114     1.661     2.015
    33   1 H        0.924     0.105     1.736     2.060
    34   1 H        0.924     0.099     1.796     2.096
    35   1 H        0.925     0.105     1.738     2.062
    36   1 H        0.926     0.071     2.077     2.254
    37   1 H        0.926     0.081     1.970     2.195
    38   1 H        0.926     0.080     1.978     2.199
    39   1 H        0.926     0.067     2.124     2.279
    40   1 H        0.924     0.099     1.795     2.095
    41   1 H        0.924     0.100     1.787     2.091
    42   1 H        0.926     0.037     2.485     2.465
    43   1 H        0.926     0.052     2.300     2.372
    44   1 H        0.926     0.062     2.177     2.308
    45   1 H        0.926     0.061     2.188     2.313
    46   1 H        0.926     0.071     2.074     2.252

Wiberg/Mayer (AO) data.
largest (>0.10) Wiberg bond orders for each atom

     #   Z sym  total        # sym  WBO       # sym  WBO       # sym  WBO
 ---------------------------------------------------------------------------
     1   6 C    3.987 --     2 C    1.016    26 H    0.984    28 H    0.983
                            27 H    0.979
     2   6 C    3.905 --     1 C    1.016    29 H    0.969    30 H    0.969
                             3 O    0.911
     3   8 O    2.311 --     4 C    1.156     2 C    0.911     5 O    0.186
     4   6 C    3.934 --     5 O    1.793     3 O    1.156     6 C    0.919
     5   8 O    2.099 --     4 C    1.793     3 O    0.186
     6   6 C    3.951 --     7 N    0.995    32 H    0.953    31 H    0.941
                             4 C    0.919
     7   7 N    3.658 --     8 C    1.318    12 C    1.111     6 C    0.995
     8   6 C    3.955 --    10 N    1.329     7 N    1.318     9 C    1.051
     9   6 C    3.974 --     8 C    1.051    35 H    0.967    34 H    0.949
                            33 H    0.942
    10   7 N    3.657 --     8 C    1.329    11 C    1.112    17 C    0.980
    11   6 C    3.952 --    16 C    1.344    12 C    1.279    10 N    1.112
    12   6 C    3.951 --    13 C    1.346    11 C    1.279     7 N    1.111
    13   6 C    3.984 --    14 C    1.487    12 C    1.346    36 H    0.962
                            16 C    0.117
    14   6 C    3.983 --    13 C    1.487    15 C    1.384    37 H    0.966
    15   6 C    3.983 --    16 C    1.487    14 C    1.384    38 H    0.966
    16   6 C    3.984 --    15 C    1.487    11 C    1.344    39 H    0.961
                            13 C    0.117
    17   6 C    3.942 --    10 N    0.980    40 H    0.954    41 H    0.948
                            18 C    0.930
    18   6 C    3.930 --    19 O    1.845    20 C    1.053    17 C    0.930
    19   8 O    2.106 --    18 C    1.845
    20   6 C    3.987 --    21 C    1.369    25 C    1.362    18 C    1.053
    21   6 C    3.991 --    22 C    1.462    20 C    1.369    42 H    0.965
                            24 C    0.104
    22   6 C    3.991 --    21 C    1.462    23 C    1.425    43 H    0.969
                            25 C    0.103
    23   6 C    3.987 --    24 C    1.427    22 C    1.425    44 H    0.969
    24   6 C    3.990 --    25 C    1.460    23 C    1.427    45 H    0.967
                            21 C    0.104
    25   6 C    3.986 --    24 C    1.460    20 C    1.362    46 H    0.965
                            22 C    0.103
    26   1 H    0.997 --     1 C    0.984
    27   1 H    0.994 --     1 C    0.979
    28   1 H    0.995 --     1 C    0.983
    29   1 H    0.996 --     2 C    0.969
    30   1 H    0.994 --     2 C    0.969
    31   1 H    0.988 --     6 C    0.941
    32   1 H    0.986 --     6 C    0.953
    33   1 H    0.985 --     9 C    0.942
    34   1 H    0.988 --     9 C    0.949
    35   1 H    0.988 --     9 C    0.967
    36   1 H    0.994 --    13 C    0.962
    37   1 H    0.993 --    14 C    0.966
    38   1 H    0.993 --    15 C    0.966
    39   1 H    0.995 --    16 C    0.961
    40   1 H    0.989 --    17 C    0.954
    41   1 H    0.989 --    17 C    0.948
    42   1 H    0.999 --    21 C    0.965
    43   1 H    0.997 --    22 C    0.969
    44   1 H    0.996 --    23 C    0.969
    45   1 H    0.996 --    24 C    0.967
    46   1 H    0.995 --    25 C    0.965
 ---------------------------------------------------------------------------

molecular dipole:
                 x           y           z       tot (Debye)
 q only:        3.239      -4.783      -6.550
   full:        3.278      -4.868      -6.679      22.599

           -------------------------------------------------
          | TOTAL ENERGY              -71.231673085269 Eh   |
          | GRADIENT NORM               0.000810092349 Eh/α |
          | HOMO-LUMO GAP               3.053659218732 eV   |
           -------------------------------------------------

 * finished run on 2024/12/20 at 07:20:17.375
