   * xtb version 6.7.1 (edcfbbe) compiled by 'conda@3ef47c1a292c' on 2024-11-25

   ID    Z sym.   atoms
    1    6 C      1, 3, 6
    2    7 N      2, 4, 5, 7
    3    1 H      8-14

          program call               : xtb C1343.xyz --opt --namespace C1343 --charge +1
          :  Hamiltonian                  GFN2-xTB          :
 * total energy  :   -21.2374496 Eh     change       -0.1355360E-10 Eh
 * total energy  :   -21.2426088 Eh     change       -0.5159227E-02 Eh
 * total energy  :   -21.2440849 Eh     change       -0.1476110E-02 Eh
 * total energy  :   -21.2442552 Eh     change       -0.1702729E-03 Eh
 * total energy  :   -21.2443577 Eh     change       -0.1025445E-03 Eh
 * total energy  :   -21.2443670 Eh     change       -0.9296997E-05 Eh
 * total energy  :   -21.2443714 Eh     change       -0.4358283E-05 Eh
   *** GEOMETRY OPTIMIZATION CONVERGED AFTER 7 ITERATIONS ***

 final structure:
================
14
 xtb: 6.7.1 (edcfbbe)
C            1.05251664656814        0.00212600286819        0.11217359438260
N            0.56723847383347       -0.09290878437904        1.46254857060098
C            0.38931108441324       -1.22141317984766        2.17890463908966
N           -0.04658724689306       -0.84981770669814        3.37832765075049
N           -0.14960687638267        0.47026219723175        3.44796812542424
C            0.22948910591580        0.92175905283740        2.28588236924283
N           -0.27624225622765       -1.60724891387685        4.46371462152595
H            0.68095023306693        0.91702020436242       -0.34520754313817
H            0.71402820502509       -0.85479787825551       -0.46744604859108
H            2.14397943548538        0.02351619891238        0.10356272279858
H            0.56453972576266       -2.22275389959169        1.84176282707898
H            0.25780019747106        1.96268516809048        2.03445474408453
H           -0.66627972608917       -2.52523552250375        4.29743726425593
H           -0.70732700194921       -1.08034293914997        5.21505646249450

          :  Hamiltonian                  GFN2-xTB          :
         :: total energy             -21.244371364849 Eh    ::
         :: gradient norm              0.000887298886 Eh/a0 ::
         :: HOMO-LUMO gap              4.153209646698 eV    ::
         :: SCC energy               -21.518054503334 Eh    ::
         :: -> dispersion             -0.008012284345 Eh    ::
         :: repulsion energy           0.273683138486 Eh    ::

    * Orbital Energies and Occupations

         #    Occupation            Energy/Eh            Energy/eV
      -------------------------------------------------------------
         1        2.0000           -0.9398690             -25.5751
       ...           ...                  ...                  ...
         7        2.0000           -0.7995851             -21.7578
         8        2.0000           -0.7918023             -21.5460
         9        2.0000           -0.7574305             -20.6107
        10        2.0000           -0.7326960             -19.9377
        11        2.0000           -0.7295298             -19.8515
        12        2.0000           -0.7210513             -19.6208
        13        2.0000           -0.7040592             -19.1584
        14        2.0000           -0.6878592             -18.7176
        15        2.0000           -0.6601823             -17.9645
        16        2.0000           -0.6560010             -17.8507
        17        2.0000           -0.6325559             -17.2127
        18        2.0000           -0.6097444             -16.5920
        19        2.0000           -0.5833852             -15.8747 (HOMO)
        20                         -0.4307576             -11.7215 (LUMO)
        21                         -0.4107717             -11.1777
        22                         -0.2321953              -6.3184
        23                         -0.1626585              -4.4262
        24                         -0.1311426              -3.5686
        25                         -0.0730643              -1.9882
        26                         -0.0588765              -1.6021
        27                         -0.0286240              -0.7789
        28                         -0.0093785              -0.2552
        29                          0.0018575               0.0505
        30                          0.0357567               0.9730
       ...                                ...                  ...
        35                          0.3483660               9.4795
      -------------------------------------------------------------
                  HL-Gap            0.1526276 Eh            4.1532 eV

     #   Z          covCN         q      C6AA      α(0)
     1   6 C        3.690    -0.088    22.371     6.769
     2   7 N        2.853     0.065    20.098     6.658
     3   6 C        3.053     0.012    27.690     8.630
     4   7 N        3.129     0.254    17.139     6.149
     5   7 N        2.040    -0.169    25.367     7.471
     6   6 C        3.141     0.084    25.901     8.328
     7   7 N        2.714    -0.216    25.711     7.531
     8   1 H        0.925     0.112     1.677     2.025
     9   1 H        0.925     0.108     1.712     2.046
    10   1 H        0.924     0.114     1.667     2.019
    11   1 H        0.926     0.128     1.551     1.948
    12   1 H        0.926     0.129     1.543     1.943
    13   1 H        0.860     0.223     0.998     1.565
    14   1 H        0.860     0.243     0.909     1.494

Wiberg/Mayer (AO) data.
largest (>0.10) Wiberg bond orders for each atom

     #   Z sym  total        # sym  WBO       # sym  WBO       # sym  WBO
 ---------------------------------------------------------------------------
     1   6 C    3.925 --     2 N    0.986     8 H    0.970     9 H    0.969
                            10 H    0.955
     2   7 N    3.716 --     3 C    1.286     6 C    1.281     1 C    0.986
     3   6 C    3.931 --     4 N    1.358     2 N    1.286    11 H    0.952
                             7 N    0.124
     4   7 N    3.786 --     3 C    1.358     5 N    1.195     7 N    1.103
     5   7 N    3.004 --     6 C    1.540     4 N    1.195
     6   6 C    3.948 --     5 N    1.540     2 N    1.281    12 H    0.951
     7   7 N    3.201 --     4 N    1.103    13 H    0.928    14 H    0.922
                             3 C    0.124
     8   1 H    0.987 --     1 C    0.970
     9   1 H    0.988 --     1 C    0.969
    10   1 H    0.987 --     1 C    0.955
    11   1 H    0.984 --     3 C    0.952
    12   1 H    0.983 --     6 C    0.951
    13   1 H    0.950 --     7 N    0.928
    14   1 H    0.940 --     7 N    0.922
 ---------------------------------------------------------------------------

molecular dipole:
                 x           y           z       tot (Debye)
 q only:        0.423      -1.389       4.276
   full:        0.313      -1.589       3.976      10.914

           -------------------------------------------------
          | TOTAL ENERGY              -21.244371364849 Eh   |
          | GRADIENT NORM               0.000887298886 Eh/α |
          | HOMO-LUMO GAP               4.153209646698 eV   |
           -------------------------------------------------

 * finished run on 2024/12/20 at 07:20:13.517
