   * xtb version 6.7.1 (edcfbbe) compiled by 'conda@3ef47c1a292c' on 2024-11-25

   ID    Z sym.   atoms
    1    6 C      1-8, 10
    2    7 N      9
    3    1 H      11-24

          program call               : xtb C1347.xyz --opt --namespace C1347 --charge +1
          :  Hamiltonian                  GFN2-xTB          :
 * total energy  :   -28.9312753 Eh     change       -0.2358007E-09 Eh
 * total energy  :   -28.9340113 Eh     change       -0.2736004E-02 Eh
 * total energy  :   -28.9344308 Eh     change       -0.4195249E-03 Eh
 * total energy  :   -28.9345005 Eh     change       -0.6975219E-04 Eh
 * total energy  :   -28.9345583 Eh     change       -0.5775930E-04 Eh
 * total energy  :   -28.9345938 Eh     change       -0.3551627E-04 Eh
 * total energy  :   -28.9346270 Eh     change       -0.3318419E-04 Eh
 * total energy  :   -28.9346649 Eh     change       -0.3786567E-04 Eh
 * total energy  :   -28.9347115 Eh     change       -0.4661928E-04 Eh
 * total energy  :   -28.9347355 Eh     change       -0.2405245E-04 Eh
 * total energy  :   -28.9347531 Eh     change       -0.1759615E-04 Eh
 * total energy  :   -28.9347640 Eh     change       -0.1090032E-04 Eh
 * total energy  :   -28.9347685 Eh     change       -0.4489661E-05 Eh
   *** GEOMETRY OPTIMIZATION CONVERGED AFTER 13 ITERATIONS ***

 final structure:
================
24
 xtb: 6.7.1 (edcfbbe)
C            1.43878702095473        0.00361554764203        0.06874697114286
C            0.59356444467877        0.45511837888644       -1.11464514830657
C            0.88708182706014       -0.34201416803386       -2.40438918091527
C            0.47292888681893       -1.76677895399095       -2.25815509240004
C           -0.88607989991038       -2.07377692647265       -2.22716600276865
C           -1.32109620491164       -3.37207077307844       -2.05075571214031
C           -0.36899200514741       -4.37649238330666       -1.90458319118034
C            0.96068726518003       -4.03496813014833       -1.94839408407483
N            1.36801001651890       -2.76566712894334       -2.11968372344735
C            2.79267591677789       -2.50379188337472       -2.16981661697166
H            1.25765218459991       -1.04168153902645        0.31436484803024
H            1.18552126714420        0.59658277322379        0.94289126464238
H            2.49851409205119        0.14926152351971       -0.13004863249986
H           -0.46332096063668        0.36387370637284       -0.86202353270259
H            0.79668707162339        1.50569743480675       -1.32092548648027
H            0.29874847687395        0.10128581236549       -3.21057484840223
H            1.93823314177340       -0.23282193907842       -2.65804786289398
H           -1.59687396691717       -1.27153045381774       -2.34822780282766
H           -2.37436211842968       -3.60237356769586       -2.02881692193887
H           -0.65491209701998       -5.40560388864057       -1.76307826335757
H            1.72956261407667       -4.78570475956045       -1.84505044740766
H            3.07364012197800       -2.11753053623376       -3.15061776351077
H            3.07609602269045       -1.77994427265400       -1.40687628739350
H            3.34515688217271       -3.42388387276101       -1.99446648219577

          :  Hamiltonian                  GFN2-xTB          :
         :: total energy             -28.934768520491 Eh    ::
         :: gradient norm              0.000425904741 Eh/a0 ::
         :: HOMO-LUMO gap              3.146534645778 eV    ::
         :: SCC energy               -29.421283652591 Eh    ::
         :: -> dispersion             -0.018161618408 Eh    ::
         :: repulsion energy           0.486515132100 Eh    ::

    * Orbital Energies and Occupations

         #    Occupation            Energy/Eh            Energy/eV
      -------------------------------------------------------------
         1        2.0000           -0.8749525             -23.8087
       ...           ...                  ...                  ...
        15        2.0000           -0.6681084             -18.1802
        16        2.0000           -0.6581863             -17.9102
        17        2.0000           -0.6500248             -17.6881
        18        2.0000           -0.6486559             -17.6508
        19        2.0000           -0.6355879             -17.2952
        20        2.0000           -0.6256438             -17.0246
        21        2.0000           -0.6179521             -16.8153
        22        2.0000           -0.6158096             -16.7570
        23        2.0000           -0.6070089             -16.5176
        24        2.0000           -0.6027125             -16.4006
        25        2.0000           -0.5816049             -15.8263
        26        2.0000           -0.5718453             -15.5607
        27        2.0000           -0.5667001             -15.4207 (HOMO)
        28                         -0.4510671             -12.2742 (LUMO)
        29                         -0.4210550             -11.4575
        30                         -0.3027267              -8.2376
        31                         -0.1718734              -4.6769
        32                         -0.0922243              -2.5096
        33                         -0.0545621              -1.4847
        34                         -0.0481089              -1.3091
        35                         -0.0404190              -1.0999
        36                         -0.0287404              -0.7821
        37                         -0.0116127              -0.3160
        38                         -0.0070733              -0.1925
       ...                                ...                  ...
        54                          0.4514446              12.2844
      -------------------------------------------------------------
                  HL-Gap            0.1156330 Eh            3.1465 eV

     #   Z          covCN         q      C6AA      α(0)
     1   6 C        3.751    -0.113    22.718     6.797
     2   6 C        3.801    -0.058    21.615     6.619
     3   6 C        3.808    -0.084    22.095     6.691
     4   6 C        2.930     0.089    26.029     8.367
     5   6 C        2.923    -0.024    28.600     8.770
     6   6 C        2.922     0.009    27.817     8.649
     7   6 C        2.916    -0.017    28.424     8.743
     8   6 C        2.890     0.028    27.381     8.579
     9   7 N        2.748     0.098    19.547     6.566
    10   6 C        3.709    -0.092    22.403     6.765
    11   1 H        0.925     0.030     2.593     2.518
    12   1 H        0.925     0.065     2.139     2.287
    13   1 H        0.925     0.046     2.369     2.407
    14   1 H        0.924     0.053     2.282     2.363
    15   1 H        0.925     0.071     2.071     2.250
    16   1 H        0.924     0.089     1.887     2.148
    17   1 H        0.925     0.078     1.999     2.211
    18   1 H        0.926     0.101     1.777     2.084
    19   1 H        0.926     0.102     1.763     2.077
    20   1 H        0.926     0.104     1.746     2.067
    21   1 H        0.926     0.104     1.750     2.069
    22   1 H        0.924     0.105     1.739     2.062
    23   1 H        0.925     0.113     1.668     2.020
    24   1 H        0.925     0.101     1.778     2.085

Wiberg/Mayer (AO) data.
largest (>0.10) Wiberg bond orders for each atom

     #   Z sym  total        # sym  WBO       # sym  WBO       # sym  WBO
 ---------------------------------------------------------------------------
     1   6 C    3.993 --     2 C    1.022    11 H    0.987    13 H    0.984
                            12 H    0.981
     2   6 C    3.986 --     1 C    1.022    14 H    0.976    15 H    0.971
                             3 C    0.960
     3   6 C    3.982 --     4 C    1.035    17 H    0.965     2 C    0.960
                            16 H    0.948
     4   6 C    3.953 --     5 C    1.392     9 N    1.296     3 C    1.035
     5   6 C    3.984 --     6 C    1.464     4 C    1.392    18 H    0.959
                             8 C    0.102
     6   6 C    3.973 --     5 C    1.464     7 C    1.389    19 H    0.962
     7   6 C    3.982 --     8 C    1.490     6 C    1.389    20 H    0.960
     8   6 C    3.959 --     7 C    1.490     9 N    1.305    21 H    0.954
                             5 C    0.102
     9   7 N    3.752 --     8 C    1.305     4 C    1.296    10 C    0.985
    10   6 C    3.933 --     9 N    0.985    24 H    0.973    22 H    0.958
                            23 H    0.956
    11   1 H    0.999 --     1 C    0.987
    12   1 H    0.995 --     1 C    0.981
    13   1 H    0.998 --     1 C    0.984
    14   1 H    0.997 --     2 C    0.976
    15   1 H    0.993 --     2 C    0.971
    16   1 H    0.992 --     3 C    0.948
    17   1 H    0.994 --     3 C    0.965
    18   1 H    0.989 --     5 C    0.959
    19   1 H    0.989 --     6 C    0.962
    20   1 H    0.989 --     7 C    0.960
    21   1 H    0.989 --     8 C    0.954
    22   1 H    0.989 --    10 C    0.958
    23   1 H    0.987 --    10 C    0.956
    24   1 H    0.989 --    10 C    0.973
 ---------------------------------------------------------------------------

molecular dipole:
                 x           y           z       tot (Debye)
 q only:        1.600      -4.557      -3.816
   full:        1.587      -4.656      -3.856      15.886

           -------------------------------------------------
          | TOTAL ENERGY              -28.934768520491 Eh   |
          | GRADIENT NORM               0.000425904741 Eh/α |
          | HOMO-LUMO GAP               3.146534645778 eV   |
           -------------------------------------------------

 * finished run on 2024/12/20 at 07:20:18.625
