   * xtb version 6.7.1 (edcfbbe) compiled by 'conda@3ef47c1a292c' on 2024-11-25

   ID    Z sym.   atoms
    1    6 C      1, 2, 4, 5, 7-9
    2    7 N      3, 6, 10
    3    8 O      11, 12
    4    1 H      13-24

          program call               : xtb C1349.xyz --opt --namespace C1349 --charge +1
          :  Hamiltonian                  GFN2-xTB          :
 * total energy  :   -37.5272151 Eh     change       -0.7484857E-09 Eh
 * total energy  :   -37.5346059 Eh     change       -0.7390860E-02 Eh
 * total energy  :   -37.5360879 Eh     change       -0.1481949E-02 Eh
 * total energy  :   -37.5362385 Eh     change       -0.1505918E-03 Eh
 * total energy  :   -37.5363200 Eh     change       -0.8150043E-04 Eh
 * total energy  :   -37.5363585 Eh     change       -0.3853842E-04 Eh
 * total energy  :   -37.5363772 Eh     change       -0.1869663E-04 Eh
 * total energy  :   -37.5363984 Eh     change       -0.2119756E-04 Eh
 * total energy  :   -37.5364131 Eh     change       -0.1464996E-04 Eh
 * total energy  :   -37.5364167 Eh     change       -0.3663377E-05 Eh
   *** GEOMETRY OPTIMIZATION CONVERGED AFTER 10 ITERATIONS ***

 final structure:
================
24
 xtb: 6.7.1 (edcfbbe)
C            1.30090877240325       -0.25673276074014        0.18349587495929
C            0.30691695327758       -0.28753759853742        1.33943540955310
N            0.67176573430709        0.67898288798960        2.36266095532660
C            0.40340949908060        2.02810723088519        2.36375882365682
C            0.95910851412437        2.56006768570493        3.49632995443225
N            1.55902892171897        1.54365846627933        4.16152319722497
C            1.38267249147340        0.40747764890745        3.46222327926982
C            1.87977829609110       -0.92388605345955        3.85451748141303
C            2.26363681187906        1.67676650490618        5.41172285245365
N           -0.34441959986374        2.76013725975270        1.36783649293107
O           -0.70770132464886        2.16029609343022        0.38991732713982
O           -0.52754322926571        3.91905803085125        1.62639348434541
H            1.24535253188064        0.68980907890199       -0.34670111032714
H            1.04815248461592       -1.04542325856104       -0.51789301628577
H            2.31967230681273       -0.41450412083501        0.52925179466226
H           -0.68799928693849       -0.03910397338609        0.96604629217264
H            0.27934697138983       -1.27385098525696        1.80274700578347
H            0.94980566912080        3.57839625549000        3.83381771459496
H            1.05322107558121       -1.56644668928268        4.16341976992605
H            2.38239850323158       -1.41190953410570        3.02086564392182
H            2.57718309930575       -0.84911466254698        4.68325496492672
H            1.82208538942116        1.03016315345725        6.17023713335353
H            3.31582760117652        1.41726531495884        5.28830894935918
H            2.19662181382526        2.70848402519676        5.74865972520639

          :  Hamiltonian                  GFN2-xTB          :
         :: total energy             -37.536416729098 Eh    ::
         :: gradient norm              0.000425218251 Eh/a0 ::
         :: HOMO-LUMO gap              3.227485866615 eV    ::
         :: SCC energy               -37.982061849985 Eh    ::
         :: -> dispersion             -0.019160915363 Eh    ::
         :: repulsion energy           0.445645120887 Eh    ::

    * Orbital Energies and Occupations

         #    Occupation            Energy/Eh            Energy/eV
      -------------------------------------------------------------
         1        2.0000           -0.9275881             -25.2410
       ...           ...                  ...                  ...
        21        2.0000           -0.6872594             -18.7013
        22        2.0000           -0.6743931             -18.3512
        23        2.0000           -0.6635001             -18.0548
        24        2.0000           -0.6588519             -17.9283
        25        2.0000           -0.6561447             -17.8546
        26        2.0000           -0.6509460             -17.7131
        27        2.0000           -0.6192772             -16.8514
        28        2.0000           -0.6175155             -16.8035
        29        2.0000           -0.6103722             -16.6091
        30        2.0000           -0.6036430             -16.4260
        31        2.0000           -0.5989497             -16.2983
        32        2.0000           -0.5964017             -16.2289
        33        2.0000           -0.5882558             -16.0073 (HOMO)
        34                         -0.4696479             -12.7798 (LUMO)
        35                         -0.4263445             -11.6014
        36                         -0.3715673             -10.1109
        37                         -0.2161908              -5.8829
        38                         -0.2107277              -5.7342
        39                         -0.1283596              -3.4928
        40                         -0.0816051              -2.2206
        41                         -0.0770258              -2.0960
        42                         -0.0556002              -1.5130
        43                         -0.0406620              -1.1065
        44                         -0.0291672              -0.7937
       ...                                ...                  ...
        60                          0.4075323              11.0895
      -------------------------------------------------------------
                  HL-Gap            0.1186079 Eh            3.2275 eV

     #   Z          covCN         q      C6AA      α(0)
     1   6 C        3.753    -0.126    22.969     6.834
     2   6 C        3.739    -0.025    21.104     6.555
     3   7 N        2.847     0.044    20.464     6.719
     4   6 C        3.054     0.029    27.298     8.569
     5   6 C        3.037     0.001    27.979     8.676
     6   7 N        2.862     0.060    20.186     6.673
     7   6 C        3.112     0.114    25.355     8.249
     8   6 C        3.754    -0.144    23.330     6.887
     9   6 C        3.692    -0.088    22.378     6.769
    10   7 N        2.755     0.570    13.268     5.410
    11   8 O        0.930    -0.342    20.520     6.075
    12   8 O        0.934    -0.332    20.340     6.049
    13   1 H        0.925     0.081     1.970     2.195
    14   1 H        0.925     0.090     1.878     2.143
    15   1 H        0.925     0.058     2.227     2.334
    16   1 H        0.924     0.118     1.629     1.996
    17   1 H        0.925     0.088     1.900     2.155
    18   1 H        0.926     0.137     1.481     1.903
    19   1 H        0.924     0.115     1.652     2.010
    20   1 H        0.925     0.114     1.659     2.015
    21   1 H        0.925     0.106     1.732     2.058
    22   1 H        0.925     0.109     1.704     2.042
    23   1 H        0.924     0.108     1.710     2.045
    24   1 H        0.925     0.114     1.662     2.016

Wiberg/Mayer (AO) data.
largest (>0.10) Wiberg bond orders for each atom

     #   Z sym  total        # sym  WBO       # sym  WBO       # sym  WBO
 ---------------------------------------------------------------------------
     1   6 C    3.977 --     2 C    0.997    15 H    0.984    13 H    0.980
                            14 H    0.973
     2   6 C    3.921 --     1 C    0.997    17 H    0.963     3 N    0.954
                            16 H    0.951
     3   7 N    3.696 --     7 C    1.345     4 C    1.179     2 C    0.954
     4   6 C    3.945 --     5 C    1.520     3 N    1.179    10 N    0.963
     5   6 C    3.950 --     4 C    1.520     6 N    1.251    18 H    0.952
     6   7 N    3.707 --     7 C    1.297     5 C    1.251     9 C    0.985
     7   6 C    3.949 --     3 N    1.345     6 N    1.297     8 C    1.052
     8   6 C    3.969 --     7 C    1.052    21 H    0.967    20 H    0.950
                            19 H    0.937
     9   6 C    3.924 --     6 N    0.985    24 H    0.972    22 H    0.962
                            23 H    0.960
    10   7 N    3.927 --    12 O    1.472    11 O    1.457     4 C    0.963
    11   8 O    1.973 --    10 N    1.457    12 O    0.389
    12   8 O    1.984 --    10 N    1.472    11 O    0.389
    13   1 H    0.993 --     1 C    0.980
    14   1 H    0.991 --     1 C    0.973
    15   1 H    0.997 --     1 C    0.984
    16   1 H    0.986 --     2 C    0.951
    17   1 H    0.992 --     2 C    0.963
    18   1 H    0.981 --     5 C    0.952
    19   1 H    0.985 --     8 C    0.937
    20   1 H    0.986 --     8 C    0.950
    21   1 H    0.988 --     8 C    0.967
    22   1 H    0.987 --     9 C    0.962
    23   1 H    0.987 --     9 C    0.960
    24   1 H    0.987 --     9 C    0.972
 ---------------------------------------------------------------------------

molecular dipole:
                 x           y           z       tot (Debye)
 q only:        3.309       0.458       7.210
   full:        3.317       0.472       7.344      20.518

           -------------------------------------------------
          | TOTAL ENERGY              -37.536416729098 Eh   |
          | GRADIENT NORM               0.000425218251 Eh/α |
          | HOMO-LUMO GAP               3.227485866615 eV   |
           -------------------------------------------------

 * finished run on 2024/12/20 at 07:20:35.968
