   * xtb version 6.7.1 (edcfbbe) compiled by 'conda@3ef47c1a292c' on 2024-11-25

   ID    Z sym.   atoms
    1    6 C      1, 2, 4-9, 12-15
    2    7 N      3, 11
    3    8 O      10
    4    1 H      16-34

          program call               : xtb C1346.xyz --opt --namespace C1346 --charge +1
          :  Hamiltonian                  GFN2-xTB          :
 * total energy  :   -44.9101110 Eh     change       -0.6993233E-09 Eh
 * total energy  :   -44.9163394 Eh     change       -0.6228416E-02 Eh
 * total energy  :   -44.9175805 Eh     change       -0.1241082E-02 Eh
 * total energy  :   -44.9177220 Eh     change       -0.1415359E-03 Eh
 * total energy  :   -44.9178291 Eh     change       -0.1071228E-03 Eh
 * total energy  :   -44.9178623 Eh     change       -0.3312969E-04 Eh
 * total energy  :   -44.9179129 Eh     change       -0.5062204E-04 Eh
 * total energy  :   -44.9179345 Eh     change       -0.2163668E-04 Eh
 * total energy  :   -44.9179440 Eh     change       -0.9522064E-05 Eh
 * total energy  :   -44.9179477 Eh     change       -0.3711707E-05 Eh
   *** GEOMETRY OPTIMIZATION CONVERGED AFTER 10 ITERATIONS ***

 final structure:
================
34
 xtb: 6.7.1 (edcfbbe)
C            2.16501913941207        0.88736615494946       -0.72834357861164
C            2.55400814001915       -0.01985773417999       -1.89205321408638
N            1.48722690021627       -0.97232979736466       -2.16418209451596
C            0.52512536105253       -0.66326367078955       -3.04105767979539
C           -0.51601086155847       -1.53492089358079       -3.28618121042882
C           -0.57792453433878       -2.73808455959652       -2.59736238438120
C            0.41941218152009       -3.03882308442128       -1.66955261956927
C            1.45069995049358       -2.12758024109541       -1.49888814747505
C            0.61393028178419       -4.41044840235630       -1.05055805621874
O            1.68212151097129       -4.94281138000275       -1.28971755766026
N           -0.36521128773803       -4.94832526229249       -0.32129497789856
C           -1.56486666474308       -4.25340653495109        0.09783544877280
C           -2.83560927165440       -4.85003485133587       -0.50121980508742
C           -0.14766982445989       -6.30428060143405        0.17578575536335
C           -0.38024508870325       -7.35303819822265       -0.90541656300034
H            1.25901811689933        1.44467941366907       -0.95426272282119
H            2.96550440339407        1.59750285640576       -0.54438508604429
H            2.00508794733304        0.31018202814543        0.17897325333458
H            2.73259707531882        0.57552729291754       -2.78897702866863
H            3.46428536343673       -0.57138095392660       -1.65059712865012
H            0.60469978907611        0.28364108412987       -3.55369588269039
H           -1.26801544327457       -1.27515618363761       -4.01388884988861
H           -1.37660905429833       -3.43700944479181       -2.78966251686139
H            2.26933061546345       -2.35430508115319       -0.83029098264721
H           -1.62521191740311       -4.30817807233789        1.19025611902008
H           -1.47717113506841       -3.19903928573495       -0.17570298001596
H           -3.00235511334278       -5.85637711339543       -0.12905936490203
H           -3.68956584233211       -4.24008463817654       -0.22051847595326
H           -2.77895137873720       -4.89084304145147       -1.58611438650931
H            0.88917290003732       -6.37182827207752        0.51705489398971
H           -0.81407486867242       -6.46436554781231        1.02315602815344
H            0.31941025273804       -7.20458584937999       -1.72336792521123
H           -0.21488630126189       -8.34187376445189       -0.48839195447345
H           -1.39430134157870       -7.30543637026595       -1.29294832456799

          :  Hamiltonian                  GFN2-xTB          :
         :: total energy             -44.917947746124 Eh    ::
         :: gradient norm              0.000490079191 Eh/a0 ::
         :: HOMO-LUMO gap              1.564353510201 eV    ::
         :: SCC energy               -45.585690600739 Eh    ::
         :: -> dispersion             -0.028741059056 Eh    ::
         :: repulsion energy           0.667742854615 Eh    ::

    * Orbital Energies and Occupations

         #    Occupation            Energy/Eh            Energy/eV
      -------------------------------------------------------------
         1        2.0000           -0.8761628             -23.8416
       ...           ...                  ...                  ...
        29        2.0000           -0.6129696             -16.6798
        30        2.0000           -0.6124423             -16.6654
        31        2.0000           -0.6077868             -16.5387
        32        2.0000           -0.6056104             -16.4795
        33        2.0000           -0.5994474             -16.3118
        34        2.0000           -0.5970221             -16.2458
        35        2.0000           -0.5813849             -15.8203
        36        2.0000           -0.5795423             -15.7701
        37        2.0000           -0.5648837             -15.3713
        38        2.0000           -0.5534577             -15.0603
        39        2.0000           -0.5389427             -14.6654
        40        2.0000           -0.5245602             -14.2740
        41        2.0000           -0.5120515             -13.9336 (HOMO)
        42                         -0.4545625             -12.3693 (LUMO)
        43                         -0.4272569             -11.6263
        44                         -0.3385252              -9.2117
        45                         -0.2959901              -8.0543
        46                         -0.1737968              -4.7293
        47                         -0.1317403              -3.5848
        48                         -0.0802163              -2.1828
        49                         -0.0712992              -1.9402
        50                         -0.0421718              -1.1476
        51                         -0.0382623              -1.0412
        52                         -0.0255868              -0.6963
       ...                                ...                  ...
        79                          0.5086319              13.8406
      -------------------------------------------------------------
                  HL-Gap            0.0574889 Eh            1.5644 eV

     #   Z          covCN         q      C6AA      α(0)
     1   6 C        3.753    -0.124    22.930     6.828
     2   6 C        3.758    -0.031    21.177     6.561
     3   7 N        2.749     0.110    19.356     6.534
     4   6 C        2.892     0.029    27.363     8.576
     5   6 C        2.914    -0.013    28.341     8.730
     6   6 C        2.926     0.005    27.901     8.662
     7   6 C        2.967     0.010    27.790     8.647
     8   6 C        2.900     0.036    27.183     8.549
     9   6 C        2.776     0.261    22.600     7.786
    10   8 O        0.860    -0.412    21.916     6.277
    11   7 N        2.732    -0.073    22.653     7.069
    12   6 C        3.741    -0.005    20.744     6.498
    13   6 C        3.751    -0.118    22.819     6.812
    14   6 C        3.756    -0.002    20.676     6.483
    15   6 C        3.752    -0.117    22.805     6.810
    16   1 H        0.925     0.066     2.130     2.282
    17   1 H        0.925     0.090     1.874     2.141
    18   1 H        0.925     0.066     2.127     2.281
    19   1 H        0.924     0.094     1.842     2.123
    20   1 H        0.924     0.097     1.811     2.104
    21   1 H        0.926     0.108     1.717     2.049
    22   1 H        0.926     0.106     1.733     2.058
    23   1 H        0.926     0.101     1.778     2.085
    24   1 H        0.926     0.117     1.640     2.002
    25   1 H        0.924     0.066     2.128     2.281
    26   1 H        0.924     0.040     2.447     2.446
    27   1 H        0.925     0.067     2.116     2.275
    28   1 H        0.925     0.062     2.175     2.306
    29   1 H        0.925     0.047     2.358     2.402
    30   1 H        0.924     0.077     2.006     2.215
    31   1 H        0.925     0.062     2.181     2.309
    32   1 H        0.925     0.062     2.173     2.305
    33   1 H        0.925     0.064     2.149     2.292
    34   1 H        0.925     0.050     2.315     2.379

Wiberg/Mayer (AO) data.
largest (>0.10) Wiberg bond orders for each atom

     #   Z sym  total        # sym  WBO       # sym  WBO       # sym  WBO
 ---------------------------------------------------------------------------
     1   6 C    3.979 --     2 C    0.996    16 H    0.984    18 H    0.984
                            17 H    0.974
     2   6 C    3.934 --     1 C    0.996    19 H    0.964    20 H    0.962
                             3 N    0.958
     3   7 N    3.766 --     8 C    1.340     4 C    1.321     2 C    0.958
     4   6 C    3.957 --     5 C    1.457     3 N    1.321    21 H    0.955
     5   6 C    3.981 --     4 C    1.457     6 C    1.428    22 H    0.959
     6   6 C    3.975 --     5 C    1.428     7 C    1.382    23 H    0.959
     7   6 C    3.967 --     8 C    1.416     6 C    1.382     9 C    0.934
     8   6 C    3.954 --     7 C    1.416     3 N    1.340    24 H    0.951
     9   6 C    3.967 --    10 O    1.637    11 N    1.307     7 C    0.934
    10   8 O    2.041 --     9 C    1.637    11 N    0.223
    11   7 N    3.551 --     9 C    1.307    12 C    0.985    14 C    0.963
                            10 O    0.223
    12   6 C    3.967 --    13 C    1.009    11 N    0.985    26 H    0.966
                            25 H    0.963
    13   6 C    3.989 --    12 C    1.009    29 H    0.983    27 H    0.982
                            28 H    0.981
    14   6 C    3.952 --    15 C    1.010    31 H    0.972    30 H    0.963
                            11 N    0.963
    15   6 C    3.988 --    14 C    1.010    34 H    0.985    32 H    0.984
                            33 H    0.980
    16   1 H    0.996 --     1 C    0.984
    17   1 H    0.991 --     1 C    0.974
    18   1 H    0.996 --     1 C    0.984
    19   1 H    0.991 --     2 C    0.964
    20   1 H    0.990 --     2 C    0.962
    21   1 H    0.988 --     4 C    0.955
    22   1 H    0.988 --     5 C    0.959
    23   1 H    0.990 --     6 C    0.959
    24   1 H    0.986 --     8 C    0.951
    25   1 H    0.995 --    12 C    0.963
    26   1 H    0.998 --    12 C    0.966
    27   1 H    0.995 --    13 C    0.982
    28   1 H    0.995 --    13 C    0.981
    29   1 H    0.998 --    13 C    0.983
    30   1 H    0.994 --    14 C    0.963
    31   1 H    0.996 --    14 C    0.972
    32   1 H    0.996 --    15 C    0.984
    33   1 H    0.995 --    15 C    0.980
    34   1 H    0.997 --    15 C    0.985
 ---------------------------------------------------------------------------

molecular dipole:
                 x           y           z       tot (Debye)
 q only:        0.255      -3.089      -3.038
   full:        0.173      -2.886      -3.089      10.754

           -------------------------------------------------
          | TOTAL ENERGY              -44.917947746124 Eh   |
          | GRADIENT NORM               0.000490079191 Eh/α |
          | HOMO-LUMO GAP               1.564353510201 eV   |
           -------------------------------------------------

 * finished run on 2024/12/20 at 07:20:18.131
