   * xtb version 6.7.1 (edcfbbe) compiled by 'conda@3ef47c1a292c' on 2024-11-25

   ID    Z sym.   atoms
    1    6 C      1-3, 5-11, 13, 14
    2    7 N      4
    3    8 O      12
    4    1 H      15-32

          program call               : xtb C1341.xyz --opt --namespace C1341 --charge +1
          :  Hamiltonian                  GFN2-xTB          :
 * total energy  :   -41.4177907 Eh     change       -0.3582485E-09 Eh
 * total energy  :   -41.4258000 Eh     change       -0.8009366E-02 Eh
 * total energy  :   -41.4278030 Eh     change       -0.2002967E-02 Eh
 * total energy  :   -41.4280649 Eh     change       -0.2618771E-03 Eh
 * total energy  :   -41.4282590 Eh     change       -0.1940968E-03 Eh
 * total energy  :   -41.4283395 Eh     change       -0.8057265E-04 Eh
 * total energy  :   -41.4283846 Eh     change       -0.4505546E-04 Eh
 * total energy  :   -41.4284637 Eh     change       -0.7908076E-04 Eh
 * total energy  :   -41.4285584 Eh     change       -0.9468656E-04 Eh
 * total energy  :   -41.4286460 Eh     change       -0.8758602E-04 Eh
 * total energy  :   -41.4359289 Eh     change       -0.2045970E-04 Eh
 * total energy  :   -41.4359482 Eh     change       -0.1930023E-04 Eh
 * total energy  :   -41.4359690 Eh     change       -0.2083649E-04 Eh
 * total energy  :   -41.4359941 Eh     change       -0.2505601E-04 Eh
 * total energy  :   -41.4360234 Eh     change       -0.2930270E-04 Eh
 * total energy  :   -41.4360522 Eh     change       -0.2879881E-04 Eh
 * total energy  :   -41.4360657 Eh     change       -0.1349520E-04 Eh
 * total energy  :   -41.4360708 Eh     change       -0.5170764E-05 Eh
 * total energy  :   -41.4360734 Eh     change       -0.2611302E-05 Eh
   *** GEOMETRY OPTIMIZATION CONVERGED AFTER 62 ITERATIONS ***

 final structure:
================
32
 xtb: 6.7.1 (edcfbbe)
C           -0.08531429748546        0.43515727026188       -0.31501963486874
C           -0.00854727685279       -0.42606841240742        0.68259039560517
C           -1.17443343919959       -1.24896657216594        1.14926903396742
N           -1.15189686703855       -2.64370199730566        0.58795341679412
C           -1.20423663479920       -2.57461431757145       -0.89248143381075
C           -0.18300650324760       -3.09078185270209       -1.67943149462828
C           -0.21837528176805       -3.03312423239389       -3.06652140681398
C            0.88495043731338       -3.62026477203496       -3.88363158685043
C           -1.31476935069479       -2.43583758440002       -3.67562233241479
C           -2.33802001915072       -1.91965863913264       -2.91163074612432
C           -2.30468181539383       -1.97883112289318       -1.52246069691044
O           -3.32952591897831       -1.45697048189098       -0.78970123018099
C           -2.32683940856746       -3.39755351552337        1.07591603061159
C            0.05129870400823       -3.32878053401538        1.09415707601626
H           -0.99853452014945        0.60031456138053       -0.86247212556850
H            0.76199800502098        1.02395690650749       -0.61794022913876
H            0.91772596875100       -0.54696169302401        1.22622841142363
H           -1.16836743170413       -1.33215535329562        2.23790164149107
H           -2.10778866505108       -0.78111120519473        0.83678654589269
H            0.67681055610615       -3.55945415389040       -1.23383965674465
H            0.58950163032286       -4.60218647482432       -4.25217803061976
H            1.09623480285330       -2.99574765375109       -4.74747167064078
H            1.79387490105260       -3.73614030499017       -3.30067263733444
H           -1.36748808039828       -2.37552333835894       -4.75088590766243
H           -3.18902603834339       -1.45620923852205       -3.38991893290742
H           -4.00742042115871       -1.09976220730082       -1.37847675769218
H           -2.32570021131346       -4.39335944811920        0.63564006115970
H           -2.28819661551252       -3.48507121882787        2.15996882874720
H           -3.24479916389937       -2.88699261542898        0.79664180443521
H            0.95158402490753       -2.81535167828049        0.76607143288064
H            0.02718376774000       -3.32510095739912        2.18295989598716
H            0.07044516262109       -4.36216716250030        0.75323193589455

          :  Hamiltonian                  GFN2-xTB          :
         :: total energy             -41.436073436100 Eh    ::
         :: gradient norm              0.000538145389 Eh/a0 ::
         :: HOMO-LUMO gap              3.991986624997 eV    ::
         :: SCC energy               -42.084801530664 Eh    ::
         :: -> dispersion             -0.029848746607 Eh    ::
         :: repulsion energy           0.648728094564 Eh    ::

    * Orbital Energies and Occupations

         #    Occupation            Energy/Eh            Energy/eV
      -------------------------------------------------------------
         1        2.0000           -0.8575270             -23.3345
       ...           ...                  ...                  ...
        26        2.0000           -0.6230749             -16.9547
        27        2.0000           -0.6177869             -16.8108
        28        2.0000           -0.6158792             -16.7589
        29        2.0000           -0.6145885             -16.7238
        30        2.0000           -0.5950346             -16.1917
        31        2.0000           -0.5794269             -15.7670
        32        2.0000           -0.5765672             -15.6892
        33        2.0000           -0.5712185             -15.5436
        34        2.0000           -0.5694637             -15.4959
        35        2.0000           -0.5610820             -15.2678
        36        2.0000           -0.5524484             -15.0329
        37        2.0000           -0.5490781             -14.9412
        38        2.0000           -0.5177400             -14.0884 (HOMO)
        39                         -0.3710372             -10.0964 (LUMO)
        40                         -0.3549514              -9.6587
        41                         -0.3540428              -9.6340
        42                         -0.2364826              -6.4350
        43                         -0.2099506              -5.7130
        44                         -0.1455957              -3.9619
        45                         -0.1278947              -3.4802
        46                         -0.1117848              -3.0418
        47                         -0.0864030              -2.3511
        48                         -0.0402327              -1.0948
        49                         -0.0238478              -0.6489
       ...                                ...                  ...
        74                          0.5052838              13.7495
      -------------------------------------------------------------
                  HL-Gap            0.1467028 Eh            3.9920 eV

     #   Z          covCN         q      C6AA      α(0)
     1   6 C        2.838    -0.076    29.888     8.959
     2   6 C        2.884    -0.042    29.029     8.833
     3   6 C        3.768    -0.039    21.313     6.579
     4   7 N        3.624     0.133    18.975     6.470
     5   6 C        2.924     0.009    27.821     8.650
     6   6 C        2.928    -0.056    29.401     8.892
     7   6 C        2.966     0.027    27.404     8.587
     8   6 C        3.759    -0.124    22.928     6.827
     9   6 C        2.924    -0.030    28.760     8.795
    10   6 C        2.919    -0.062    29.536     8.912
    11   6 C        2.845     0.136    25.034     8.200
    12   8 O        1.659    -0.397    20.785     6.155
    13   6 C        3.726    -0.093    22.374     6.754
    14   6 C        3.722    -0.089    22.307     6.745
    15   1 H        0.926     0.061     2.188     2.313
    16   1 H        0.926     0.076     2.017     2.221
    17   1 H        0.926     0.059     2.208     2.324
    18   1 H        0.924     0.081     1.972     2.196
    19   1 H        0.925     0.109     1.701     2.040
    20   1 H        0.926     0.065     2.136     2.286
    21   1 H        0.925     0.075     2.031     2.228
    22   1 H        0.925     0.071     2.071     2.250
    23   1 H        0.925     0.060     2.196     2.318
    24   1 H        0.926     0.075     2.033     2.230
    25   1 H        0.926     0.063     2.159     2.298
    26   1 H        0.805     0.323     0.656     1.272
    27   1 H        0.925     0.091     1.869     2.138
    28   1 H        0.925     0.089     1.884     2.147
    29   1 H        0.925     0.116     1.647     2.007
    30   1 H        0.925     0.099     1.794     2.094
    31   1 H        0.925     0.093     1.846     2.125
    32   1 H        0.925     0.094     1.838     2.120

Wiberg/Mayer (AO) data.
largest (>0.10) Wiberg bond orders for each atom

     #   Z sym  total        # sym  WBO       # sym  WBO       # sym  WBO
 ---------------------------------------------------------------------------
     1   6 C    3.984 --     2 C    1.984    16 H    0.972    15 H    0.972
     2   6 C    3.984 --     1 C    1.984     3 C    1.017    17 H    0.963
     3   6 C    3.928 --     2 C    1.017    18 H    0.964    19 H    0.955
                             4 N    0.908
     4   7 N    3.809 --    14 C    0.963    13 C    0.952     5 C    0.918
                             3 C    0.908
     5   6 C    3.917 --     6 C    1.417    11 C    1.344     4 N    0.918
                             9 C    0.101
     6   6 C    3.986 --     5 C    1.417     7 C    1.407    20 H    0.958
                            10 C    0.103
     7   6 C    3.987 --     6 C    1.407     9 C    1.390     8 C    1.035
     8   6 C    3.990 --     7 C    1.035    23 H    0.981    22 H    0.973
                            21 H    0.958
     9   6 C    3.987 --    10 C    1.464     7 C    1.390    24 H    0.965
                             5 C    0.101
    10   6 C    3.987 --     9 C    1.464    11 C    1.367    25 H    0.961
                             6 C    0.103
    11   6 C    3.943 --    10 C    1.367     5 C    1.344    12 O    1.069
    12   8 O    2.124 --    11 C    1.069    26 H    0.870
    13   6 C    3.925 --    27 H    0.977    28 H    0.975    29 H    0.965
                             4 N    0.952
    14   6 C    3.933 --    32 H    0.975    31 H    0.973    30 H    0.971
                             4 N    0.963
    15   1 H    0.996 --     1 C    0.972
    16   1 H    0.994 --     1 C    0.972
    17   1 H    0.996 --     2 C    0.963
    18   1 H    0.993 --     3 C    0.964
    19   1 H    0.988 --     3 C    0.955
    20   1 H    0.995 --     6 C    0.958
    21   1 H    0.993 --     8 C    0.958
    22   1 H    0.994 --     8 C    0.973
    23   1 H    0.996 --     8 C    0.981
    24   1 H    0.994 --     9 C    0.965
    25   1 H    0.995 --    10 C    0.961
    26   1 H    0.895 --    12 O    0.870
    27   1 H    0.991 --    13 C    0.977
    28   1 H    0.991 --    13 C    0.975
    29   1 H    0.987 --    13 C    0.965
    30   1 H    0.990 --    14 C    0.971
    31   1 H    0.991 --    14 C    0.973
    32   1 H    0.991 --    14 C    0.975
 ---------------------------------------------------------------------------

molecular dipole:
                 x           y           z       tot (Debye)
 q only:       -2.077      -4.700      -0.561
   full:       -2.249      -4.675      -0.617      13.279

           -------------------------------------------------
          | TOTAL ENERGY              -41.436073436100 Eh   |
          | GRADIENT NORM               0.000538145389 Eh/α |
          | HOMO-LUMO GAP               3.991986624997 eV   |
           -------------------------------------------------

 * finished run on 2024/12/20 at 07:20:13.023
