   * xtb version 6.7.1 (edcfbbe) compiled by 'conda@3ef47c1a292c' on 2024-11-25

   ID    Z sym.   atoms
    1    8 O      1, 8
    2    7 N      2, 5
    3    6 C      3, 4, 6, 7
    4   35 Br     9
    5    1 H      10-15

          program call               : xtb C1344.xyz --opt --namespace C1344 --charge +1
          :  Hamiltonian                  GFN2-xTB          :
 * total energy  :   -29.1735119 Eh     change       -0.4282512E-09 Eh
 * total energy  :   -29.1785710 Eh     change       -0.5059125E-02 Eh
 * total energy  :   -29.1800692 Eh     change       -0.1498164E-02 Eh
 * total energy  :   -29.1801367 Eh     change       -0.6753022E-04 Eh
 * total energy  :   -29.1801695 Eh     change       -0.3282277E-04 Eh
 * total energy  :   -29.1801707 Eh     change       -0.1106427E-05 Eh
   *** GEOMETRY OPTIMIZATION CONVERGED AFTER 6 ITERATIONS ***

 final structure:
================
15
 xtb: 6.7.1 (edcfbbe)
O            1.03430577319729       -0.25542581227563        0.02674255690521
N            0.38074162260121       -0.01110100346571        1.18646806826675
C            0.68897460104083        0.91921034948341        2.12820903223951
C           -0.25144349203188        0.79616169176146        3.11903858983695
N           -1.09413476148531       -0.20893289652802        2.73357171355189
C           -0.70630341405556       -0.70361668589877        1.54822418549898
C           -1.35776394368876       -1.79092500777412        0.80812891010153
O           -2.17042933749966       -0.68006570347253        3.39506518607814
Br          -0.49662875441759        1.71604816281658        4.73194109779198
H            1.79579864472713        0.34137247579931       -0.07144820121105
H            1.51935572765146        1.59351928680339        2.05833824959229
H           -1.32122882723937       -2.71659696235307        1.38324635127165
H           -2.40995783224412       -1.55845302691537        0.64440006345563
H           -0.86106957576068       -1.93900825647985       -0.14668889066621
H           -2.28664643079499       -0.19088661150109        4.23268308728675

          :  Hamiltonian                  GFN2-xTB          :
         :: total energy             -29.180170652136 Eh    ::
         :: gradient norm              0.000284588261 Eh/a0 ::
         :: HOMO-LUMO gap              4.120265337093 eV    ::
         :: SCC energy               -29.450253441616 Eh    ::
         :: -> dispersion             -0.011748497584 Eh    ::
         :: repulsion energy           0.270082789479 Eh    ::

    * Orbital Energies and Occupations

         #    Occupation            Energy/Eh            Energy/eV
      -------------------------------------------------------------
         1        2.0000           -1.0083036             -27.4373
       ...           ...                  ...                  ...
        13        2.0000           -0.7637843             -20.7836
        14        2.0000           -0.7388639             -20.1055
        15        2.0000           -0.7309022             -19.8889
        16        2.0000           -0.7010052             -19.0753
        17        2.0000           -0.6899389             -18.7742
        18        2.0000           -0.6789636             -18.4755
        19        2.0000           -0.6781297             -18.4528
        20        2.0000           -0.6682120             -18.1830
        21        2.0000           -0.6412143             -17.4483
        22        2.0000           -0.6225051             -16.9392
        23        2.0000           -0.6064435             -16.5022
        24        2.0000           -0.5924119             -16.1203
        25        2.0000           -0.5745551             -15.6344 (HOMO)
        26                         -0.4231382             -11.5142 (LUMO)
        27                         -0.4107550             -11.1772
        28                         -0.3849657             -10.4755
        29                         -0.2947680              -8.0210
        30                         -0.2242303              -6.1016
        31                         -0.1855604              -5.0494
        32                         -0.1449935              -3.9455
        33                         -0.1342144              -3.6522
        34                         -0.1099149              -2.9909
        35                         -0.0924905              -2.5168
        36                         -0.0807469              -2.1972
       ...                                ...                  ...
        47                          0.4283246              11.6553
      -------------------------------------------------------------
                  HL-Gap            0.1514170 Eh            4.1203 eV

     #   Z          covCN         q      C6AA      α(0)
     1   8 O        1.724    -0.287    18.756     5.847
     2   7 N        2.902     0.190    18.084     6.316
     3   6 C        3.046    -0.051    29.213     8.865
     4   6 C        3.016     0.079    26.211     8.398
     5   7 N        2.950     0.174    18.328     6.358
     6   6 C        3.044     0.091    25.942     8.354
     7   6 C        3.754    -0.141    23.265     6.878
     8   8 O        1.724    -0.280    18.649     5.831
     9  35 Br       0.999    -0.025   185.665    21.970
    10   1 H        0.804     0.365     0.554     1.169
    11   1 H        0.926     0.132     1.519     1.927
    12   1 H        0.924     0.129     1.539     1.940
    13   1 H        0.925     0.129     1.545     1.944
    14   1 H        0.925     0.124     1.582     1.967
    15   1 H        0.803     0.369     0.545     1.160

Wiberg/Mayer (AO) data.
largest (>0.10) Wiberg bond orders for each atom

     #   Z sym  total        # sym  WBO       # sym  WBO       # sym  WBO
 ---------------------------------------------------------------------------
     1   8 O    2.035 --     2 N    1.030    10 H    0.851
     2   7 N    3.707 --     6 C    1.288     3 C    1.205     1 O    1.030
     3   6 C    3.926 --     4 C    1.493     2 N    1.205    11 H    0.954
     4   6 C    3.926 --     3 C    1.493     5 N    1.178     9 Br   1.065
     5   7 N    3.698 --     6 C    1.272     4 C    1.178     8 O    1.035
     6   6 C    3.925 --     2 N    1.288     5 N    1.272     7 C    1.056
     7   6 C    3.955 --     6 C    1.056    14 H    0.964    13 H    0.938
                            12 H    0.934
     8   8 O    2.043 --     5 N    1.035    15 H    0.838
     9  35 Br   1.248 --     4 C    1.065
    10   1 H    0.866 --     1 O    0.851
    11   1 H    0.983 --     3 C    0.954
    12   1 H    0.983 --     7 C    0.934
    13   1 H    0.983 --     7 C    0.938
    14   1 H    0.984 --     7 C    0.964
    15   1 H    0.863 --     8 O    0.838
 ---------------------------------------------------------------------------

molecular dipole:
                 x           y           z       tot (Debye)
 q only:       -0.564      -0.267       3.484
   full:       -0.153       0.303       3.789       9.669

           -------------------------------------------------
          | TOTAL ENERGY              -29.180170652136 Eh   |
          | GRADIENT NORM               0.000284588261 Eh/α |
          | HOMO-LUMO GAP               4.120265337093 eV   |
           -------------------------------------------------

 * finished run on 2024/12/20 at 07:20:13.681
