   * xtb version 6.7.1 (edcfbbe) compiled by 'conda@3ef47c1a292c' on 2024-11-25

   ID    Z sym.   atoms
    1    6 C      1, 3, 5-24
    2    7 N      2, 4
    3    1 H      25-65

          program call               : xtb C1354.xyz --opt --namespace C1354 --charge +1
          :  Hamiltonian                  GFN2-xTB          :
 * total energy  :   -73.4946593 Eh     change       -0.5554028E-09 Eh
 * total energy  :   -73.4993332 Eh     change       -0.4673869E-02 Eh
 * total energy  :   -73.5004376 Eh     change       -0.1104406E-02 Eh
 * total energy  :   -73.5006483 Eh     change       -0.2107178E-03 Eh
 * total energy  :   -73.5007751 Eh     change       -0.1267736E-03 Eh
 * total energy  :   -73.5008013 Eh     change       -0.2622827E-04 Eh
 * total energy  :   -73.5008577 Eh     change       -0.5639229E-04 Eh
 * total energy  :   -73.5008920 Eh     change       -0.3429549E-04 Eh
 * total energy  :   -73.5009680 Eh     change       -0.7601209E-04 Eh
 * total energy  :   -73.5010472 Eh     change       -0.7919270E-04 Eh
 * total energy  :   -73.5018647 Eh     change       -0.3268079E-04 Eh
 * total energy  :   -73.5018849 Eh     change       -0.2021425E-04 Eh
 * total energy  :   -73.5019143 Eh     change       -0.2937835E-04 Eh
 * total energy  :   -73.5019361 Eh     change       -0.2176798E-04 Eh
 * total energy  :   -73.5019516 Eh     change       -0.1552229E-04 Eh
 * total energy  :   -73.5019617 Eh     change       -0.1010920E-04 Eh
 * total energy  :   -73.5019708 Eh     change       -0.9075762E-05 Eh
 * total energy  :   -73.5019789 Eh     change       -0.8108033E-05 Eh
 * total energy  :   -73.5019832 Eh     change       -0.4245252E-05 Eh
   *** GEOMETRY OPTIMIZATION CONVERGED AFTER 45 ITERATIONS ***

 final structure:
================
65
 xtb: 6.7.1 (edcfbbe)
C            1.97632775675413       -0.48478873557887       -0.59322715525766
N            0.89810913352846       -0.55826561900007       -1.54203095202960
C            0.64159824275162        0.30590308115650       -2.52074937869801
N           -0.42557506711773       -0.09936075455469       -3.20289970395956
C           -0.87049251040267       -1.25395018357147       -2.63639331950873
C           -0.03895512580973       -1.54510802394867       -1.59797812019880
C           -1.07076571541425        0.61000814644277       -4.28300903723809
C           -2.15553076752473        1.55433328573586       -3.74935061445900
C           -1.61749427959656        2.68818148304738       -2.87670758967070
C           -0.66766314816870        3.65649365682270       -3.58672450895570
C           -1.26205077499874        4.36302354421944       -4.80748407520508
C           -2.51750244037698        5.19111025533252       -4.52560215314535
C           -2.35169681277736        6.27501210761422       -3.45810699207755
C           -1.23447959566812        7.28911932948385       -3.73671046397021
C           -1.46138285389786        8.08039027804092       -4.98746325985670
C           -1.62366967123385        9.39231973967005       -5.01908483034683
C           -1.83523494648898       10.19225245751200       -6.26259072698586
C           -3.17852025586993       10.93465699775761       -6.27478792606742
C           -3.35463081545958       11.96878907924684       -5.16082557811243
C           -2.27663209919187       13.05331674381748       -5.10459046559936
C           -2.11565100482208       13.87277914341510       -6.38633515685932
C           -3.36716714995165       14.63283944832331       -6.83027431931421
C           -3.89996821743148       15.64783245663623       -5.81780666137528
C           -2.91374510405334       16.76934740726516       -5.51371492917160
H            1.58653462160636       -0.56609276859818        0.42111449663437
H            2.49969257388904        0.46216470477166       -0.69983385874057
H            2.68061264607441       -1.30084445843315       -0.75901711337114
H            1.21541716225062        1.18682731719633       -2.73442791717881
H           -1.72559789329087       -1.78420094338613       -3.00304850804000
H           -0.05053952958254       -2.36838539162712       -0.91333735981832
H           -0.31690061768832        1.17439194245088       -4.83291644807315
H           -1.51944806307348       -0.12570563498958       -4.95286360295902
H           -2.67789077725801        1.97320822498474       -4.60787337179472
H           -2.87950393591669        0.97370455829115       -3.17378812017915
H           -2.47232688666770        3.25110884542969       -2.50298873659363
H           -1.10961039437434        2.27018648578412       -2.00124943362722
H           -0.35747983758559        4.40881220306482       -2.86061105875483
H            0.23890814500367        3.13309868526821       -3.90544926977223
H           -0.49268509851559        5.01650252682159       -5.22115916750864
H           -1.49834823938447        3.62781582181814       -5.58077700354877
H           -2.82459460439520        5.66110342948991       -5.46077026184054
H           -3.33312473955734        4.53082324595420       -4.22078196302708
H           -3.29602717266594        6.81796057869700       -3.38178875360384
H           -2.16664488834604        5.81005359630523       -2.48649095138582
H           -1.17464995901952        7.97322017882394       -2.88762915563327
H           -0.27532175995500        6.76823842143899       -3.80773955806312
H           -1.47447576655841        7.51596275827817       -5.91096783588286
H           -1.59636876649006        9.95559803269565       -4.09574205270041
H           -1.02497300779621       10.91859253206880       -6.36034998250805
H           -1.79527345023340        9.53049225004323       -7.13121453095251
H           -3.28829982034994       11.42609005766189       -7.24309592052373
H           -3.98266588978235       10.19885408771508       -6.18952605356215
H           -4.33060419562183       12.44064146378741       -5.29099714824105
H           -3.37647997560759       11.45713472721278       -4.19577242830697
H           -2.51487150309344       13.72497676851568       -4.27747339646506
H           -1.31367559179414       12.59369730216675       -4.86965571600469
H           -1.30164398611675       14.58449086613122       -6.23507619288670
H           -1.81182947503277       13.21236071383404       -7.20148202232619
H           -3.12953311873538       15.16057542184586       -7.75772336672698
H           -4.16114642554391       13.91901365511904       -7.05960836663012
H           -4.81409774063381       16.08517482035746       -6.22704206154139
H           -4.17155464930607       15.14054943998733       -4.89039991914957
H           -2.60453278312384       17.26350294198429       -6.43224041279232
H           -3.37496720697894       17.51091919263549       -4.86536442729051
H           -2.02784417549528       16.38829607350671       -5.01239313061317

          :  Hamiltonian                  GFN2-xTB          :
         :: total energy             -73.501983155269 Eh    ::
         :: gradient norm              0.000548066725 Eh/a0 ::
         :: HOMO-LUMO gap              0.852243609532 eV    ::
         :: SCC energy               -74.631443705096 Eh    ::
         :: -> dispersion             -0.054154626931 Eh    ::
         :: repulsion energy           1.129460549827 Eh    ::

    * Orbital Energies and Occupations

         #    Occupation            Energy/Eh            Energy/eV
      -------------------------------------------------------------
         1        2.0000           -0.8959524             -24.3801
       ...           ...                  ...                  ...
        57        2.0000           -0.5025570             -13.6753
        58        2.0000           -0.4975744             -13.5397
        59        2.0000           -0.4925922             -13.4041
        60        2.0000           -0.4901239             -13.3369
        61        2.0000           -0.4821027             -13.1187
        62        2.0000           -0.4782810             -13.0147
        63        2.0000           -0.4711403             -12.8204
        64        2.0000           -0.4672904             -12.7156
        65        2.0000           -0.4630698             -12.6008
        66        2.0000           -0.4540886             -12.3564
        67        2.0000           -0.4494514             -12.2302
        68        2.0000           -0.4482478             -12.1974
        69        2.0000           -0.4369020             -11.8887 (HOMO)
        70        0.0000           -0.4055827             -11.0365 (LUMO)
        71                         -0.3704221             -10.0797
        72                         -0.2474677              -6.7339
        73                         -0.1823106              -4.9609
        74                         -0.1275829              -3.4717
        75                         -0.0632199              -1.7203
        76                         -0.0580910              -1.5807
        77                         -0.0402766              -1.0960
        78                         -0.0300067              -0.8165
        79                         -0.0203583              -0.5540
        80                         -0.0158643              -0.4317
       ...                                ...                  ...
       137                          0.5900708              16.0566
      -------------------------------------------------------------
                  HL-Gap            0.0313194 Eh            0.8522 eV

     #   Z          covCN         q      C6AA      α(0)
     1   6 C        3.692    -0.086    22.329     6.761
     2   7 N        2.867     0.075    19.938     6.632
     3   6 C        3.101     0.047    26.832     8.488
     4   7 N        2.868     0.072    19.984     6.639
     5   6 C        3.075    -0.006    28.090     8.690
     6   6 C        3.072    -0.009    28.170     8.702
     7   6 C        3.742    -0.028    21.148     6.561
     8   6 C        3.802    -0.070    21.847     6.655
     9   6 C        3.800    -0.065    21.751     6.640
    10   6 C        3.800    -0.061    21.672     6.628
    11   6 C        3.800    -0.061    21.665     6.627
    12   6 C        3.800    -0.060    21.647     6.624
    13   6 C        3.801    -0.055    21.571     6.613
    14   6 C        3.805    -0.057    21.604     6.617
    15   6 C        2.890    -0.051    29.276     8.871
    16   6 C        2.890    -0.040    28.988     8.827
    17   6 C        3.805    -0.058    21.604     6.617
    18   6 C        3.801    -0.053    21.526     6.606
    19   6 C        3.800    -0.056    21.577     6.614
    20   6 C        3.800    -0.056    21.575     6.613
    21   6 C        3.800    -0.057    21.596     6.617
    22   6 C        3.800    -0.057    21.599     6.617
    23   6 C        3.799    -0.052    21.506     6.603
    24   6 C        3.751    -0.101    22.498     6.764
    25   1 H        0.925     0.107     1.724     2.053
    26   1 H        0.925     0.099     1.793     2.094
    27   1 H        0.924     0.107     1.727     2.055
    28   1 H        0.926     0.114     1.659     2.014
    29   1 H        0.926     0.108     1.711     2.045
    30   1 H        0.926     0.109     1.706     2.043
    31   1 H        0.924     0.090     1.882     2.145
    32   1 H        0.924     0.087     1.910     2.161
    33   1 H        0.925     0.081     1.973     2.197
    34   1 H        0.924     0.052     2.299     2.371
    35   1 H        0.925     0.065     2.146     2.291
    36   1 H        0.924     0.018     2.760     2.598
    37   1 H        0.924     0.049     2.331     2.388
    38   1 H        0.924     0.013     2.847     2.639
    39   1 H        0.924     0.046     2.366     2.406
    40   1 H        0.924     0.025     2.660     2.550
    41   1 H        0.924     0.044     2.399     2.422
    42   1 H        0.924     0.026     2.649     2.545
    43   1 H        0.924     0.038     2.481     2.463
    44   1 H        0.924     0.024     2.675     2.558
    45   1 H        0.924     0.034     2.530     2.488
    46   1 H        0.924     0.030     2.583     2.513
    47   1 H        0.925     0.024     2.666     2.554
    48   1 H        0.925     0.033     2.539     2.492
    49   1 H        0.924     0.045     2.385     2.415
    50   1 H        0.924     0.029     2.607     2.525
    51   1 H        0.924     0.035     2.514     2.480
    52   1 H        0.924     0.026     2.650     2.546
    53   1 H        0.924     0.033     2.548     2.496
    54   1 H        0.924     0.026     2.639     2.540
    55   1 H        0.924     0.032     2.560     2.502
    56   1 H        0.924     0.027     2.635     2.539
    57   1 H        0.924     0.031     2.567     2.506
    58   1 H        0.924     0.028     2.620     2.531
    59   1 H        0.924     0.029     2.606     2.525
    60   1 H        0.924     0.028     2.614     2.528
    61   1 H        0.924     0.027     2.630     2.536
    62   1 H        0.924     0.030     2.587     2.515
    63   1 H        0.925     0.034     2.535     2.490
    64   1 H        0.925     0.031     2.567     2.505
    65   1 H        0.925     0.034     2.533     2.489

Wiberg/Mayer (AO) data.
largest (>0.10) Wiberg bond orders for each atom

     #   Z sym  total        # sym  WBO       # sym  WBO       # sym  WBO
 ---------------------------------------------------------------------------
     1   6 C    3.934 --     2 N    0.991    26 H    0.976    25 H    0.964
                            27 H    0.961
     2   7 N    3.719 --     3 C    1.357     6 C    1.227     1 C    0.991
     3   6 C    3.946 --     4 N    1.362     2 N    1.357    28 H    0.951
     4   7 N    3.720 --     3 C    1.362     5 C    1.231     7 C    0.967
     5   6 C    3.951 --     6 C    1.591     4 N    1.231    29 H    0.961
     6   6 C    3.948 --     5 C    1.591     2 N    1.227    30 H    0.961
     7   6 C    3.934 --     8 C    0.980     4 N    0.967    32 H    0.964
                            31 H    0.961
     8   6 C    3.983 --     9 C    1.009     7 C    0.980    34 H    0.975
                            33 H    0.962
     9   6 C    3.993 --     8 C    1.009    10 C    1.007    36 H    0.974
                            35 H    0.968
    10   6 C    3.995 --     9 C    1.007    11 C    1.007    38 H    0.973
                            37 H    0.973
    11   6 C    3.996 --    12 C    1.008    10 C    1.007    40 H    0.975
                            39 H    0.973
    12   6 C    3.996 --    13 C    1.008    11 C    1.008    42 H    0.975
                            41 H    0.974
    13   6 C    3.995 --    12 C    1.008    14 C    0.993    43 H    0.977
                            44 H    0.975
    14   6 C    3.997 --    15 C    1.023    13 C    0.993    45 H    0.975
                            46 H    0.963
    15   6 C    3.989 --    16 C    1.928    14 C    1.023    47 H    0.963
    16   6 C    3.991 --    15 C    1.928    17 C    1.029    48 H    0.962
    17   6 C    3.998 --    16 C    1.029    18 C    0.990    50 H    0.976
                            49 H    0.958
    18   6 C    3.995 --    19 C    1.008    17 C    0.990    52 H    0.979
                            51 H    0.975
    19   6 C    3.997 --    18 C    1.008    20 C    1.008    54 H    0.976
                            53 H    0.975
    20   6 C    3.998 --    21 C    1.008    19 C    1.008    56 H    0.975
                            55 H    0.975
    21   6 C    3.997 --    20 C    1.008    22 C    1.008    57 H    0.975
                            58 H    0.975
    22   6 C    3.998 --    23 C    1.008    21 C    1.008    59 H    0.977
                            60 H    0.976
    23   6 C    3.998 --    24 C    1.020    22 C    1.008    61 H    0.978
                            62 H    0.976
    24   6 C    3.997 --    23 C    1.020    63 H    0.988    64 H    0.987
                            65 H    0.986
    25   1 H    0.988 --     1 C    0.964
    26   1 H    0.990 --     1 C    0.976
    27   1 H    0.988 --     1 C    0.961
    28   1 H    0.987 --     3 C    0.951
    29   1 H    0.988 --     5 C    0.961
    30   1 H    0.988 --     6 C    0.961
    31   1 H    0.992 --     7 C    0.961
    32   1 H    0.992 --     7 C    0.964
    33   1 H    0.992 --     8 C    0.962
    34   1 H    0.997 --     8 C    0.975
    35   1 H    0.996 --     9 C    0.968
    36   1 H    1.000 --     9 C    0.974
    37   1 H    0.998 --    10 C    0.973
    38   1 H    1.000 --    10 C    0.973
    39   1 H    0.998 --    11 C    0.973
    40   1 H    0.999 --    11 C    0.975
    41   1 H    0.998 --    12 C    0.974
    42   1 H    0.999 --    12 C    0.975
    43   1 H    0.999 --    13 C    0.977
    44   1 H    0.999 --    13 C    0.975
    45   1 H    0.999 --    14 C    0.975
    46   1 H    0.999 --    14 C    0.963
    47   1 H    0.999 --    15 C    0.963
    48   1 H    0.999 --    16 C    0.962
    49   1 H    0.998 --    17 C    0.958
    50   1 H    0.999 --    17 C    0.976
    51   1 H    0.998 --    18 C    0.975
    52   1 H    0.999 --    18 C    0.979
    53   1 H    0.999 --    19 C    0.975
    54   1 H    0.999 --    19 C    0.976
    55   1 H    0.999 --    20 C    0.975
    56   1 H    0.999 --    20 C    0.975
    57   1 H    0.999 --    21 C    0.975
    58   1 H    0.999 --    21 C    0.975
    59   1 H    0.999 --    22 C    0.977
    60   1 H    0.999 --    22 C    0.976
    61   1 H    0.999 --    23 C    0.978
    62   1 H    0.999 --    23 C    0.976
    63   1 H    0.999 --    24 C    0.988
    64   1 H    0.999 --    24 C    0.987
    65   1 H    0.999 --    24 C    0.986
 ---------------------------------------------------------------------------

molecular dipole:
                 x           y           z       tot (Debye)
 q only:        0.128       0.426      -4.634
   full:        0.205       0.334      -4.627      11.802

           -------------------------------------------------
          | TOTAL ENERGY              -73.501983155269 Eh   |
          | GRADIENT NORM               0.000548066725 Eh/α |
          | HOMO-LUMO GAP               0.852243609532 eV   |
           -------------------------------------------------

 * finished run on 2024/12/20 at 07:20:46.788
