   * xtb version 6.7.1 (edcfbbe) compiled by 'conda@3ef47c1a292c' on 2024-11-25

   ID    Z sym.   atoms
    1   35 Br     1
    2    6 C      2-8, 10, 11, 13-30
    3    7 N      9, 12, 32
    4    8 O      31
    5    1 H      33-59

          program call               : xtb C1350.xyz --opt --namespace C1350 --charge +1
          :  Hamiltonian                  GFN2-xTB          :
 * total energy  :   -88.1384468 Eh     change       -0.2930960E-08 Eh
 * total energy  :   -88.1504047 Eh     change       -0.1195785E-01 Eh
 * total energy  :   -88.1540289 Eh     change       -0.3624217E-02 Eh
 * total energy  :   -88.1549980 Eh     change       -0.9691274E-03 Eh
 * total energy  :   -88.1555377 Eh     change       -0.5396450E-03 Eh
 * total energy  :   -88.1557910 Eh     change       -0.2533398E-03 Eh
 * total energy  :   -88.1559514 Eh     change       -0.1603820E-03 Eh
 * total energy  :   -88.1560946 Eh     change       -0.1431888E-03 Eh
 * total energy  :   -88.1562612 Eh     change       -0.1665762E-03 Eh
 * total energy  :   -88.1564764 Eh     change       -0.2152521E-03 Eh
 * total energy  :   -88.1579012 Eh     change       -0.2080467E-04 Eh
 * total energy  :   -88.1579228 Eh     change       -0.2160599E-04 Eh
 * total energy  :   -88.1579555 Eh     change       -0.3268171E-04 Eh
 * total energy  :   -88.1579700 Eh     change       -0.1448275E-04 Eh
 * total energy  :   -88.1579941 Eh     change       -0.2412795E-04 Eh
 * total energy  :   -88.1580021 Eh     change       -0.7924324E-05 Eh
 * total energy  :   -88.1580076 Eh     change       -0.5520968E-05 Eh
 * total energy  :   -88.1580129 Eh     change       -0.5312784E-05 Eh
 * total energy  :   -88.1580169 Eh     change       -0.3989870E-05 Eh
   *** GEOMETRY OPTIMIZATION CONVERGED AFTER 34 ITERATIONS ***

 final structure:
================
59
 xtb: 6.7.1 (edcfbbe)
Br          -2.02627448066307       -0.04352943127165       -0.76068422615915
C           -0.16641709906105        0.09030022457571       -0.38636529095340
C            0.53919641276188        1.20730569386942       -0.80946378094292
C            1.89093154995940        1.29968708078689       -0.53666652057203
C            2.54603810654276        0.28220997236263        0.14869474244803
C            1.82497725288582       -0.83018253428225        0.56468489634129
C            0.47049821310954       -0.92938527556767        0.30457762831474
C            4.02016289103021        0.40059323714760        0.46371857517664
N            4.78988284713477        0.84111496880424       -0.67635844202577
C            5.38463594525483        2.06174246593631       -0.80901086100512
C            6.01324127020076        2.06817174209888       -2.00892303447576
N            5.79029441112858        0.85404014527320       -2.59771256291671
C            5.04560398038636        0.11549677294210       -1.77068456398745
C            4.52232884860918       -1.24777928160715       -1.97978591972329
C            6.43581435165105        0.46220659465383       -3.82872912078617
C            7.95127688464353        0.27288818631912       -3.64512441228446
C            8.43067178760228       -1.14472591560133       -3.23540068522699
C            7.67353317752962       -2.18626892316167       -4.04478661417362
C            7.71007020614027       -2.11364893682842       -5.43656186418325
C            7.02689428040586       -3.03167440995497       -6.21182165588395
C            6.29072876314677       -4.04050578733185       -5.61165483377625
C            6.25146067049613       -4.12517064167963       -4.23206712590669
C            6.93799253069407       -3.20556846188158       -3.45398389875444
C            9.93596753502047       -1.24569033079299       -3.48565750051169
C           10.50065654696198       -2.36385603902124       -4.09075471005714
C           11.86977036102092       -2.44971822006314       -4.28140434241069
C           12.69972803432615       -1.42694289812176       -3.85932827257371
C           12.15073028522778       -0.32182237595044       -3.23191942150135
C           10.78335286226985       -0.23463135341081       -3.04157190024840
C            8.21291763690712       -1.36106210939706       -1.72610990508536
O            7.41719697665760       -0.71484025640639       -1.06765798331325
N            8.96153081230576       -2.33500061065812       -1.18775304535927
H            0.03261202964506        1.99802876267301       -1.33954069167196
H            2.43498946013187        2.17604412508402       -0.85805781827766
H            2.31964241447831       -1.62317183695384        1.10517774460817
H           -0.08801145510435       -1.79073805193376        0.63471352008391
H            4.16808747469530        1.13153373170612        1.26368303603341
H            4.41141783948409       -0.56178040425646        0.80396164946980
H            5.32569910555478        2.81700590130132       -0.05266819530614
H            6.58857710540155        2.83546261241181       -2.48408921545717
H            4.94742127626702       -1.91644491510441       -1.23152639777011
H            3.43879420979716       -1.25410816562347       -1.86131984175876
H            4.77762190851888       -1.63144843496685       -2.96224668501678
H            5.97631629580270       -0.44815128821520       -4.21332562055673
H            6.26869263037632        1.26464919011282       -4.55227180254983
H            8.43693035783200        0.52294022160816       -4.58833470664001
H            8.29197162555857        0.98740516466168       -2.89590478497988
H            8.29584493392564       -1.34570205983497       -5.91831587667642
H            7.07452542662212       -2.96187518522158       -7.28739329005200
H            5.75904917488124       -4.75851145656728       -6.21591042311853
H            5.68939534069718       -4.91229775270625       -3.75293940193861
H            6.90041317038727       -3.29785429739858       -2.37911867875972
H            9.87367232714345       -3.17727532169975       -4.42434690025042
H           12.28442888102101       -3.32300072973447       -4.76099608779352
H           13.76564113772867       -1.49278866630192       -4.01065620258247
H           12.78824771182989        0.47674841351342       -2.88487212880160
H           10.38407705375849        0.62869314067478       -2.53156976506863
H            9.65435666694343       -2.82702505198487       -1.72705519830086
H            8.90930204433213       -2.50337093705640       -0.19590958437912

          :  Hamiltonian                  GFN2-xTB          :
         :: total energy             -88.158016887815 Eh    ::
         :: gradient norm              0.000558371445 Eh/a0 ::
         :: HOMO-LUMO gap              3.161844182278 eV    ::
         :: SCC energy               -89.586202746053 Eh    ::
         :: -> dispersion             -0.075961707251 Eh    ::
         :: repulsion energy           1.428185858238 Eh    ::

    * Orbital Energies and Occupations

         #    Occupation            Energy/Eh            Energy/eV
      -------------------------------------------------------------
         1        2.0000           -0.9134905             -24.8573
       ...           ...                  ...                  ...
        69        2.0000           -0.5319062             -14.4739
        70        2.0000           -0.5259171             -14.3109
        71        2.0000           -0.5255120             -14.2999
        72        2.0000           -0.5212582             -14.1842
        73        2.0000           -0.5177158             -14.0878
        74        2.0000           -0.5100317             -13.8787
        75        2.0000           -0.5089250             -13.8486
        76        2.0000           -0.5046417             -13.7320
        77        2.0000           -0.4974156             -13.5354
        78        2.0000           -0.4952017             -13.4751
        79        2.0000           -0.4889699             -13.3055
        80        2.0000           -0.4875347             -13.2665
        81        2.0000           -0.4833673             -13.1531 (HOMO)
        82                         -0.3671717              -9.9912 (LUMO)
        83                         -0.3489926              -9.4966
        84                         -0.3436870              -9.3522
        85                         -0.3370067              -9.1704
        86                         -0.3257693              -8.8646
        87                         -0.3237566              -8.8099
        88                         -0.3223905              -8.7727
        89                         -0.3158283              -8.5941
        90                         -0.3125057              -8.5037
        91                         -0.2834468              -7.7130
        92                         -0.2229915              -6.0679
       ...                                ...                  ...
       160                          0.5724693              15.5777
      -------------------------------------------------------------
                  HL-Gap            0.1161956 Eh            3.1618 eV

     #   Z          covCN         q      C6AA      α(0)
     1  35 Br       1.064    -0.130   188.626    22.144
     2   6 C        2.915     0.089    26.015     8.364
     3   6 C        2.989    -0.032    28.791     8.802
     4   6 C        2.925    -0.038    28.933     8.821
     5   6 C        2.969    -0.002    28.071     8.691
     6   6 C        2.925    -0.037    28.909     8.817
     7   6 C        2.989    -0.031    28.769     8.798
     8   6 C        3.748    -0.026    21.108     6.553
     9   7 N        2.881     0.048    20.398     6.708
    10   6 C        3.045    -0.008    28.169     8.705
    11   6 C        3.062    -0.008    28.166     8.703
    12   7 N        2.871     0.051    20.357     6.701
    13   6 C        3.104     0.127    25.093     8.208
    14   6 C        3.755    -0.128    23.017     6.841
    15   6 C        3.741    -0.017    20.963     6.532
    16   6 C        3.807    -0.061    21.672     6.627
    17   6 C        3.910    -0.020    20.872     6.494
    18   6 C        2.973     0.002    27.971     8.675
    19   6 C        2.925    -0.037    28.925     8.820
    20   6 C        2.919    -0.027    28.687     8.783
    21   6 C        2.919    -0.028    28.691     8.784
    22   6 C        2.919    -0.031    28.772     8.796
    23   6 C        2.923    -0.047    29.162     8.856
    24   6 C        2.977    -0.004    28.110     8.697
    25   6 C        2.923    -0.042    29.042     8.838
    26   6 C        2.919    -0.027    28.679     8.782
    27   6 C        2.919    -0.026    28.642     8.776
    28   6 C        2.919    -0.026    28.650     8.777
    29   6 C        2.924    -0.040    29.003     8.832
    30   6 C        2.751     0.290    22.085     7.695
    31   8 O        0.859    -0.473    23.188     6.456
    32   7 N        2.638    -0.258    26.710     7.676
    33   1 H        0.926     0.071     2.072     2.251
    34   1 H        0.926     0.043     2.407     2.426
    35   1 H        0.926     0.054     2.265     2.354
    36   1 H        0.926     0.074     2.039     2.233
    37   1 H        0.924     0.092     1.857     2.131
    38   1 H        0.924     0.089     1.888     2.149
    39   1 H        0.926     0.095     1.827     2.114
    40   1 H        0.927     0.095     1.832     2.117
    41   1 H        0.925     0.103     1.754     2.071
    42   1 H        0.925     0.090     1.879     2.144
    43   1 H        0.925     0.086     1.922     2.168
    44   1 H        0.925     0.079     1.989     2.206
    45   1 H        0.924     0.079     1.992     2.207
    46   1 H        0.925     0.067     2.123     2.278
    47   1 H        0.925     0.064     2.155     2.296
    48   1 H        0.926     0.039     2.458     2.452
    49   1 H        0.926     0.048     2.346     2.395
    50   1 H        0.926     0.049     2.337     2.390
    51   1 H        0.926     0.042     2.420     2.433
    52   1 H        0.926     0.027     2.635     2.538
    53   1 H        0.926     0.036     2.506     2.475
    54   1 H        0.926     0.047     2.363     2.404
    55   1 H        0.926     0.050     2.324     2.384
    56   1 H        0.926     0.046     2.365     2.405
    57   1 H        0.926     0.029     2.597     2.520
    58   1 H        0.860     0.200     1.108     1.649
    59   1 H        0.860     0.203     1.090     1.635

Wiberg/Mayer (AO) data.
largest (>0.10) Wiberg bond orders for each atom

     #   Z sym  total        # sym  WBO       # sym  WBO       # sym  WBO
 ---------------------------------------------------------------------------
     1  35 Br   1.161 --     2 C    1.012
     2   6 C    3.947 --     7 C    1.403     3 C    1.399     1 Br   1.012
     3   6 C    3.989 --     4 C    1.450     2 C    1.399    33 H    0.966
                             6 C    0.107
     4   6 C    3.992 --     3 C    1.450     5 C    1.406    34 H    0.967
                             7 C    0.108
     5   6 C    3.983 --     6 C    1.409     4 C    1.406     8 C    0.988
     6   6 C    3.989 --     7 C    1.445     5 C    1.409    35 H    0.966
                             3 C    0.107
     7   6 C    3.988 --     6 C    1.445     2 C    1.403    36 H    0.965
                             4 C    0.108
     8   6 C    3.945 --     5 C    0.988     9 N    0.972    38 H    0.956
                            37 H    0.955
     9   7 N    3.691 --    13 C    1.325    10 C    1.203     8 C    0.972
    10   6 C    3.949 --    11 C    1.616     9 N    1.203    39 H    0.963
    11   6 C    3.949 --    10 C    1.616    12 N    1.200    40 H    0.963
    12   7 N    3.693 --    13 C    1.333    11 C    1.200    15 C    0.975
    13   6 C    3.954 --    12 N    1.333     9 N    1.325    14 C    1.046
    14   6 C    3.980 --    13 C    1.046    43 H    0.968    42 H    0.954
                            41 H    0.946
    15   6 C    3.946 --    16 C    0.987    12 N    0.975    45 H    0.964
                            44 H    0.958
    16   6 C    3.987 --    15 C    0.987    46 H    0.969    17 C    0.968
                            47 H    0.967
    17   6 C    3.988 --    18 C    0.971    16 C    0.968    24 C    0.961
                            30 C    0.926
    18   6 C    3.986 --    23 C    1.421    19 C    1.396    17 C    0.971
                            21 C    0.110
    19   6 C    3.991 --    20 C    1.454    18 C    1.396    48 H    0.967
                            22 C    0.112
    20   6 C    3.990 --    19 C    1.454    21 C    1.430    49 H    0.970
                            23 C    0.109
    21   6 C    3.990 --    22 C    1.447    20 C    1.430    50 H    0.970
                            18 C    0.110
    22   6 C    3.991 --    21 C    1.447    23 C    1.432    51 H    0.970
                            19 C    0.112
    23   6 C    3.991 --    22 C    1.432    18 C    1.421    52 H    0.965
                            20 C    0.109
    24   6 C    3.983 --    25 C    1.413    29 C    1.407    17 C    0.961
                            27 C    0.109
    25   6 C    3.991 --    26 C    1.438    24 C    1.413    53 H    0.965
                            28 C    0.110
    26   6 C    3.991 --    27 C    1.443    25 C    1.438    54 H    0.970
                            29 C    0.112
    27   6 C    3.989 --    26 C    1.443    28 C    1.435    55 H    0.970
                            24 C    0.109
    28   6 C    3.991 --    29 C    1.448    27 C    1.435    56 H    0.970
                            25 C    0.110
    29   6 C    3.991 --    28 C    1.448    24 C    1.407    57 H    0.967
                            26 C    0.112
    30   6 C    3.940 --    31 O    1.656    32 N    1.297    17 C    0.926
    31   8 O    1.971 --    30 C    1.656    32 N    0.197
    32   7 N    3.408 --    30 C    1.297    59 H    0.937    58 H    0.932
                            31 O    0.197
    33   1 H    0.995 --     3 C    0.966
    34   1 H    0.998 --     4 C    0.967
    35   1 H    0.997 --     6 C    0.966
    36   1 H    0.994 --     7 C    0.965
    37   1 H    0.990 --     8 C    0.955
    38   1 H    0.992 --     8 C    0.956
    39   1 H    0.990 --    10 C    0.963
    40   1 H    0.991 --    11 C    0.963
    41   1 H    0.989 --    14 C    0.946
    42   1 H    0.992 --    14 C    0.954
    43   1 H    0.992 --    14 C    0.968
    44   1 H    0.993 --    15 C    0.958
    45   1 H    0.993 --    15 C    0.964
    46   1 H    0.995 --    16 C    0.969
    47   1 H    0.995 --    16 C    0.967
    48   1 H    0.998 --    19 C    0.967
    49   1 H    0.997 --    20 C    0.970
    50   1 H    0.997 --    21 C    0.970
    51   1 H    0.998 --    22 C    0.970
    52   1 H    0.999 --    23 C    0.965
    53   1 H    0.999 --    25 C    0.965
    54   1 H    0.997 --    26 C    0.970
    55   1 H    0.997 --    27 C    0.970
    56   1 H    0.997 --    28 C    0.970
    57   1 H    0.999 --    29 C    0.967
    58   1 H    0.960 --    32 N    0.932
    59   1 H    0.958 --    32 N    0.937
 ---------------------------------------------------------------------------

molecular dipole:
                 x           y           z       tot (Debye)
 q only:       11.833      -0.496      -3.867
   full:       12.333      -0.575      -3.765      32.809

           -------------------------------------------------
          | TOTAL ENERGY              -88.158016887815 Eh   |
          | GRADIENT NORM               0.000558371445 Eh/α |
          | HOMO-LUMO GAP               3.161844182278 eV   |
           -------------------------------------------------

 * finished run on 2024/12/20 at 07:20:39.262
