   * xtb version 6.7.1 (edcfbbe) compiled by 'conda@3ef47c1a292c' on 2024-11-25

   ID    Z sym.   atoms
    1    6 C      1, 2, 4, 7, 8, 10-20, 23
    2    8 O      3, 5, 21, 22
    3    7 N      6, 9
    4    1 H      24-42

          program call               : xtb C1358.xyz --opt --namespace C1358 --charge +1
          :  Hamiltonian                  GFN2-xTB          :
 * total energy  :   -67.8083134 Eh     change       -0.2951921E-08 Eh
 * total energy  :   -67.8203821 Eh     change       -0.1206870E-01 Eh
 * total energy  :   -67.8238963 Eh     change       -0.3514170E-02 Eh
 * total energy  :   -67.8245806 Eh     change       -0.6843565E-03 Eh
 * total energy  :   -67.8250529 Eh     change       -0.4722629E-03 Eh
 * total energy  :   -67.8252196 Eh     change       -0.1667344E-03 Eh
 * total energy  :   -67.8253603 Eh     change       -0.1406755E-03 Eh
 * total energy  :   -67.8254693 Eh     change       -0.1089917E-03 Eh
 * total energy  :   -67.8255600 Eh     change       -0.9069655E-04 Eh
 * total energy  :   -67.8256266 Eh     change       -0.6660076E-04 Eh
 * total energy  :   -67.8262520 Eh     change       -0.1102606E-04 Eh
 * total energy  :   -67.8262640 Eh     change       -0.1206444E-04 Eh
 * total energy  :   -67.8262731 Eh     change       -0.9030289E-05 Eh
 * total energy  :   -67.8262846 Eh     change       -0.1156920E-04 Eh
 * total energy  :   -67.8262989 Eh     change       -0.1425399E-04 Eh
 * total energy  :   -67.8263037 Eh     change       -0.4857191E-05 Eh
 * total energy  :   -67.8263083 Eh     change       -0.4598587E-05 Eh
 * total energy  :   -67.8263154 Eh     change       -0.7010885E-05 Eh
 * total energy  :   -67.8263182 Eh     change       -0.2845156E-05 Eh
   *** GEOMETRY OPTIMIZATION CONVERGED AFTER 45 ITERATIONS ***

 final structure:
================
42
 xtb: 6.7.1 (edcfbbe)
C            0.22107964110770        0.52910020782569       -0.09253716299927
C            0.88696306378381        1.77912389028862        0.45235548447447
O            1.49372594542744        2.55558926312215       -0.61236620324836
C            2.67072121595211        2.19258250997876       -1.02181729983039
O            3.39029968633452        1.32048818304081       -0.65937802546103
N            3.09832476298717        3.07491504571282       -2.10221542588570
C            2.42171439621365        4.12889267031016       -2.65389082907722
C            3.22254879186833        4.64289057421204       -3.62395264985139
N            4.36897933611063        3.90006912537434       -3.65270397155943
C            4.27737105301745        2.96084410814018       -2.72790117233778
C            5.50142785764113        4.10683264629481       -4.54061264669224
C            6.80292513518224        4.03461677381903       -3.78042220015480
C            7.22026233876102        5.11783759739149       -3.01387100830385
C            8.40951238206177        5.06615364537899       -2.31643978863905
C            9.21727003797993        3.92671385113187       -2.36370580908179
C            8.77749804283000        2.83703222544413       -3.11975495143686
C            7.58881599163873        2.88959588549228       -3.82050093643921
C           10.49044303256918        3.83349605542192       -1.66849105768335
C           11.16428165882135        4.85173175484247       -1.12667542544246
C           12.47111738332801        4.70455898509258       -0.45010741219675
O           13.08267387385424        5.63478974147395        0.01140023202318
O           12.89664838186415        3.43593899046983       -0.40237711667166
C           14.15377399550991        3.22836698185147        0.22957172192729
H           -0.50839043033461        0.78503165645064       -0.85676289670319
H           -0.28977990752367        0.02079108131313        0.71927617146847
H            0.96024698898815       -0.14807335182703       -0.51343342851946
H            0.15936003992003        2.45981564388075        0.89541366874310
H            1.66036781830652        1.52369241869575        1.18106522231746
H            1.44807491324424        4.42111317186840       -2.31701992329956
H            3.05530265231769        5.47043157769799       -4.28391601477324
H            5.01845681011702        2.21976485724776       -2.49252272116905
H            5.47831838937794        3.34037244732455       -5.32119561368491
H            5.38122918211909        5.08582300148226       -5.00909579068272
H            6.61556888767340        6.01239391214008       -2.97304126359085
H            8.71308188840609        5.91617402107236       -1.72782290414251
H            9.38467750752361        1.94618641100942       -3.16770742689280
H            7.27924853078417        2.04174142370447       -4.41427689663188
H           10.92673446089778        2.84485606304834       -1.61975630473321
H           10.81519114951288        5.87296685280892       -1.15789870770253
H           14.95120755456337        3.68960272781044       -0.35607224360472
H           14.15340099230243        3.66850281191436        1.22840514250863
H           14.29335456695951        2.15212256024815        0.28300558566316

          :  Hamiltonian                  GFN2-xTB          :
         :: total energy             -67.826318205156 Eh    ::
         :: gradient norm              0.000416308144 Eh/a0 ::
         :: HOMO-LUMO gap              1.191230324227 eV    ::
         :: SCC energy               -68.766352485272 Eh    ::
         :: -> dispersion             -0.037548692903 Eh    ::
         :: repulsion energy           0.940034280115 Eh    ::

    * Orbital Energies and Occupations

         #    Occupation            Energy/Eh            Energy/eV
      -------------------------------------------------------------
         1        2.0000           -0.9166132             -24.9423
       ...           ...                  ...                  ...
        48        2.0000           -0.5819145             -15.8347
        49        2.0000           -0.5758518             -15.6697
        50        2.0000           -0.5679204             -15.4539
        51        2.0000           -0.5671153             -15.4320
        52        2.0000           -0.5552171             -15.1082
        53        2.0000           -0.5475946             -14.9008
        54        2.0000           -0.5455109             -14.8441
        55        2.0000           -0.5366769             -14.6037
        56        2.0000           -0.5284905             -14.3810
        57        2.0000           -0.5250815             -14.2882
        58        2.0000           -0.5080674             -13.8252
        59        2.0000           -0.4960902             -13.4993
        60        2.0000           -0.4820810             -13.1181 (HOMO)
        61                         -0.4383041             -11.9269 (LUMO)
        62                         -0.3871678             -10.5354
        63                         -0.3797925             -10.3347
        64                         -0.3468577              -9.4385
        65                         -0.3418399              -9.3019
        66                         -0.3172185              -8.6320
        67                         -0.2444451              -6.6517
        68                         -0.2124958              -5.7823
        69                         -0.1941681              -5.2836
        70                         -0.1433677              -3.9012
        71                         -0.1130939              -3.0774
       ...                                ...                  ...
       111                          0.6453803              17.5617
      -------------------------------------------------------------
                  HL-Gap            0.0437769 Eh            1.1912 eV

     #   Z          covCN         q      C6AA      α(0)
     1   6 C        3.751    -0.126    22.971     6.835
     2   6 C        3.700     0.066    19.628     6.336
     3   8 O        1.703    -0.223    17.703     5.681
     4   6 C        2.657     0.416    20.003     7.318
     5   8 O        0.857    -0.350    20.709     6.101
     6   7 N        2.877     0.005    21.164     6.833
     7   6 C        3.044     0.011    27.740     8.638
     8   6 C        3.074    -0.002    28.003     8.676
     9   7 N        2.867     0.083    19.794     6.608
    10   6 C        3.077     0.071    26.337     8.414
    11   6 C        3.747    -0.033    21.233     6.572
    12   6 C        2.972    -0.008    28.223     8.714
    13   6 C        2.920    -0.037    28.917     8.818
    14   6 C        2.923    -0.027    28.671     8.781
    15   6 C        2.971     0.029    27.345     8.577
    16   6 C        2.927    -0.028    28.689     8.784
    17   6 C        2.919    -0.039    28.962     8.825
    18   6 C        2.902    -0.021    28.523     8.757
    19   6 C        2.892    -0.058    29.438     8.896
    20   6 C        2.728     0.354    20.990     7.500
    21   8 O        0.857    -0.395    21.577     6.228
    22   8 O        1.704    -0.260    18.313     5.778
    23   6 C        3.658     0.030    20.358     6.476
    24   1 H        0.925     0.069     2.092     2.262
    25   1 H        0.925     0.082     1.955     2.187
    26   1 H        0.925     0.069     2.099     2.266
    27   1 H        0.924     0.093     1.851     2.128
    28   1 H        0.924     0.080     1.976     2.198
    29   1 H        0.926     0.124     1.577     1.964
    30   1 H        0.926     0.117     1.637     2.001
    31   1 H        0.926     0.137     1.480     1.902
    32   1 H        0.924     0.097     1.815     2.107
    33   1 H        0.924     0.097     1.814     2.106
    34   1 H        0.926     0.042     2.426     2.436
    35   1 H        0.926     0.063     2.167     2.302
    36   1 H        0.926     0.062     2.178     2.308
    37   1 H        0.926     0.045     2.389     2.417
    38   1 H        0.925     0.075     2.030     2.228
    39   1 H        0.926     0.076     2.017     2.221
    40   1 H        0.924     0.069     2.101     2.267
    41   1 H        0.924     0.071     2.075     2.252
    42   1 H        0.925     0.073     2.050     2.239

Wiberg/Mayer (AO) data.
largest (>0.10) Wiberg bond orders for each atom

     #   Z sym  total        # sym  WBO       # sym  WBO       # sym  WBO
 ---------------------------------------------------------------------------
     1   6 C    3.981 --     2 C    1.015    24 H    0.983    26 H    0.983
                            25 H    0.975
     2   6 C    3.875 --     1 C    1.015    28 H    0.969    27 H    0.967
                             3 O    0.883
     3   8 O    2.370 --     4 C    1.219     2 C    0.883     5 O    0.199
     4   6 C    3.944 --     5 O    1.761     3 O    1.219     6 N    0.907
     5   8 O    2.110 --     4 C    1.761     3 O    0.199
     6   7 N    3.684 --    10 C    1.317     7 C    1.198     4 C    0.907
     7   6 C    3.942 --     8 C    1.617     6 N    1.198    29 H    0.957
     8   6 C    3.946 --     7 C    1.617     9 N    1.209    30 H    0.959
     9   7 N    3.729 --    10 C    1.413     8 C    1.209    11 C    0.950
    10   6 C    3.941 --     9 N    1.413     6 N    1.317    31 H    0.947
    11   6 C    3.926 --    12 C    0.987    33 H    0.961     9 N    0.950
                            32 H    0.948
    12   6 C    3.969 --    17 C    1.405    13 C    1.397    11 C    0.987
    13   6 C    3.991 --    14 C    1.468    12 C    1.397    34 H    0.968
                            16 C    0.102
    14   6 C    3.989 --    13 C    1.468    15 C    1.364    35 H    0.963
                            17 C    0.102
    15   6 C    3.989 --    16 C    1.370    14 C    1.364    18 C    1.103
    16   6 C    3.983 --    17 C    1.459    15 C    1.370    36 H    0.966
                            13 C    0.102
    17   6 C    3.990 --    16 C    1.459    12 C    1.405    37 H    0.967
                            14 C    0.102
    18   6 C    3.986 --    19 C    1.806    15 C    1.103    38 H    0.956
    19   6 C    3.985 --    18 C    1.806    20 C    1.015    39 H    0.958
    20   6 C    3.926 --    21 O    1.731    22 O    1.124    19 C    1.015
    21   8 O    2.037 --    20 C    1.731    22 O    0.176
    22   8 O    2.307 --    20 C    1.124    23 C    0.954    21 O    0.176
    23   6 C    3.919 --    42 H    0.981    41 H    0.975    40 H    0.975
                            22 O    0.954
    24   1 H    0.995 --     1 C    0.983
    25   1 H    0.992 --     1 C    0.975
    26   1 H    0.995 --     1 C    0.983
    27   1 H    0.991 --     2 C    0.967
    28   1 H    0.993 --     2 C    0.969
    29   1 H    0.984 --     7 C    0.957
    30   1 H    0.985 --     8 C    0.959
    31   1 H    0.981 --    10 C    0.947
    32   1 H    0.989 --    11 C    0.948
    33   1 H    0.989 --    11 C    0.961
    34   1 H    0.998 --    13 C    0.968
    35   1 H    0.996 --    14 C    0.963
    36   1 H    0.996 --    16 C    0.966
    37   1 H    0.998 --    17 C    0.967
    38   1 H    0.994 --    18 C    0.956
    39   1 H    0.994 --    19 C    0.958
    40   1 H    0.995 --    23 C    0.975
    41   1 H    0.995 --    23 C    0.975
    42   1 H    0.994 --    23 C    0.981
 ---------------------------------------------------------------------------

molecular dipole:
                 x           y           z       tot (Debye)
 q only:        6.922       5.863      -5.137
   full:        6.824       5.895      -5.239      26.508

           -------------------------------------------------
          | TOTAL ENERGY              -67.826318205156 Eh   |
          | GRADIENT NORM               0.000416308144 Eh/α |
          | HOMO-LUMO GAP               1.191230324227 eV   |
           -------------------------------------------------

 * finished run on 2024/12/20 at 07:21:07.500
