   * xtb version 6.7.1 (edcfbbe) compiled by 'conda@3ef47c1a292c' on 2024-11-25

   ID    Z sym.   atoms
    1    6 C      1-11, 13, 15-19
    2    8 O      12
    3    7 N      14
    4    1 H      20-49

          program call               : xtb C1351.xyz --opt --namespace C1351 --charge +1
          :  Hamiltonian                  GFN2-xTB          :
 * total energy  :   -58.2781322 Eh     change       -0.1360043E-08 Eh
 * total energy  :   -58.2824020 Eh     change       -0.4269706E-02 Eh
 * total energy  :   -58.2833135 Eh     change       -0.9115013E-03 Eh
 * total energy  :   -58.2835033 Eh     change       -0.1898246E-03 Eh
 * total energy  :   -58.2836617 Eh     change       -0.1584601E-03 Eh
 * total energy  :   -58.2837143 Eh     change       -0.5259970E-04 Eh
 * total energy  :   -58.2837706 Eh     change       -0.5628849E-04 Eh
 * total energy  :   -58.2838279 Eh     change       -0.5723467E-04 Eh
 * total energy  :   -58.2838854 Eh     change       -0.5752401E-04 Eh
 * total energy  :   -58.2839519 Eh     change       -0.6647026E-04 Eh
 * total energy  :   -58.2874117 Eh     change       -0.1079118E-04 Eh
 * total energy  :   -58.2874232 Eh     change       -0.1152351E-04 Eh
 * total energy  :   -58.2874241 Eh     change       -0.9073708E-06 Eh
 * total energy  :   -58.2874299 Eh     change       -0.5718977E-05 Eh
 * total energy  :   -58.2874367 Eh     change       -0.6796426E-05 Eh
 * total energy  :   -58.2874437 Eh     change       -0.7025682E-05 Eh
 * total energy  :   -58.2874506 Eh     change       -0.6954903E-05 Eh
 * total energy  :   -58.2874566 Eh     change       -0.5948684E-05 Eh
 * total energy  :   -58.2874603 Eh     change       -0.3739129E-05 Eh
   *** GEOMETRY OPTIMIZATION CONVERGED AFTER 64 ITERATIONS ***

 final structure:
================
49
 xtb: 6.7.1 (edcfbbe)
C            0.45510025339244       -1.60347766400406        0.50055651869648
C            0.53278863174316       -0.97075560703667        1.88456340968692
C            1.03426032112900        0.47401733933330        1.86171219580352
C            0.15674661038756        1.45016240319385        1.07503279383421
C           -1.28773739353804        1.56194701620003        1.56716202723157
C           -1.44437218323078        1.99811866244782        3.02543507778506
C           -0.81162299128563        3.34802431194908        3.37013650071917
C           -1.33459453234565        4.53070353317936        2.55170183267650
C           -2.84121163322451        4.77536737550745        2.67030171771941
C           -3.37172021259592        4.97906424578566        4.09708672915627
C           -2.65769645501120        6.01395689122128        4.97025135361820
O           -3.19882971526539        7.34384821441577        4.92356960694724
C           -3.14988093668065        8.00047887838923        3.72799423381251
N           -1.75734231879969        8.42322123579815        3.39573708798296
C           -0.97895005790076        8.85374446314515        4.39430961705904
C            0.32590627323139        9.23458704735931        4.16182751972125
C            0.82875349062652        9.17233181968771        2.86771478225327
C           -0.00181546895092        8.72823925349494        1.84587048090320
C           -1.29658416134337        8.35494301390915        2.14362530569974
H           -0.30272446185064       -1.12145058742660       -0.11213253581254
H            0.19930631051624       -2.65710265642618        0.58400188662734
H            1.41304480043203       -1.52438527430177       -0.00907138516207
H           -0.44717451223468       -1.01801352688694        2.36271481823667
H            1.22069686783197       -1.55515069148714        2.50015372541689
H            1.13616633669895        0.82459975695325        2.89126903205864
H            2.03224597735562        0.48731099389178        1.41629780991040
H            0.62964167907368        2.43529529904141        1.10455801957993
H            0.13404852538561        1.14176665051517        0.02840345709948
H           -1.81871280754695        2.26173399075539        0.91695187114698
H           -1.77741065473793        0.59385205270093        1.45305562302969
H           -2.51003476799363        2.02226524297631        3.26412048545779
H           -0.99282840869872        1.24436498218439        3.67188965074876
H           -0.97121470524688        3.54290765997334        4.43329533315145
H            0.26676325907540        3.28404760061384        3.21517339883470
H           -0.78095661022658        5.42954709903450        2.84913369699853
H           -1.10659874520630        4.36067461291977        1.49819885671561
H           -3.10297783013640        5.62157518408407        2.02770785137450
H           -3.36372855924269        3.91101690380823        2.25927855176170
H           -4.43138241959312        5.23991624070279        4.05337843083912
H           -3.30204700310320        4.02425310320635        4.61764033565956
H           -2.78191357000883        5.74941988657161        6.02120322430747
H           -1.58482622070471        6.04495950018558        4.74850686747989
H           -3.52519751529104        7.41278680580709        2.88243453083816
H           -3.75421771926212        8.90971308106996        3.83988098269783
H           -1.43007685501985        8.86942599920685        5.37751900358251
H            0.93700389687661        9.57481290970455        4.98246825835296
H            1.84714448954908        9.46191184329622        2.65967367598987
H            0.35089479469889        8.66369875654007        0.82897236063735
H           -1.97274109176278        7.99657414683320        1.38139339117465

          :  Hamiltonian                  GFN2-xTB          :
         :: total energy             -58.287460329090 Eh    ::
         :: gradient norm              0.000398841033 Eh/a0 ::
         :: HOMO-LUMO gap              0.335808375650 eV    ::
         :: SCC energy               -59.143034756176 Eh    ::
         :: -> dispersion             -0.041951048341 Eh    ::
         :: repulsion energy           0.855574427086 Eh    ::

    * Orbital Energies and Occupations

         #    Occupation            Energy/Eh            Energy/eV
      -------------------------------------------------------------
         1        2.0000           -0.8860407             -24.1104
       ...           ...                  ...                  ...
        42        2.0000           -0.5512865             -15.0013
        43        2.0000           -0.5491120             -14.9421
        44        2.0000           -0.5418107             -14.7434
        45        2.0000           -0.5368034             -14.6072
        46        2.0000           -0.5298542             -14.4181
        47        2.0000           -0.5261576             -14.3175
        48        2.0000           -0.5178066             -14.0902
        49        2.0000           -0.5074436             -13.8082
        50        2.0000           -0.5028104             -13.6822
        51        2.0000           -0.4985699             -13.5668
        52        2.0000           -0.4837964             -13.1648
        53        1.9999           -0.4798516             -13.0574
        54        1.9970           -0.4768274             -12.9751 (HOMO)
        55        0.0031           -0.4644866             -12.6393 (LUMO)
        56                         -0.4331961             -11.7879
        57                         -0.3124604              -8.5025
        58                         -0.2023488              -5.5062
        59                         -0.1287735              -3.5041
        60                         -0.0848343              -2.3085
        61                         -0.0494543              -1.3457
        62                         -0.0440742              -1.1993
        63                         -0.0377293              -1.0267
        64                         -0.0360665              -0.9814
        65                         -0.0201907              -0.5494
       ...                                ...                  ...
       106                          0.4415188              12.0143
      -------------------------------------------------------------
                  HL-Gap            0.0123407 Eh            0.3358 eV

     #   Z          covCN         q      C6AA      α(0)
     1   6 C        3.751    -0.103    22.533     6.769
     2   6 C        3.799    -0.053    21.530     6.607
     3   6 C        3.800    -0.058    21.616     6.620
     4   6 C        3.800    -0.057    21.604     6.618
     5   6 C        3.800    -0.058    21.627     6.621
     6   6 C        3.800    -0.060    21.654     6.625
     7   6 C        3.800    -0.060    21.652     6.625
     8   6 C        3.799    -0.055    21.559     6.611
     9   6 C        3.799    -0.061    21.681     6.630
    10   6 C        3.798    -0.079    22.002     6.679
    11   6 C        3.688     0.060    19.754     6.361
    12   8 O        1.700    -0.283    18.704     5.839
    13   6 C        3.641     0.116    19.018     6.271
    14   7 N        2.746     0.074    19.950     6.634
    15   6 C        2.888     0.044    27.012     8.521
    16   6 C        2.915    -0.009    28.231     8.713
    17   6 C        2.925     0.016    27.649     8.623
    18   6 C        2.915    -0.008    28.230     8.713
    19   6 C        2.883     0.039    27.128     8.539
    20   1 H        0.925     0.034     2.529     2.487
    21   1 H        0.925     0.036     2.499     2.472
    22   1 H        0.925     0.036     2.504     2.475
    23   1 H        0.924     0.031     2.571     2.507
    24   1 H        0.924     0.031     2.566     2.505
    25   1 H        0.924     0.026     2.640     2.541
    26   1 H        0.924     0.032     2.564     2.504
    27   1 H        0.924     0.021     2.722     2.580
    28   1 H        0.924     0.037     2.488     2.467
    29   1 H        0.924     0.024     2.681     2.560
    30   1 H        0.924     0.041     2.430     2.438
    31   1 H        0.924     0.029     2.605     2.524
    32   1 H        0.924     0.043     2.411     2.428
    33   1 H        0.924     0.026     2.644     2.543
    34   1 H        0.924     0.040     2.449     2.447
    35   1 H        0.924    -0.003     3.111     2.758
    36   1 H        0.924     0.044     2.399     2.422
    37   1 H        0.924     0.011     2.869     2.649
    38   1 H        0.924     0.059     2.206     2.323
    39   1 H        0.924     0.057     2.238     2.339
    40   1 H        0.925     0.067     2.123     2.278
    41   1 H        0.924     0.081     1.970     2.195
    42   1 H        0.924     0.034     2.532     2.489
    43   1 H        0.924     0.084     1.942     2.179
    44   1 H        0.924     0.106     1.732     2.058
    45   1 H        0.925     0.127     1.561     1.954
    46   1 H        0.926     0.112     1.678     2.026
    47   1 H        0.926     0.111     1.689     2.033
    48   1 H        0.926     0.112     1.680     2.027
    49   1 H        0.926     0.108     1.718     2.050

Wiberg/Mayer (AO) data.
largest (>0.10) Wiberg bond orders for each atom

     #   Z sym  total        # sym  WBO       # sym  WBO       # sym  WBO
 ---------------------------------------------------------------------------
     1   6 C    3.996 --     2 C    1.020    22 H    0.987    21 H    0.987
                            20 H    0.986
     2   6 C    3.997 --     1 C    1.020     3 C    1.008    24 H    0.977
                            23 H    0.975
     3   6 C    3.997 --     2 C    1.008     4 C    1.007    26 H    0.977
                            25 H    0.976
     4   6 C    3.997 --     5 C    1.008     3 C    1.007    27 H    0.976
                            28 H    0.975
     5   6 C    3.997 --     6 C    1.008     4 C    1.008    29 H    0.975
                            30 H    0.974
     6   6 C    3.996 --     5 C    1.008     7 C    1.007    31 H    0.975
                            32 H    0.974
     7   6 C    3.996 --     6 C    1.007     8 C    1.007    33 H    0.976
                            34 H    0.974
     8   6 C    3.996 --     9 C    1.007     7 C    1.007    35 H    0.973
                            36 H    0.973
     9   6 C    3.994 --     8 C    1.007    10 C    1.006    38 H    0.971
                            37 H    0.969
    10   6 C    3.989 --     9 C    1.006    11 C    1.001    39 H    0.972
                            40 H    0.969
    11   6 C    3.922 --    10 C    1.001    41 H    0.968    42 H    0.966
                            12 O    0.936
    12   8 O    2.140 --    13 C    1.068    11 C    0.936
    13   6 C    3.927 --    12 O    1.068    43 H    0.943    44 H    0.941
                            14 N    0.901
    14   7 N    3.747 --    19 C    1.332    15 C    1.330    13 C    0.901
    15   6 C    3.949 --    16 C    1.461    14 N    1.330    45 H    0.948
    16   6 C    3.979 --    15 C    1.461    17 C    1.422    46 H    0.958
    17   6 C    3.967 --    16 C    1.422    18 C    1.421    47 H    0.960
    18   6 C    3.980 --    19 C    1.461    17 C    1.421    48 H    0.958
    19   6 C    3.955 --    18 C    1.461    14 N    1.332    49 H    0.953
    20   1 H    0.998 --     1 C    0.986
    21   1 H    0.999 --     1 C    0.987
    22   1 H    0.998 --     1 C    0.987
    23   1 H    0.998 --     2 C    0.975
    24   1 H    0.998 --     2 C    0.977
    25   1 H    0.999 --     3 C    0.976
    26   1 H    0.999 --     3 C    0.977
    27   1 H    1.000 --     4 C    0.976
    28   1 H    0.998 --     4 C    0.975
    29   1 H    0.999 --     5 C    0.975
    30   1 H    0.998 --     5 C    0.974
    31   1 H    0.999 --     6 C    0.975
    32   1 H    0.998 --     6 C    0.974
    33   1 H    0.999 --     7 C    0.976
    34   1 H    0.998 --     7 C    0.974
    35   1 H    1.000 --     8 C    0.973
    36   1 H    0.998 --     8 C    0.973
    37   1 H    1.000 --     9 C    0.969
    38   1 H    0.996 --     9 C    0.971
    39   1 H    0.997 --    10 C    0.972
    40   1 H    0.995 --    10 C    0.969
    41   1 H    0.993 --    11 C    0.968
    42   1 H    0.999 --    11 C    0.966
    43   1 H    0.993 --    13 C    0.943
    44   1 H    0.989 --    13 C    0.941
    45   1 H    0.984 --    15 C    0.948
    46   1 H    0.987 --    16 C    0.958
    47   1 H    0.987 --    17 C    0.960
    48   1 H    0.987 --    18 C    0.958
    49   1 H    0.988 --    19 C    0.953
 ---------------------------------------------------------------------------

molecular dipole:
                 x           y           z       tot (Debye)
 q only:       -2.045      14.974       5.959
   full:       -2.029      15.055       5.822      41.351

           -------------------------------------------------
          | TOTAL ENERGY              -58.287460329090 Eh   |
          | GRADIENT NORM               0.000398841033 Eh/α |
          | HOMO-LUMO GAP               0.335808375650 eV   |
           -------------------------------------------------

 * finished run on 2024/12/20 at 07:20:41.711
