   * xtb version 6.7.1 (edcfbbe) compiled by 'conda@3ef47c1a292c' on 2024-11-25

   ID    Z sym.   atoms
    1   35 Br     1, 23
    2    6 C      2-4, 6, 8-15, 17-22
    3    7 N      5, 7
    4    8 O      16
    5    1 H      24-38

          program call               : xtb C1359.xyz --opt --namespace C1359 --charge +1
          :  Hamiltonian                  GFN2-xTB          :
 * total energy  :   -63.8555879 Eh     change       -0.1664233E-08 Eh
 * total energy  :   -63.8625905 Eh     change       -0.7002521E-02 Eh
 * total energy  :   -63.8641652 Eh     change       -0.1574706E-02 Eh
 * total energy  :   -63.8644480 Eh     change       -0.2828194E-03 Eh
 * total energy  :   -63.8646808 Eh     change       -0.2327877E-03 Eh
 * total energy  :   -63.8648662 Eh     change       -0.1853888E-03 Eh
 * total energy  :   -63.8651674 Eh     change       -0.3012814E-03 Eh
 * total energy  :   -63.8654937 Eh     change       -0.3262332E-03 Eh
 * total energy  :   -63.8658770 Eh     change       -0.3832806E-03 Eh
 * total energy  :   -63.8662480 Eh     change       -0.3710556E-03 Eh
 * total energy  :   -63.8707575 Eh     change       -0.2006957E-04 Eh
 * total energy  :   -63.8707776 Eh     change       -0.2012925E-04 Eh
 * total energy  :   -63.8707926 Eh     change       -0.1497932E-04 Eh
 * total energy  :   -63.8708079 Eh     change       -0.1537607E-04 Eh
 * total energy  :   -63.8708275 Eh     change       -0.1956414E-04 Eh
 * total energy  :   -63.8708484 Eh     change       -0.2086971E-04 Eh
 * total energy  :   -63.8708659 Eh     change       -0.1755442E-04 Eh
 * total energy  :   -63.8708764 Eh     change       -0.1049669E-04 Eh
 * total energy  :   -63.8708810 Eh     change       -0.4562303E-05 Eh
   *** GEOMETRY OPTIMIZATION CONVERGED AFTER 57 ITERATIONS ***

 final structure:
================
38
 xtb: 6.7.1 (edcfbbe)
Br           0.32405223447319        0.09092330508623        0.79292673413288
C            2.01512964551276        0.47540704490972       -0.03867959096872
C            2.14714305866813        1.47606116001993       -0.88797492709863
C            3.11590116628409       -0.47664779552131        0.36159733681578
N            3.13624648828484       -0.70478611539689        1.78689393546453
C            3.54118569621886        0.17199791456741        2.70107652319744
N            3.35648386317833       -0.29795588641522        3.93179938906116
C            2.82065774856686       -1.56790618784548        3.82426137870215
C            2.66184337615564       -1.82049158544167        2.44830947602215
C            2.11342072292976       -3.01290459622158        1.99338607548617
C            1.73985177626110       -3.93504189719824        2.94864772729493
C            1.90398378414941       -3.68732958453002        4.31384034369528
C            2.44262997327690       -2.50468153375751        4.77735527830700
C            3.91202362798622        0.31232197890045        5.10291053572914
C            5.44183286884863        0.47233736869746        4.88085512672736
O            5.88070951788990        0.28571513908353        3.76797029990369
C            6.24913009748793        0.86003388848599        6.03187725291806
C            5.71234211524026        1.19005459710442        7.28267980616123
C            6.54174402229960        1.56283459712652        8.31807168215332
C            7.91933694802019        1.60679860912952        8.12133106631909
C            8.47178610763658        1.28242501560947        6.88689026155061
C            7.63922109974850        0.91593357750073        5.85342651978797
Br           9.04815458763700        2.11582601344847        9.55095726921151
H            3.09389227974130        1.69062239551520       -1.35370796951598
H            1.31884369685495        2.10472465641628       -1.16277845737419
H            2.96153376234934       -1.44205634690037       -0.12892389544271
H            4.08055149731494       -0.07270248971180        0.04209100107903
H            3.93364404010544        1.14376087254295        2.46931924231995
H            1.97042470252237       -3.21311104818616        0.94439838005010
H            1.30652558845130       -4.87137468253022        2.63591451420685
H            1.59711548080347       -4.43995925744141        5.02222247856878
H            2.55675568507895       -2.32429372244777        5.83379267461001
H            3.48189371667901        1.30572926333960        5.26230454778624
H            3.70798646745904       -0.31642395590567        5.96849587326535
H            4.64806971899819        1.17268410224786        7.45631851707399
H            6.13055670073656        1.82102539363508        9.28115036610394
H            9.53997737684806        1.32305293801421        6.74477123710404
H            8.04568875929935        0.66291685407918        4.88615198959476

          :  Hamiltonian                  GFN2-xTB          :
         :: total energy             -63.870880988823 Eh    ::
         :: gradient norm              0.000604116354 Eh/a0 ::
         :: HOMO-LUMO gap              2.269390822391 eV    ::
         :: SCC energy               -64.811201999009 Eh    ::
         :: -> dispersion             -0.044781117763 Eh    ::
         :: repulsion energy           0.940321010186 Eh    ::

    * Orbital Energies and Occupations

         #    Occupation            Energy/Eh            Energy/eV
      -------------------------------------------------------------
         1        2.0000           -0.9486900             -25.8152
       ...           ...                  ...                  ...
        46        2.0000           -0.5755183             -15.6607
        47        2.0000           -0.5690470             -15.4846
        48        2.0000           -0.5689017             -15.4806
        49        2.0000           -0.5563532             -15.1391
        50        2.0000           -0.5531389             -15.0517
        51        2.0000           -0.5499653             -14.9653
        52        2.0000           -0.5450262             -14.8309
        53        2.0000           -0.5389849             -14.6665
        54        2.0000           -0.5338195             -14.5260
        55        2.0000           -0.5245321             -14.2732
        56        2.0000           -0.5174517             -14.0806
        57        2.0000           -0.5040423             -13.7157
        58        2.0000           -0.5009415             -13.6313 (HOMO)
        59                         -0.4175429             -11.3619 (LUMO)
        60                         -0.4091905             -11.1346
        61                         -0.3619693              -9.8497
        62                         -0.3575884              -9.7305
        63                         -0.3549587              -9.6589
        64                         -0.3521148              -9.5815
        65                         -0.3282425              -8.9319
        66                         -0.3236421              -8.8067
        67                         -0.2960824              -8.0568
        68                         -0.2340373              -6.3685
        69                         -0.2214864              -6.0270
       ...                                ...                  ...
       117                          0.5475984              14.9009
      -------------------------------------------------------------
                  HL-Gap            0.0833986 Eh            2.2694 eV

     #   Z          covCN         q      C6AA      α(0)
     1  35 Br       1.061    -0.146   189.082    22.171
     2   6 C        2.876     0.070    26.425     8.427
     3   6 C        2.918    -0.091    30.278     9.023
     4   6 C        3.804    -0.021    20.952     6.516
     5   7 N        2.833     0.042    20.512     6.727
     6   6 C        3.065     0.079    26.165     8.388
     7   7 N        2.830     0.044    20.464     6.719
     8   6 C        3.113     0.041    26.926     8.500
     9   6 C        3.113     0.046    26.826     8.485
    10   6 C        2.909    -0.028    28.691     8.783
    11   6 C        2.926    -0.016    28.419     8.742
    12   6 C        2.926    -0.017    28.434     8.745
    13   6 C        2.909    -0.032    28.788     8.798
    14   6 C        3.744    -0.045    21.452     6.607
    15   6 C        2.823     0.227    23.240     7.899
    16   8 O        0.857    -0.356    20.829     6.119
    17   6 C        2.969    -0.018    28.467     8.752
    18   6 C        2.920    -0.026    28.646     8.777
    19   6 C        2.991    -0.028    28.684     8.785
    20   6 C        2.915     0.102    25.742     8.320
    21   6 C        2.988    -0.026    28.654     8.781
    22   6 C        2.929    -0.009    28.241     8.715
    23  35 Br       1.071    -0.091   187.515    22.079
    24   1 H        0.926     0.083     1.952     2.185
    25   1 H        0.926     0.098     1.805     2.101
    26   1 H        0.924     0.105     1.740     2.063
    27   1 H        0.924     0.096     1.819     2.109
    28   1 H        0.926     0.114     1.665     2.018
    29   1 H        0.926     0.073     2.052     2.240
    30   1 H        0.926     0.082     1.960     2.189
    31   1 H        0.926     0.080     1.976     2.198
    32   1 H        0.926     0.065     2.137     2.286
    33   1 H        0.924     0.099     1.795     2.095
    34   1 H        0.925     0.101     1.780     2.087
    35   1 H        0.926     0.055     2.262     2.352
    36   1 H        0.926     0.080     1.974     2.197
    37   1 H        0.926     0.084     1.941     2.178
    38   1 H        0.926     0.085     1.933     2.174

Wiberg/Mayer (AO) data.
largest (>0.10) Wiberg bond orders for each atom

     #   Z sym  total        # sym  WBO       # sym  WBO       # sym  WBO
 ---------------------------------------------------------------------------
     1  35 Br   1.146 --     2 C    0.991
     2   6 C    3.939 --     3 C    1.920     4 C    0.993     1 Br   0.991
     3   6 C    3.981 --     2 C    1.920    25 H    0.965    24 H    0.959
     4   6 C    3.951 --     2 C    0.993     5 N    0.976    27 H    0.954
                            26 H    0.948
     5   7 N    3.677 --     6 C    1.359     9 C    1.120     4 C    0.976
     6   6 C    3.953 --     5 N    1.359     7 N    1.358    28 H    0.953
     7   7 N    3.677 --     6 C    1.358     8 C    1.115    14 C    0.997
     8   6 C    3.950 --    13 C    1.344     9 C    1.275     7 N    1.115
     9   6 C    3.952 --    10 C    1.342     8 C    1.275     5 N    1.120
    10   6 C    3.984 --    11 C    1.492     9 C    1.342    29 H    0.961
                            13 C    0.118
    11   6 C    3.984 --    10 C    1.492    12 C    1.380    30 H    0.966
    12   6 C    3.983 --    13 C    1.491    11 C    1.380    31 H    0.966
    13   6 C    3.987 --    12 C    1.491     8 C    1.344    32 H    0.963
                            10 C    0.118
    14   6 C    3.951 --     7 N    0.997    34 H    0.954    33 H    0.942
                            15 C    0.926
    15   6 C    3.918 --    16 O    1.797    17 C    1.083    14 C    0.926
    16   8 O    2.092 --    15 C    1.797
    17   6 C    3.982 --    18 C    1.346    22 C    1.342    15 C    1.083
    18   6 C    3.990 --    19 C    1.483    17 C    1.346    35 H    0.964
    19   6 C    3.987 --    18 C    1.483    20 C    1.374    36 H    0.964
    20   6 C    3.950 --    21 C    1.382    19 C    1.374    23 Br   1.042
    21   6 C    3.986 --    22 C    1.476    20 C    1.382    37 H    0.963
    22   6 C    3.983 --    21 C    1.476    17 C    1.342    38 H    0.961
    23  35 Br   1.201 --    20 C    1.042
    24   1 H    0.993 --     3 C    0.959
    25   1 H    0.989 --     3 C    0.965
    26   1 H    0.988 --     4 C    0.948
    27   1 H    0.990 --     4 C    0.954
    28   1 H    0.986 --     6 C    0.953
    29   1 H    0.994 --    10 C    0.961
    30   1 H    0.993 --    11 C    0.966
    31   1 H    0.993 --    12 C    0.966
    32   1 H    0.995 --    13 C    0.963
    33   1 H    0.988 --    14 C    0.942
    34   1 H    0.989 --    14 C    0.954
    35   1 H    0.997 --    18 C    0.964
    36   1 H    0.993 --    19 C    0.964
    37   1 H    0.992 --    21 C    0.963
    38   1 H    0.993 --    22 C    0.961
 ---------------------------------------------------------------------------

molecular dipole:
                 x           y           z       tot (Debye)
 q only:        6.946      -0.962       6.541
   full:        6.869      -0.689       6.212      23.605

           -------------------------------------------------
          | TOTAL ENERGY              -63.870880988823 Eh   |
          | GRADIENT NORM               0.000604116354 Eh/α |
          | HOMO-LUMO GAP               2.269390822391 eV   |
           -------------------------------------------------

 * finished run on 2024/12/20 at 07:21:09.883
