   * xtb version 6.7.1 (edcfbbe) compiled by 'conda@3ef47c1a292c' on 2024-11-25

   ID    Z sym.   atoms
    1    6 C      1-3, 5, 7-14, 16-21
    2    7 N      4, 6
    3    8 O      15
    4    1 H      22-38

          program call               : xtb C1357.xyz --opt --namespace C1357 --charge +1
          :  Hamiltonian                  GFN2-xTB          :
 * total energy  :   -56.7062601 Eh     change       -0.9042225E-09 Eh
 * total energy  :   -56.7128606 Eh     change       -0.6600522E-02 Eh
 * total energy  :   -56.7142142 Eh     change       -0.1353548E-02 Eh
 * total energy  :   -56.7144564 Eh     change       -0.2422424E-03 Eh
 * total energy  :   -56.7146321 Eh     change       -0.1756744E-03 Eh
 * total energy  :   -56.7147559 Eh     change       -0.1238683E-03 Eh
 * total energy  :   -56.7149538 Eh     change       -0.1978908E-03 Eh
 * total energy  :   -56.7151938 Eh     change       -0.2400126E-03 Eh
 * total energy  :   -56.7154655 Eh     change       -0.2717065E-03 Eh
 * total energy  :   -56.7157616 Eh     change       -0.2960761E-03 Eh
 * total energy  :   -56.7208459 Eh     change       -0.1075205E-04 Eh
 * total energy  :   -56.7208750 Eh     change       -0.2902833E-04 Eh
 * total energy  :   -56.7208830 Eh     change       -0.8055741E-05 Eh
 * total energy  :   -56.7208946 Eh     change       -0.1153871E-04 Eh
 * total energy  :   -56.7209037 Eh     change       -0.9107157E-05 Eh
 * total energy  :   -56.7209111 Eh     change       -0.7418358E-05 Eh
 * total energy  :   -56.7209189 Eh     change       -0.7865898E-05 Eh
 * total energy  :   -56.7209223 Eh     change       -0.3332124E-05 Eh
 * total energy  :   -56.7209260 Eh     change       -0.3704453E-05 Eh
   *** GEOMETRY OPTIMIZATION CONVERGED AFTER 64 ITERATIONS ***

 final structure:
================
38
 xtb: 6.7.1 (edcfbbe)
C           -0.35647429482007        0.66591256558099       -1.06502411198184
C           -0.59698724146001        0.94989526546118        0.19970616004794
C           -1.96696051256039        0.89707527792556        0.82247082525653
N           -1.94726437179331        0.09800127950746        2.02814883754440
C           -1.96765045198807        0.54845202136379        3.27614612238011
N           -1.88986834462757       -0.45266933683616        4.15393980651356
C           -1.76265142595439       -1.62858463804416        3.43850668754601
C           -1.80639014670458       -1.27396575447091        2.07670660866263
C           -1.71524602962784       -2.23309873781358        1.07600809783304
C           -1.58318249056462       -3.54573411604005        1.47906913369150
C           -1.54207687762004       -3.89888775233536        2.83057864499157
C           -1.63075231180765       -2.95389247637261        3.83226677908172
C           -1.63722047011225       -0.25511760727673        5.55024041631331
C           -0.33405611634483        0.58439879395129        5.68223790938659
O            0.11106526707839        1.10216522987597        4.68270151185478
C            0.25384866992802        0.70381993020736        7.01181198251316
C           -0.35956396044377        0.22198045397472        8.17388388093330
C            0.25572799196114        0.39219207930374        9.39836403040961
C            1.48280234982986        1.03531767272125        9.48533195646432
C            2.09910881380402        1.51636512801083        8.33990724722799
C            1.49022801023844        1.35589611274699        7.11245978906293
H           -1.13821768217145        0.36998109177683       -1.74554147950291
H            0.63286682586836        0.73843052554329       -1.48009857863205
H            0.19488947270260        1.25541065774167        0.86914100537505
H           -2.29154331568597        1.90628777400591        1.09143940570026
H           -2.68878000845852        0.46684407617109        0.12344148896868
H           -2.07804662575884        1.58242879621848        3.54265994009527
H           -1.73988204419230       -1.96322697082503        0.03364210682890
H           -1.50868621869712       -4.32198669704531        0.73458158095890
H           -1.43748475326209       -4.93870660321817        3.09595343390844
H           -1.59850830478526       -3.24170043662067        4.87050338892839
H           -2.45427389545537        0.30431649230703        6.01546254613180
H           -1.53062314443125       -1.22176546684130        6.04027374002543
H           -1.31859742076283       -0.27117488703633        8.13386749203912
H           -0.22386790576272        0.02394274112201       10.29218885887336
H            1.95597908321732        1.16266512423295       10.44677223846070
H            3.05189524281826        2.01795736576458        8.40713508950210
H            1.95234463840272        1.72544502526232        6.21021542661422

          :  Hamiltonian                  GFN2-xTB          :
         :: total energy             -56.720925981451 Eh    ::
         :: gradient norm              0.000784466455 Eh/a0 ::
         :: HOMO-LUMO gap              3.119379121014 eV    ::
         :: SCC energy               -57.685266446774 Eh    ::
         :: -> dispersion             -0.038946188824 Eh    ::
         :: repulsion energy           0.964340465323 Eh    ::

    * Orbital Energies and Occupations

         #    Occupation            Energy/Eh            Energy/eV
      -------------------------------------------------------------
         1        2.0000           -0.8678758             -23.6161
       ...           ...                  ...                  ...
        40        2.0000           -0.5898497             -16.0506
        41        2.0000           -0.5838255             -15.8867
        42        2.0000           -0.5736437             -15.6096
        43        2.0000           -0.5662585             -15.4087
        44        2.0000           -0.5539241             -15.0730
        45        2.0000           -0.5529040             -15.0453
        46        2.0000           -0.5439129             -14.8006
        47        2.0000           -0.5387341             -14.6597
        48        2.0000           -0.5342409             -14.5374
        49        2.0000           -0.5314931             -14.4627
        50        2.0000           -0.5259399             -14.3116
        51        2.0000           -0.5231689             -14.2362
        52        2.0000           -0.5215228             -14.1914 (HOMO)
        53                         -0.4068877             -11.0720 (LUMO)
        54                         -0.4024819             -10.9521
        55                         -0.3556457              -9.6776
        56                         -0.3476895              -9.4611
        57                         -0.3379758              -9.1968
        58                         -0.3286250              -8.9423
        59                         -0.3102284              -8.4417
        60                         -0.2301199              -6.2619
        61                         -0.2008974              -5.4667
        62                         -0.1603358              -4.3630
        63                         -0.1190137              -3.2385
       ...                                ...                  ...
       101                          0.5542607              15.0822
      -------------------------------------------------------------
                  HL-Gap            0.1146351 Eh            3.1194 eV

     #   Z          covCN         q      C6AA      α(0)
     1   6 C        2.837    -0.080    29.992     8.975
     2   6 C        2.887    -0.037    28.925     8.817
     3   6 C        3.746    -0.018    20.958     6.530
     4   7 N        2.828     0.035    20.625     6.745
     5   6 C        3.070     0.080    26.156     8.386
     6   7 N        2.830     0.034    20.644     6.748
     7   6 C        3.112     0.040    26.956     8.505
     8   6 C        3.121     0.042    26.886     8.492
     9   6 C        2.909    -0.032    28.786     8.798
    10   6 C        2.926    -0.019    28.481     8.752
    11   6 C        2.926    -0.019    28.477     8.751
    12   6 C        2.909    -0.033    28.830     8.804
    13   6 C        3.744    -0.042    21.400     6.599
    14   6 C        2.823     0.227    23.240     7.899
    15   8 O        0.857    -0.357    20.848     6.122
    16   6 C        2.970    -0.017    28.423     8.745
    17   6 C        2.919    -0.026    28.661     8.779
    18   6 C        2.917    -0.019    28.481     8.751
    19   6 C        2.920    -0.007    28.186     8.706
    20   6 C        2.916    -0.018    28.450     8.747
    21   6 C        2.927    -0.009    28.243     8.715
    22   1 H        0.926     0.062     2.178     2.308
    23   1 H        0.926     0.075     2.030     2.228
    24   1 H        0.926     0.061     2.189     2.313
    25   1 H        0.924     0.083     1.947     2.182
    26   1 H        0.924     0.088     1.902     2.157
    27   1 H        0.926     0.111     1.686     2.030
    28   1 H        0.926     0.073     2.058     2.243
    29   1 H        0.926     0.078     1.997     2.210
    30   1 H        0.926     0.078     2.004     2.214
    31   1 H        0.926     0.064     2.156     2.296
    32   1 H        0.924     0.095     1.832     2.117
    33   1 H        0.925     0.097     1.808     2.103
    34   1 H        0.926     0.042     2.416     2.431
    35   1 H        0.926     0.062     2.181     2.309
    36   1 H        0.926     0.067     2.114     2.274
    37   1 H        0.926     0.066     2.132     2.284
    38   1 H        0.926     0.073     2.053     2.240

Wiberg/Mayer (AO) data.
largest (>0.10) Wiberg bond orders for each atom

     #   Z sym  total        # sym  WBO       # sym  WBO       # sym  WBO
 ---------------------------------------------------------------------------
     1   6 C    3.984 --     2 C    1.989    22 H    0.972    23 H    0.971
     2   6 C    3.981 --     1 C    1.989     3 C    0.996    24 H    0.963
     3   6 C    3.942 --     2 C    0.996     4 N    0.964    26 H    0.958
                            25 H    0.956
     4   7 N    3.680 --     5 C    1.372     8 C    1.124     3 C    0.964
     5   6 C    3.951 --     4 N    1.372     6 N    1.342    27 H    0.952
     6   7 N    3.665 --     5 C    1.342     7 C    1.116    13 C    0.997
     7   6 C    3.952 --    12 C    1.345     8 C    1.276     6 N    1.116
     8   6 C    3.954 --     9 C    1.341     7 C    1.276     4 N    1.124
     9   6 C    3.986 --    10 C    1.493     8 C    1.341    28 H    0.963
                            12 C    0.118
    10   6 C    3.986 --     9 C    1.493    11 C    1.381    29 H    0.966
    11   6 C    3.984 --    12 C    1.490    10 C    1.381    30 H    0.966
    12   6 C    3.987 --    11 C    1.490     7 C    1.345    31 H    0.963
                             9 C    0.118
    13   6 C    3.951 --     6 N    0.997    33 H    0.955    32 H    0.943
                            14 C    0.923
    14   6 C    3.927 --    15 O    1.802    16 C    1.080    13 C    0.923
    15   8 O    2.107 --    14 C    1.802
    16   6 C    3.981 --    17 C    1.353    21 C    1.349    14 C    1.080
    17   6 C    3.991 --    18 C    1.472    16 C    1.353    34 H    0.967
                            20 C    0.102
    18   6 C    3.990 --    17 C    1.472    19 C    1.418    35 H    0.968
    19   6 C    3.985 --    20 C    1.427    18 C    1.418    36 H    0.968
    20   6 C    3.989 --    21 C    1.464    19 C    1.427    37 H    0.967
                            17 C    0.102
    21   6 C    3.984 --    20 C    1.464    16 C    1.349    38 H    0.965
    22   1 H    0.996 --     1 C    0.972
    23   1 H    0.993 --     1 C    0.971
    24   1 H    0.996 --     2 C    0.963
    25   1 H    0.993 --     3 C    0.956
    26   1 H    0.992 --     3 C    0.958
    27   1 H    0.987 --     5 C    0.952
    28   1 H    0.994 --     9 C    0.963
    29   1 H    0.993 --    10 C    0.966
    30   1 H    0.994 --    11 C    0.966
    31   1 H    0.995 --    12 C    0.963
    32   1 H    0.989 --    13 C    0.943
    33   1 H    0.990 --    13 C    0.955
    34   1 H    0.998 --    17 C    0.967
    35   1 H    0.996 --    18 C    0.968
    36   1 H    0.995 --    19 C    0.968
    37   1 H    0.995 --    20 C    0.967
    38   1 H    0.995 --    21 C    0.965
 ---------------------------------------------------------------------------

molecular dipole:
                 x           y           z       tot (Debye)
 q only:       -2.631      -0.959       7.381
   full:       -2.830      -0.840       7.604      20.734

           -------------------------------------------------
          | TOTAL ENERGY              -56.720925981451 Eh   |
          | GRADIENT NORM               0.000784466455 Eh/α |
          | HOMO-LUMO GAP               3.119379121014 eV   |
           -------------------------------------------------

 * finished run on 2024/12/20 at 07:21:05.504
