   * xtb version 6.7.1 (edcfbbe) compiled by 'conda@3ef47c1a292c' on 2024-11-25

   ID    Z sym.   atoms
    1    6 C      1-20, 22-43
    2    7 N      21
    3    1 H      44-131

          program call               : xtb C1356.xyz --opt --namespace C1356 --charge +1
          :  Hamiltonian                  GFN2-xTB          :
 * total energy  :  -137.4055961 Eh     change       -0.7023004E-10 Eh
 * total energy  :  -137.4143016 Eh     change       -0.8705471E-02 Eh
 * total energy  :  -137.4161269 Eh     change       -0.1825298E-02 Eh
 * total energy  :  -137.4162720 Eh     change       -0.1450661E-03 Eh
 * total energy  :  -137.4164386 Eh     change       -0.1666406E-03 Eh
 * total energy  :  -137.4165462 Eh     change       -0.1075847E-03 Eh
 * total energy  :  -137.4167275 Eh     change       -0.1812709E-03 Eh
 * total energy  :  -137.4169452 Eh     change       -0.2177417E-03 Eh
 * total energy  :  -137.4171421 Eh     change       -0.1969160E-03 Eh
 * total energy  :  -137.4173278 Eh     change       -0.1856438E-03 Eh
 * total energy  :  -137.4200151 Eh     change       -0.9559438E-05 Eh
 * total energy  :  -137.4200260 Eh     change       -0.1088735E-04 Eh
 * total energy  :  -137.4200381 Eh     change       -0.1212098E-04 Eh
 * total energy  :  -137.4200506 Eh     change       -0.1246831E-04 Eh
 * total energy  :  -137.4200626 Eh     change       -0.1202537E-04 Eh
 * total energy  :  -137.4200732 Eh     change       -0.1058943E-04 Eh
 * total energy  :  -137.4200814 Eh     change       -0.8186139E-05 Eh
 * total energy  :  -137.4200873 Eh     change       -0.5917945E-05 Eh
 * total energy  :  -137.4200920 Eh     change       -0.4698052E-05 Eh
   *** GEOMETRY OPTIMIZATION CONVERGED AFTER 88 ITERATIONS ***

 final structure:
================
131
 xtb: 6.7.1 (edcfbbe)
C            2.21006476682132        0.09270942680355       -1.11665887986672
C            2.54142829367354       -1.24884767196419       -0.47353811741829
C            2.31843096530417       -1.26451604968552        1.03957709524741
C            0.87524768041932       -1.01458543581999        1.48211571137014
C           -0.14759478724723       -2.02112860057369        0.95206766976229
C            0.10640249936169       -3.47504345582806        1.35511532967516
C            0.13320185576680       -3.73341330340146        2.86312736924898
C           -1.13425802570717       -3.31859268368054        3.61311185830702
C           -2.42144696788064       -3.98532482965823        3.12479645974836
C           -2.44726130118233       -5.50998397347916        3.24867144805394
C           -2.28847158731525       -6.04711692283302        4.67282431211999
C           -3.31687183856472       -5.52586088603241        5.67878951651662
C           -4.77619013638441       -5.79781895112121        5.30932383518890
C           -5.15094695213452       -7.27745263559256        5.20515843252455
C           -4.96792247482536       -8.08414334249609        6.49289745774231
C           -5.72122838780751       -7.53891367168223        7.70843709191590
C           -7.23353636394442       -7.40797802450708        7.51710896784055
C           -7.96738638481949       -8.72113076268711        7.23581003707444
C           -7.80219817851595       -9.81182332997194        8.30410249286722
C           -8.07692588259761       -9.40790154002648        9.75627712710095
N           -9.48385762349715       -9.51157801846103       10.25846848053408
C           -9.92090574409111      -10.93730070610738       10.39523704287259
C           -9.28066607107161      -11.78057025703940       11.50267953316542
C           -9.94841680289311      -11.73587895017245       12.88480032515922
C          -11.45699759467735      -11.99299116317539       12.89539850790328
C          -11.89017815574932      -13.33302082328218       12.29748452080234
C          -11.34049692907339      -14.56390361798050       13.02209470245851
C          -11.68910139091636      -14.64592945645464       14.51013581876979
C          -13.18477765311624      -14.59763050068402       14.82830027905358
C          -14.01116167430015      -15.73234566808019       14.22036344117691
C          -13.62760674051102      -17.13573660083026       14.69434683746582
C          -13.70506984817421      -17.35083128464419       16.20751279847001
C          -15.06806869104024      -17.05276688694860       16.83519805211752
C          -16.22567090587847      -17.89614075020262       16.29806075419588
C          -16.08281723377659      -19.40372318570086       16.51668332064231
C          -15.92989104922124      -19.83401343996916       17.97717540023771
C          -17.06521034417908      -19.39415086689819       18.90367495194765
C          -18.45397409956831      -19.90190951832841       18.51149702587982
C          -18.59675328633407      -21.42455507732983       18.46408337276079
C          -18.30525187512524      -22.14152639546488       19.78335223121316
C          -19.25237597281709      -21.74038151369918       20.90817226077434
C           -9.54999346715806       -8.81536926716608       11.55622156846064
C          -10.42045170694348       -8.84096764533479        9.33851359970850
H            1.14716795377868        0.30950726402409       -1.04715050223533
H            2.48397306971742        0.08388583471640       -2.16932122358140
H            2.75839156879119        0.89500380232656       -0.62728039535837
H            1.94832293182889       -2.03461922856151       -0.94464185889255
H            3.59291197802926       -1.47945442711240       -0.66273289795104
H            2.65523290857063       -2.22630245347707        1.43212021885716
H            2.94821555520540       -0.49317508797834        1.49101488075983
H            0.84871636538933       -1.01498599577380        2.57398216149547
H            0.57102720476338       -0.01734895860221        1.15788906275459
H           -1.13701088355802       -1.71805686039351        1.30205432293976
H           -0.16868544340659       -1.96962080665588       -0.13838118268209
H           -0.66689307814079       -4.09622416601007        0.89724401121199
H            1.06155939405557       -3.80063744601932        0.93820544788273
H            0.31550922127402       -4.79852552904820        3.02376973703688
H            0.97700330429655       -3.19762843451908        3.30268031787739
H           -0.99204253886775       -3.53982644295471        4.67342794363051
H           -1.26001253620909       -2.23726595447317        3.52917166490019
H           -3.25926266810047       -3.56331689498750        3.68465629562974
H           -2.58066758482972       -3.72803877422493        2.07604056456105
H           -3.38965016351524       -5.87106910220299        2.82979751364659
H           -1.64755601190029       -5.93207613790140        2.63729562045109
H           -2.33860148413030       -7.13796420699564        4.63448328710528
H           -1.29450728857015       -5.78885262093637        5.04301622046108
H           -3.09883125420271       -5.96926205439497        6.65336736487394
H           -3.19188286611086       -4.44695882838962        5.78697296538745
H           -5.41498726114151       -5.31093440527628        6.05031793530687
H           -4.99289900931875       -5.32740941148655        4.34909585972623
H           -6.19096894255860       -7.34640825905400        4.87645146592500
H           -4.54387902460112       -7.74425767517052        4.42824573711378
H           -5.27788065897025       -9.11424189794957        6.29974672196297
H           -3.90693381526166       -8.11559743107855        6.74468017688680
H           -5.50830777933722       -8.18329311839763        8.56563990946364
H           -5.32810910473399       -6.55078825471023        7.95065120990265
H           -7.65647902901236       -6.91626751585340        8.39889183016693
H           -7.42345837065763       -6.74069400800830        6.67649490516571
H           -9.01986042239548       -8.49499532737676        7.06112457563220
H           -7.58290837029158       -9.13614721743914        6.30383238807437
H           -8.39935918829344      -10.67871582741617        8.01769536030199
H           -6.76113808095579      -10.13676357275112        8.27606268401186
H           -7.46891358797638      -10.03197138819936       10.41266229264399
H           -7.75809359444126       -8.37417377443509        9.89435380849335
H          -11.00124897443673      -10.93301481930452       10.54407384706143
H           -9.72133189216952      -11.41404892417647        9.43457839038081
H           -9.32536033049343      -12.81377942054465       11.15531831241583
H           -8.22189755006202      -11.54289573293999       11.61516498225561
H           -9.46534425262863      -12.50342649535984       13.48990860227889
H           -9.75920733523842      -10.78529315463469       13.38474057862203
H          -11.78892671474433      -11.94893698573937       13.93263165709544
H          -11.98433482903311      -11.18936865312352       12.37165520750918
H          -12.98000058101944      -13.37146521474656       12.31776749848812
H          -11.59089494881447      -13.38682824472427       11.24729832909961
H          -11.72882311676272      -15.44935975009922       12.51687095223389
H          -10.25257652024461      -14.59425086468640       12.92213202299259
H          -11.27211447469994      -15.57502160165619       14.90121306570038
H          -11.19719680655434      -13.82983182398332       15.04535861897417
H          -13.29882801273290      -14.61717934459343       15.91314864241140
H          -13.60041336912511      -13.64721087178581       14.48458535653284
H          -15.06043243104108      -15.55135246530191       14.46042143427475
H          -13.92570210315986      -15.70264744139928       13.13143594296560
H          -14.28660960682308      -17.85058940525101       14.19795156110669
H          -12.60997723209795      -17.36369523687710       14.36816317587014
H          -13.43450602386741      -18.38762788942536       16.41564437283851
H          -12.95759541873347      -16.72405706713322       16.69982435817068
H          -14.98537349785913      -17.20573905012030       17.91278666545925
H          -15.31291305491684      -15.99899649734864       16.68324989355209
H          -17.14530632507060      -17.55249119359828       16.77587193755410
H          -16.33836351431585      -17.71515188020348       15.22662106835961
H          -16.96137873597082      -19.89212765667694       16.09022856591850
H          -15.21603425100035      -19.76863244485808       15.96077437820432
H          -15.84767735993432      -20.92245806073615       18.00323782032699
H          -14.99263055689988      -19.43633196147602       18.37326852458552
H          -16.83108658212651      -19.73603819365553       19.91386098237864
H          -17.09872911797598      -18.30286303080117       18.93909542722505
H          -19.17735054870703      -19.49843100885945       19.22289352100130
H          -18.71902489442521      -19.50405803889596       17.52948940528076
H          -19.62101748877473      -21.65818423456845       18.16127627032434
H          -17.93361226218574      -21.82578912948106       17.69478912892643
H          -18.39865940591696      -23.21686767008661       19.61157307984157
H          -17.27516084442628      -21.95140640381072       20.08981064057649
H          -20.28714597190534      -21.87961045081471       20.60207394151922
H          -19.07124682411167      -22.35181209991912       21.78939104991873
H          -19.11255281193975      -20.69894307845567       21.18644869333827
H           -9.40157808642932       -7.74605348078632       11.41230714399360
H          -10.52464257186039       -8.97318640022208       12.01350673989810
H           -8.77708448829824       -9.18410607961691       12.22566940158056
H          -10.06701777225099       -7.83637338418889        9.11528354481653
H          -10.51115493681806       -9.40214404928614        8.41203128026818
H          -11.40549891821343       -8.76987228026499        9.79764554431213

          :  Hamiltonian                  GFN2-xTB          :
         :: total energy            -137.420092016947 Eh    ::
         :: gradient norm              0.000234944364 Eh/a0 ::
         :: HOMO-LUMO gap              5.932796921187 eV    ::
         :: SCC energy              -139.433120876443 Eh    ::
         :: -> dispersion             -0.115811542187 Eh    ::
         :: repulsion energy           2.013028859496 Eh    ::

    * Orbital Energies and Occupations

         #    Occupation            Energy/Eh            Energy/eV
      -------------------------------------------------------------
         1        2.0000           -0.8554721             -23.2786
       ...           ...                  ...                  ...
       118        2.0000           -0.4668963             -12.7049
       119        2.0000           -0.4584958             -12.4763
       120        2.0000           -0.4584957             -12.4763
       121        2.0000           -0.4574850             -12.4488
       122        2.0000           -0.4574850             -12.4488
       123        2.0000           -0.4558146             -12.4033
       124        2.0000           -0.4558146             -12.4033
       125        2.0000           -0.4491517             -12.2220
       126        2.0000           -0.4491517             -12.2220
       127        2.0000           -0.4424617             -12.0400
       128        2.0000           -0.4424617             -12.0400
       129        2.0000           -0.4416101             -12.0168
       130        2.0000           -0.4416101             -12.0168 (HOMO)
       131                         -0.2235838              -6.0840 (LUMO)
       132                         -0.1629821              -4.4350
       133                         -0.1415973              -3.8531
       134                         -0.1367178              -3.7203
       135                         -0.0758348              -2.0636
       136                         -0.0741761              -2.0184
       137                         -0.0552990              -1.5048
       138                         -0.0307142              -0.8358
       139                         -0.0304543              -0.8287
       140                         -0.0282405              -0.7685
       141                         -0.0121044              -0.3294
       ...                                ...                  ...
       260                          0.2788386               7.5876
      -------------------------------------------------------------
                  HL-Gap            0.2180263 Eh            5.9328 eV

     #   Z          covCN         q      C6AA      α(0)
     1   6 C        3.751    -0.101    22.494     6.764
     2   6 C        3.799    -0.052    21.505     6.603
     3   6 C        3.800    -0.057    21.595     6.616
     4   6 C        3.800    -0.056    21.590     6.616
     5   6 C        3.800    -0.056    21.582     6.614
     6   6 C        3.800    -0.056    21.584     6.615
     7   6 C        3.800    -0.056    21.581     6.614
     8   6 C        3.800    -0.056    21.583     6.615
     9   6 C        3.800    -0.056    21.590     6.616
    10   6 C        3.800    -0.057    21.593     6.616
    11   6 C        3.800    -0.057    21.593     6.616
    12   6 C        3.800    -0.057    21.600     6.617
    13   6 C        3.800    -0.058    21.616     6.620
    14   6 C        3.800    -0.059    21.632     6.622
    15   6 C        3.800    -0.059    21.641     6.624
    16   6 C        3.800    -0.061    21.676     6.629
    17   6 C        3.800    -0.062    21.687     6.631
    18   6 C        3.799    -0.071    21.860     6.657
    19   6 C        3.798    -0.071    21.861     6.657
    20   6 C        3.759    -0.041    21.349     6.587
    21   7 N        3.620     0.129    19.042     6.481
    22   6 C        3.759    -0.041    21.349     6.587
    23   6 C        3.798    -0.071    21.861     6.657
    24   6 C        3.799    -0.071    21.860     6.657
    25   6 C        3.800    -0.062    21.687     6.631
    26   6 C        3.800    -0.061    21.676     6.629
    27   6 C        3.800    -0.059    21.641     6.624
    28   6 C        3.800    -0.059    21.632     6.622
    29   6 C        3.800    -0.058    21.616     6.620
    30   6 C        3.800    -0.057    21.600     6.617
    31   6 C        3.800    -0.057    21.593     6.616
    32   6 C        3.800    -0.057    21.593     6.616
    33   6 C        3.800    -0.056    21.590     6.616
    34   6 C        3.800    -0.056    21.583     6.615
    35   6 C        3.800    -0.056    21.581     6.614
    36   6 C        3.800    -0.056    21.584     6.615
    37   6 C        3.800    -0.056    21.582     6.614
    38   6 C        3.800    -0.056    21.590     6.616
    39   6 C        3.800    -0.057    21.595     6.616
    40   6 C        3.799    -0.052    21.505     6.603
    41   6 C        3.751    -0.101    22.494     6.764
    42   6 C        3.726    -0.091    22.347     6.750
    43   6 C        3.726    -0.091    22.347     6.750
    44   1 H        0.925     0.034     2.532     2.488
    45   1 H        0.925     0.031     2.573     2.508
    46   1 H        0.925     0.033     2.542     2.493
    47   1 H        0.924     0.030     2.581     2.512
    48   1 H        0.924     0.026     2.639     2.540
    49   1 H        0.924     0.028     2.611     2.527
    50   1 H        0.924     0.028     2.621     2.532
    51   1 H        0.924     0.028     2.622     2.532
    52   1 H        0.924     0.031     2.579     2.511
    53   1 H        0.924     0.027     2.636     2.539
    54   1 H        0.924     0.031     2.576     2.510
    55   1 H        0.924     0.026     2.641     2.541
    56   1 H        0.924     0.031     2.573     2.509
    57   1 H        0.924     0.026     2.643     2.543
    58   1 H        0.924     0.031     2.578     2.511
    59   1 H        0.924     0.026     2.648     2.545
    60   1 H        0.924     0.031     2.573     2.508
    61   1 H        0.924     0.025     2.658     2.549
    62   1 H        0.924     0.033     2.549     2.497
    63   1 H        0.924     0.025     2.659     2.550
    64   1 H        0.924     0.033     2.539     2.492
    65   1 H        0.924     0.025     2.658     2.550
    66   1 H        0.924     0.033     2.541     2.493
    67   1 H        0.924     0.024     2.672     2.556
    68   1 H        0.924     0.034     2.525     2.485
    69   1 H        0.924     0.023     2.691     2.565
    70   1 H        0.924     0.038     2.480     2.463
    71   1 H        0.924     0.024     2.675     2.558
    72   1 H        0.924     0.040     2.450     2.448
    73   1 H        0.924     0.024     2.677     2.559
    74   1 H        0.924     0.041     2.437     2.441
    75   1 H        0.924     0.020     2.735     2.586
    76   1 H        0.924     0.045     2.389     2.417
    77   1 H        0.924     0.014     2.833     2.632
    78   1 H        0.925     0.054     2.269     2.356
    79   1 H        0.924     0.033     2.549     2.497
    80   1 H        0.924     0.062     2.181     2.309
    81   1 H        0.924     0.047     2.363     2.404
    82   1 H        0.924     0.075     2.030     2.228
    83   1 H        0.924     0.078     1.999     2.211
    84   1 H        0.924     0.091     1.870     2.139
    85   1 H        0.924     0.091     1.870     2.139
    86   1 H        0.924     0.078     1.999     2.211
    87   1 H        0.924     0.075     2.030     2.228
    88   1 H        0.924     0.047     2.363     2.404
    89   1 H        0.924     0.062     2.181     2.309
    90   1 H        0.924     0.033     2.549     2.497
    91   1 H        0.925     0.054     2.269     2.356
    92   1 H        0.924     0.014     2.833     2.632
    93   1 H        0.924     0.045     2.389     2.417
    94   1 H        0.924     0.020     2.735     2.586
    95   1 H        0.924     0.041     2.437     2.441
    96   1 H        0.924     0.024     2.677     2.559
    97   1 H        0.924     0.040     2.450     2.448
    98   1 H        0.924     0.024     2.675     2.558
    99   1 H        0.924     0.038     2.480     2.463
   100   1 H        0.924     0.023     2.691     2.565
   101   1 H        0.924     0.034     2.525     2.485
   102   1 H        0.924     0.024     2.672     2.556
   103   1 H        0.924     0.033     2.541     2.493
   104   1 H        0.924     0.025     2.658     2.550
   105   1 H        0.924     0.033     2.539     2.492
   106   1 H        0.924     0.025     2.659     2.550
   107   1 H        0.924     0.033     2.549     2.497
   108   1 H        0.924     0.025     2.658     2.549
   109   1 H        0.924     0.031     2.573     2.508
   110   1 H        0.924     0.026     2.648     2.545
   111   1 H        0.924     0.031     2.578     2.511
   112   1 H        0.924     0.026     2.643     2.543
   113   1 H        0.924     0.031     2.573     2.509
   114   1 H        0.924     0.026     2.641     2.541
   115   1 H        0.924     0.031     2.576     2.510
   116   1 H        0.924     0.027     2.636     2.539
   117   1 H        0.924     0.031     2.579     2.511
   118   1 H        0.924     0.028     2.622     2.532
   119   1 H        0.924     0.028     2.621     2.532
   120   1 H        0.924     0.028     2.611     2.527
   121   1 H        0.924     0.026     2.639     2.540
   122   1 H        0.924     0.030     2.581     2.512
   123   1 H        0.925     0.033     2.542     2.493
   124   1 H        0.925     0.031     2.573     2.508
   125   1 H        0.925     0.034     2.532     2.488
   126   1 H        0.925     0.091     1.867     2.137
   127   1 H        0.925     0.099     1.792     2.093
   128   1 H        0.925     0.099     1.793     2.094
   129   1 H        0.925     0.099     1.792     2.093
   130   1 H        0.925     0.099     1.793     2.094
   131   1 H        0.925     0.091     1.867     2.137

Wiberg/Mayer (AO) data.
largest (>0.10) Wiberg bond orders for each atom

     #   Z sym  total        # sym  WBO       # sym  WBO       # sym  WBO
 ---------------------------------------------------------------------------
     1   6 C    3.997 --     2 C    1.020    46 H    0.988    45 H    0.988
                            44 H    0.986
     2   6 C    3.998 --     1 C    1.020     3 C    1.008    48 H    0.979
                            47 H    0.976
     3   6 C    3.998 --     2 C    1.008     4 C    1.008    50 H    0.977
                            49 H    0.976
     4   6 C    3.998 --     5 C    1.008     3 C    1.008    52 H    0.975
                            51 H    0.975
     5   6 C    3.998 --     4 C    1.008     6 C    1.008    53 H    0.975
                            54 H    0.975
     6   6 C    3.998 --     5 C    1.008     7 C    1.008    55 H    0.975
                            56 H    0.975
     7   6 C    3.998 --     8 C    1.008     6 C    1.008    57 H    0.976
                            58 H    0.975
     8   6 C    3.998 --     9 C    1.008     7 C    1.008    59 H    0.975
                            60 H    0.975
     9   6 C    3.998 --     8 C    1.008    10 C    1.008    61 H    0.975
                            62 H    0.974
    10   6 C    3.997 --     9 C    1.008    11 C    1.008    63 H    0.975
                            64 H    0.975
    11   6 C    3.997 --    12 C    1.008    10 C    1.008    65 H    0.976
                            66 H    0.975
    12   6 C    3.997 --    13 C    1.008    11 C    1.008    67 H    0.975
                            68 H    0.974
    13   6 C    3.997 --    12 C    1.008    14 C    1.008    69 H    0.975
                            70 H    0.974
    14   6 C    3.997 --    13 C    1.008    15 C    1.007    71 H    0.975
                            72 H    0.974
    15   6 C    3.996 --    14 C    1.007    16 C    1.007    73 H    0.976
                            74 H    0.974
    16   6 C    3.996 --    15 C    1.007    17 C    1.007    75 H    0.976
                            76 H    0.973
    17   6 C    3.995 --    18 C    1.008    16 C    1.007    77 H    0.971
                            78 H    0.970
    18   6 C    3.991 --    17 C    1.008    19 C    1.004    79 H    0.974
                            80 H    0.970
    19   6 C    3.984 --    20 C    1.005    18 C    1.004    81 H    0.966
                            82 H    0.965
    20   6 C    3.928 --    19 C    1.005    83 H    0.964    84 H    0.959
                            21 N    0.923
    21   7 N    3.808 --    42 C    0.961    43 C    0.961    20 C    0.923
                            22 C    0.923
    22   6 C    3.928 --    23 C    1.005    86 H    0.964    85 H    0.959
                            21 N    0.923
    23   6 C    3.984 --    22 C    1.005    24 C    1.004    88 H    0.966
                            87 H    0.965
    24   6 C    3.991 --    25 C    1.008    23 C    1.004    90 H    0.974
                            89 H    0.970
    25   6 C    3.995 --    24 C    1.008    26 C    1.007    92 H    0.971
                            91 H    0.970
    26   6 C    3.996 --    27 C    1.007    25 C    1.007    94 H    0.976
                            93 H    0.973
    27   6 C    3.996 --    28 C    1.007    26 C    1.007    96 H    0.976
                            95 H    0.974
    28   6 C    3.997 --    29 C    1.008    27 C    1.007    98 H    0.975
                            97 H    0.974
    29   6 C    3.997 --    30 C    1.008    28 C    1.008   100 H    0.975
                            99 H    0.974
    30   6 C    3.997 --    29 C    1.008    31 C    1.008   102 H    0.975
                           101 H    0.974
    31   6 C    3.997 --    30 C    1.008    32 C    1.008   104 H    0.976
                           103 H    0.975
    32   6 C    3.997 --    33 C    1.008    31 C    1.008   106 H    0.975
                           105 H    0.975
    33   6 C    3.998 --    34 C    1.008    32 C    1.008   108 H    0.975
                           107 H    0.974
    34   6 C    3.998 --    33 C    1.008    35 C    1.008   110 H    0.975
                           109 H    0.975
    35   6 C    3.998 --    34 C    1.008    36 C    1.008   112 H    0.976
                           111 H    0.975
    36   6 C    3.998 --    37 C    1.008    35 C    1.008   114 H    0.975
                           113 H    0.975
    37   6 C    3.998 --    38 C    1.008    36 C    1.008   116 H    0.975
                           115 H    0.975
    38   6 C    3.998 --    37 C    1.008    39 C    1.008   117 H    0.975
                           118 H    0.975
    39   6 C    3.998 --    40 C    1.008    38 C    1.008   119 H    0.977
                           120 H    0.976
    40   6 C    3.998 --    41 C    1.020    39 C    1.008   121 H    0.979
                           122 H    0.976
    41   6 C    3.997 --    40 C    1.020   123 H    0.988   124 H    0.988
                           125 H    0.986
    42   6 C    3.931 --   126 H    0.975   127 H    0.973   128 H    0.972
                            21 N    0.961
    43   6 C    3.931 --   131 H    0.975   129 H    0.973   130 H    0.972
                            21 N    0.961
    44   1 H    0.999 --     1 C    0.986
    45   1 H    0.999 --     1 C    0.988
    46   1 H    0.999 --     1 C    0.988
    47   1 H    0.999 --     2 C    0.976
    48   1 H    0.999 --     2 C    0.979
    49   1 H    0.999 --     3 C    0.976
    50   1 H    0.999 --     3 C    0.977
    51   1 H    0.999 --     4 C    0.975
    52   1 H    0.999 --     4 C    0.975
    53   1 H    0.999 --     5 C    0.975
    54   1 H    0.999 --     5 C    0.975
    55   1 H    0.999 --     6 C    0.975
    56   1 H    0.999 --     6 C    0.975
    57   1 H    0.999 --     7 C    0.976
    58   1 H    0.999 --     7 C    0.975
    59   1 H    0.999 --     8 C    0.975
    60   1 H    0.999 --     8 C    0.975
    61   1 H    0.999 --     9 C    0.975
    62   1 H    0.999 --     9 C    0.974
    63   1 H    0.999 --    10 C    0.975
    64   1 H    0.999 --    10 C    0.975
    65   1 H    0.999 --    11 C    0.976
    66   1 H    0.999 --    11 C    0.975
    67   1 H    0.999 --    12 C    0.975
    68   1 H    0.999 --    12 C    0.974
    69   1 H    0.999 --    13 C    0.975
    70   1 H    0.999 --    13 C    0.974
    71   1 H    0.999 --    14 C    0.975
    72   1 H    0.998 --    14 C    0.974
    73   1 H    0.999 --    15 C    0.976
    74   1 H    0.998 --    15 C    0.974
    75   1 H    1.000 --    16 C    0.976
    76   1 H    0.998 --    16 C    0.973
    77   1 H    1.000 --    17 C    0.971
    78   1 H    0.997 --    17 C    0.970
    79   1 H    0.999 --    18 C    0.974
    80   1 H    0.996 --    18 C    0.970
    81   1 H    0.998 --    19 C    0.966
    82   1 H    0.994 --    19 C    0.965
    83   1 H    0.994 --    20 C    0.964
    84   1 H    0.992 --    20 C    0.959
    85   1 H    0.992 --    22 C    0.959
    86   1 H    0.994 --    22 C    0.964
    87   1 H    0.994 --    23 C    0.965
    88   1 H    0.998 --    23 C    0.966
    89   1 H    0.996 --    24 C    0.970
    90   1 H    0.999 --    24 C    0.974
    91   1 H    0.997 --    25 C    0.970
    92   1 H    1.000 --    25 C    0.971
    93   1 H    0.998 --    26 C    0.973
    94   1 H    1.000 --    26 C    0.976
    95   1 H    0.998 --    27 C    0.974
    96   1 H    0.999 --    27 C    0.976
    97   1 H    0.998 --    28 C    0.974
    98   1 H    0.999 --    28 C    0.975
    99   1 H    0.999 --    29 C    0.974
   100   1 H    0.999 --    29 C    0.975
   101   1 H    0.999 --    30 C    0.974
   102   1 H    0.999 --    30 C    0.975
   103   1 H    0.999 --    31 C    0.975
   104   1 H    0.999 --    31 C    0.976
   105   1 H    0.999 --    32 C    0.975
   106   1 H    0.999 --    32 C    0.975
   107   1 H    0.999 --    33 C    0.974
   108   1 H    0.999 --    33 C    0.975
   109   1 H    0.999 --    34 C    0.975
   110   1 H    0.999 --    34 C    0.975
   111   1 H    0.999 --    35 C    0.975
   112   1 H    0.999 --    35 C    0.976
   113   1 H    0.999 --    36 C    0.975
   114   1 H    0.999 --    36 C    0.975
   115   1 H    0.999 --    37 C    0.975
   116   1 H    0.999 --    37 C    0.975
   117   1 H    0.999 --    38 C    0.975
   118   1 H    0.999 --    38 C    0.975
   119   1 H    0.999 --    39 C    0.977
   120   1 H    0.999 --    39 C    0.976
   121   1 H    0.999 --    40 C    0.979
   122   1 H    0.999 --    40 C    0.976
   123   1 H    0.999 --    41 C    0.988
   124   1 H    0.999 --    41 C    0.988
   125   1 H    0.999 --    41 C    0.986
   126   1 H    0.992 --    42 C    0.975
   127   1 H    0.990 --    42 C    0.973
   128   1 H    0.990 --    42 C    0.972
   129   1 H    0.990 --    43 C    0.973
   130   1 H    0.990 --    43 C    0.972
   131   1 H    0.992 --    43 C    0.975
 ---------------------------------------------------------------------------

molecular dipole:
                 x           y           z       tot (Debye)
 q only:      -17.660     -18.331      19.287
   full:      -17.683     -18.300      19.296      81.173

           -------------------------------------------------
          | TOTAL ENERGY             -137.420092016947 Eh   |
          | GRADIENT NORM               0.000234944364 Eh/α |
          | HOMO-LUMO GAP               5.932796921187 eV   |
           -------------------------------------------------

 * finished run on 2024/12/20 at 07:21:03.386
