   * xtb version 6.7.1 (edcfbbe) compiled by 'conda@3ef47c1a292c' on 2024-11-25

   ID    Z sym.   atoms
    1    8 O      1, 11, 14
    2    7 N      2, 5, 8
    3    6 C      3, 4, 6, 7, 9, 10, 12, 13, 15
    4    1 H      16-29

          program call               : xtb C1355.xyz --opt --namespace C1355 --charge +1
          :  Hamiltonian                  GFN2-xTB          :
 * total energy  :   -46.9344322 Eh     change       -0.1183039E-08 Eh
 * total energy  :   -46.9455544 Eh     change       -0.1112221E-01 Eh
 * total energy  :   -46.9483103 Eh     change       -0.2755864E-02 Eh
 * total energy  :   -46.9487504 Eh     change       -0.4401563E-03 Eh
 * total energy  :   -46.9489660 Eh     change       -0.2155675E-03 Eh
 * total energy  :   -46.9491345 Eh     change       -0.1684508E-03 Eh
 * total energy  :   -46.9492569 Eh     change       -0.1224753E-03 Eh
 * total energy  :   -46.9493677 Eh     change       -0.1107792E-03 Eh
 * total energy  :   -46.9494475 Eh     change       -0.7977170E-04 Eh
 * total energy  :   -46.9494998 Eh     change       -0.5232679E-04 Eh
 * total energy  :   -46.9501840 Eh     change       -0.4135004E-04 Eh
 * total energy  :   -46.9502034 Eh     change       -0.1942205E-04 Eh
 * total energy  :   -46.9502200 Eh     change       -0.1657571E-04 Eh
 * total energy  :   -46.9502321 Eh     change       -0.1211505E-04 Eh
 * total energy  :   -46.9502383 Eh     change       -0.6236505E-05 Eh
 * total energy  :   -46.9502444 Eh     change       -0.6064324E-05 Eh
 * total energy  :   -46.9502516 Eh     change       -0.7152079E-05 Eh
 * total energy  :   -46.9502576 Eh     change       -0.6019698E-05 Eh
 * total energy  :   -46.9502624 Eh     change       -0.4857060E-05 Eh
   *** GEOMETRY OPTIMIZATION CONVERGED AFTER 39 ITERATIONS ***

 final structure:
================
29
 xtb: 6.7.1 (edcfbbe)
O            0.63738056406871        0.84172433055087       -1.10449980040093
N           -0.54550233263408        0.41686046170719       -1.66057020556587
C           -1.44096833101147       -0.01724586131614       -0.89608228371814
C           -1.35047331405106       -0.16593997605788        0.61147770316245
N           -2.34468214113384        0.64750172889493        1.27131188962644
C           -3.48510819415644        0.17984515690690        1.84869555768155
C           -4.18431261419782        1.25824360172422        2.29826339531181
N           -3.46759293131056        2.36794390669849        1.98343200803278
C           -2.35078678327302        1.98373784040773        1.35906954942073
C           -1.29726210893778        2.92444700560372        0.85572707325710
O           -1.84257569588494        3.75552728538478       -0.12968829904447
C           -1.01092439326885        4.90766476940790       -0.14739570265698
C           -0.45084103093937        4.98314701372019        1.29018500039430
O           -0.87723472701870        3.76513412848801        1.89673088561137
C           -3.84863495874270        3.72426122397170        2.27388504047397
H            1.21169588039042        1.03957033738663       -1.86121567348074
H           -2.35523814488661       -0.31931284706280       -1.38336466789330
H           -1.52945339500598       -1.21019274669069        0.87942862315991
H           -0.34820570208754        0.12202955230591        0.94010837994834
H           -3.71592371726684       -0.86444509439315        1.90548219233490
H           -5.12475025011016        1.30416054960109        2.80902959681025
H           -0.43520520481000        2.35773362359261        0.45306501607761
H           -1.63042652782249        5.75935768268007       -0.42451943366537
H           -0.20794180241712        4.77837705905951       -0.88065888181178
H           -0.86798711293010        5.80673473426725        1.87183986194115
H            0.64055970568445        5.04180688746379        1.29911669418791
H           -3.16164512966222        4.15365141916332        3.00428388627148
H           -3.80790586891961        4.31901389330140        1.36153084558191
H           -4.85996373766499        3.73508233323292        2.67308174895268

          :  Hamiltonian                  GFN2-xTB          :
         :: total energy             -46.950262432455 Eh    ::
         :: gradient norm              0.000699313858 Eh/a0 ::
         :: HOMO-LUMO gap              3.184416561650 eV    ::
         :: SCC energy               -47.470726579107 Eh    ::
         :: -> dispersion             -0.025484516342 Eh    ::
         :: repulsion energy           0.520464146652 Eh    ::

    * Orbital Energies and Occupations

         #    Occupation            Energy/Eh            Energy/eV
      -------------------------------------------------------------
         1        2.0000           -0.8938968             -24.3242
       ...           ...                  ...                  ...
        29        2.0000           -0.6465971             -17.5948
        30        2.0000           -0.6450311             -17.5522
        31        2.0000           -0.6434768             -17.5099
        32        2.0000           -0.6287934             -17.1103
        33        2.0000           -0.6234793             -16.9657
        34        2.0000           -0.6175316             -16.8039
        35        2.0000           -0.6020133             -16.3816
        36        2.0000           -0.6017285             -16.3739
        37        2.0000           -0.5824532             -15.8494
        38        2.0000           -0.5607189             -15.2579
        39        2.0000           -0.5527617             -15.0414
        40        2.0000           -0.5480491             -14.9132
        41        2.0000           -0.5272583             -14.3474 (HOMO)
        42                         -0.4102331             -11.1630 (LUMO)
        43                         -0.3811462             -10.3715
        44                         -0.3673702              -9.9967
        45                         -0.1825692              -4.9680
        46                         -0.1619112              -4.4058
        47                         -0.1369594              -3.7269
        48                         -0.1270470              -3.4571
        49                         -0.1111119              -3.0235
        50                         -0.0757838              -2.0622
        51                         -0.0591876              -1.6106
        52                         -0.0508016              -1.3824
       ...                                ...                  ...
        74                          0.4673690              12.7178
      -------------------------------------------------------------
                  HL-Gap            0.1170252 Eh            3.1844 eV

     #   Z          covCN         q      C6AA      α(0)
     1   8 O        1.728    -0.332    19.563     5.972
     2   7 N        1.829    -0.058    23.085     7.120
     3   6 C        2.822     0.036    27.192     8.544
     4   6 C        3.743    -0.030    21.174     6.565
     5   7 N        2.869     0.047    20.410     6.710
     6   6 C        3.062    -0.006    28.109     8.694
     7   6 C        3.064    -0.006    28.117     8.695
     8   7 N        2.868     0.078    19.892     6.624
     9   6 C        3.130     0.085    25.913     8.334
    10   6 C        3.777     0.253    16.738     5.829
    11   8 O        1.703    -0.318    19.304     5.932
    12   6 C        3.771     0.066    19.512     6.295
    13   6 C        3.748     0.063    19.578     6.311
    14   8 O        1.702    -0.322    19.379     5.944
    15   6 C        3.692    -0.083    22.268     6.752
    16   1 H        0.804     0.340     0.613     1.229
    17   1 H        0.926     0.085     1.932     2.174
    18   1 H        0.924     0.103     1.758     2.074
    19   1 H        0.924     0.107     1.720     2.051
    20   1 H        0.926     0.112     1.680     2.027
    21   1 H        0.926     0.114     1.660     2.015
    22   1 H        0.922     0.051     2.302     2.373
    23   1 H        0.925     0.082     1.962     2.190
    24   1 H        0.924     0.061     2.188     2.313
    25   1 H        0.924     0.076     2.026     2.226
    26   1 H        0.924     0.068     2.110     2.271
    27   1 H        0.924     0.114     1.665     2.018
    28   1 H        0.925     0.113     1.674     2.023
    29   1 H        0.925     0.102     1.769     2.080

Wiberg/Mayer (AO) data.
largest (>0.10) Wiberg bond orders for each atom

     #   Z sym  total        # sym  WBO       # sym  WBO       # sym  WBO
 ---------------------------------------------------------------------------
     1   8 O    2.108 --     2 N    1.063    16 H    0.874     3 C    0.122
     2   7 N    3.053 --     3 C    1.892     1 O    1.063
     3   6 C    3.976 --     2 N    1.892     4 C    0.970    17 H    0.951
                             1 O    0.122
     4   6 C    3.936 --     3 C    0.970     5 N    0.967    18 H    0.952
                            19 H    0.951
     5   7 N    3.701 --     9 C    1.325     6 C    1.226     4 C    0.967
     6   6 C    3.943 --     7 C    1.579     5 N    1.226    20 H    0.960
     7   6 C    3.945 --     6 C    1.579     8 N    1.236    21 H    0.959
     8   7 N    3.723 --     9 C    1.342     7 C    1.236    15 C    0.986
     9   6 C    3.955 --     8 N    1.342     5 N    1.325    10 C    0.978
    10   6 C    3.942 --    11 O    0.979     9 C    0.978    14 O    0.976
                            22 H    0.935
    11   8 O    2.076 --    10 C    0.979    12 C    0.963
    12   6 C    3.930 --    13 C    0.988    24 H    0.972    23 H    0.970
                            11 O    0.963
    13   6 C    3.930 --    12 C    0.988    26 H    0.972    25 H    0.971
                            14 O    0.961
    14   8 O    2.068 --    10 C    0.976    13 C    0.961
    15   6 C    3.926 --     8 N    0.986    29 H    0.975    28 H    0.961
                            27 H    0.957
    16   1 H    0.884 --     1 O    0.874
    17   1 H    0.993 --     3 C    0.951
    18   1 H    0.989 --     4 C    0.952
    19   1 H    0.988 --     4 C    0.951
    20   1 H    0.987 --     6 C    0.960
    21   1 H    0.986 --     7 C    0.959
    22   1 H    0.997 --    10 C    0.935
    23   1 H    0.993 --    12 C    0.970
    24   1 H    0.996 --    12 C    0.972
    25   1 H    0.994 --    13 C    0.971
    26   1 H    0.995 --    13 C    0.972
    27   1 H    0.987 --    15 C    0.957
    28   1 H    0.987 --    15 C    0.961
    29   1 H    0.989 --    15 C    0.975
 ---------------------------------------------------------------------------

molecular dipole:
                 x           y           z       tot (Debye)
 q only:       -4.571       3.799       2.185
   full:       -4.444       3.702       2.289      15.811

           -------------------------------------------------
          | TOTAL ENERGY              -46.950262432455 Eh   |
          | GRADIENT NORM               0.000699313858 Eh/α |
          | HOMO-LUMO GAP               3.184416561650 eV   |
           -------------------------------------------------

 * finished run on 2024/12/20 at 07:20:47.727
