   * xtb version 6.7.1 (edcfbbe) compiled by 'conda@3ef47c1a292c' on 2024-11-25

   ID    Z sym.   atoms
    1    6 C      1-3, 5-7
    2    7 N      4
    3    1 H      8-21

          program call               : xtb C1353.xyz --opt --namespace C1353 --charge +1
          :  Hamiltonian                  GFN2-xTB          :
 * total energy  :   -22.4625213 Eh     change       -0.2576783E-10 Eh
 * total energy  :   -22.4676257 Eh     change       -0.5104432E-02 Eh
 * total energy  :   -22.4687682 Eh     change       -0.1142509E-02 Eh
 * total energy  :   -22.4688585 Eh     change       -0.9027467E-04 Eh
 * total energy  :   -22.4689355 Eh     change       -0.7703296E-04 Eh
 * total energy  :   -22.4689630 Eh     change       -0.2747599E-04 Eh
 * total energy  :   -22.4689828 Eh     change       -0.1983384E-04 Eh
 * total energy  :   -22.4689978 Eh     change       -0.1495723E-04 Eh
 * total energy  :   -22.4690046 Eh     change       -0.6811409E-05 Eh
 * total energy  :   -22.4690090 Eh     change       -0.4412815E-05 Eh
   *** GEOMETRY OPTIMIZATION CONVERGED AFTER 10 ITERATIONS ***

 final structure:
================
21
 xtb: 6.7.1 (edcfbbe)
C            1.00928575423301       -0.07442825257723        0.05676634219707
C            0.32499011894850       -1.07473267686682        0.58217828388733
C           -1.17286056806263       -1.16330871313629        0.52318386748135
N           -1.68542315574697       -2.25549920814988       -0.36789235685855
C           -1.21322712379541       -3.56981829271853        0.10297234020726
C           -3.15891825881375       -2.23507726273894       -0.34394902590791
C           -1.21580759401166       -2.03087236763599       -1.74616722995156
H            0.53349914801163        0.73553005638928       -0.47203214276835
H            2.07902890372820       -0.01495880405828        0.14939588527992
H            0.83289465508849       -1.85197547547890        1.13459422566633
H           -1.56596267981287       -1.34290652493884        1.52713479599333
H           -1.57699194188164       -0.21789520131093        0.15492419894453
H           -1.50342474774949       -3.72520887646745        1.14073893411637
H           -1.65052000705424       -4.36153142947502       -0.50313432166331
H           -0.13030382625713       -3.63287161223363        0.02454849050925
H           -3.53047490699237       -1.26824324229985       -0.67929529866763
H           -3.55560388347085       -3.00642454290269       -1.00202225809684
H           -3.52396436902501       -2.41725897265004        0.66548149379000
H           -1.60414122646319       -1.08828095903919       -2.12679806106250
H           -0.12822132572500       -1.99241477799425       -1.76654848900274
H           -1.55499296514758       -2.83645286371655       -2.39421967409341

          :  Hamiltonian                  GFN2-xTB          :
         :: total energy             -22.469009022592 Eh    ::
         :: gradient norm              0.000488154640 Eh/a0 ::
         :: HOMO-LUMO gap              5.396296681755 eV    ::
         :: SCC energy               -22.816135838376 Eh    ::
         :: -> dispersion             -0.012792885787 Eh    ::
         :: repulsion energy           0.347126815784 Eh    ::

    * Orbital Energies and Occupations

         #    Occupation            Energy/Eh            Energy/eV
      -------------------------------------------------------------
         1        2.0000           -0.8745203             -23.7969
       ...           ...                  ...                  ...
         9        2.0000           -0.7291960             -19.8424
        10        2.0000           -0.7025610             -19.1177
        11        2.0000           -0.6801506             -18.5078
        12        2.0000           -0.6699841             -18.2312
        13        2.0000           -0.6608577             -17.9829
        14        2.0000           -0.6555097             -17.8373
        15        2.0000           -0.6507547             -17.7079
        16        2.0000           -0.6501467             -17.6914
        17        2.0000           -0.6476392             -17.6232
        18        2.0000           -0.6425834             -17.4856
        19        2.0000           -0.6142832             -16.7155
        20        2.0000           -0.5851388             -15.9224
        21        2.0000           -0.5685539             -15.4711 (HOMO)
        22                         -0.3702437             -10.0748 (LUMO)
        23                         -0.2232364              -6.0746
        24                         -0.1584455              -4.3115
        25                         -0.1508074              -4.1037
        26                         -0.1483363              -4.0364
        27                         -0.0649424              -1.7672
        28                         -0.0438697              -1.1938
        29                         -0.0221830              -0.6036
        30                          0.0133642               0.3637
        31                          0.0177681               0.4835
        32                          0.0188736               0.5136
       ...                                ...                  ...
        42                          0.4580739              12.4648
      -------------------------------------------------------------
                  HL-Gap            0.1983103 Eh            5.3963 eV

     #   Z          covCN         q      C6AA      α(0)
     1   6 C        2.838    -0.076    29.885     8.959
     2   6 C        2.884    -0.046    29.130     8.848
     3   6 C        3.767    -0.042    21.361     6.587
     4   7 N        3.622     0.145    18.777     6.436
     5   6 C        3.721    -0.097    22.478     6.771
     6   6 C        3.725    -0.099    22.496     6.772
     7   6 C        3.722    -0.098    22.482     6.771
     8   1 H        0.926     0.070     2.091     2.261
     9   1 H        0.926     0.084     1.936     2.176
    10   1 H        0.926     0.064     2.154     2.295
    11   1 H        0.924     0.091     1.866     2.136
    12   1 H        0.924     0.092     1.861     2.133
    13   1 H        0.925     0.100     1.782     2.087
    14   1 H        0.925     0.100     1.789     2.092
    15   1 H        0.925     0.105     1.742     2.064
    16   1 H        0.925     0.100     1.785     2.089
    17   1 H        0.925     0.102     1.765     2.078
    18   1 H        0.925     0.101     1.780     2.086
    19   1 H        0.925     0.100     1.784     2.089
    20   1 H        0.925     0.103     1.759     2.074
    21   1 H        0.925     0.101     1.779     2.086

Wiberg/Mayer (AO) data.
largest (>0.10) Wiberg bond orders for each atom

     #   Z sym  total        # sym  WBO       # sym  WBO       # sym  WBO
 ---------------------------------------------------------------------------
     1   6 C    3.981 --     2 C    1.979     8 H    0.971     9 H    0.971
     2   6 C    3.981 --     1 C    1.979     3 C    1.017    10 H    0.961
     3   6 C    3.929 --     2 C    1.017    12 H    0.965    11 H    0.960
                             4 N    0.913
     4   7 N    3.817 --     6 C    0.959     7 C    0.958     5 C    0.957
                             3 C    0.913
     5   6 C    3.925 --    13 H    0.975    14 H    0.975    15 H    0.972
                             4 N    0.957
     6   6 C    3.926 --    18 H    0.975    16 H    0.975    17 H    0.974
                             4 N    0.959
     7   6 C    3.925 --    19 H    0.975    21 H    0.975    20 H    0.972
                             4 N    0.958
     8   1 H    0.995 --     1 C    0.971
     9   1 H    0.992 --     1 C    0.971
    10   1 H    0.996 --     2 C    0.961
    11   1 H    0.992 --     3 C    0.960
    12   1 H    0.992 --     3 C    0.965
    13   1 H    0.990 --     5 C    0.975
    14   1 H    0.990 --     5 C    0.975
    15   1 H    0.989 --     5 C    0.972
    16   1 H    0.990 --     6 C    0.975
    17   1 H    0.989 --     6 C    0.974
    18   1 H    0.990 --     6 C    0.975
    19   1 H    0.990 --     7 C    0.975
    20   1 H    0.989 --     7 C    0.972
    21   1 H    0.990 --     7 C    0.975
 ---------------------------------------------------------------------------

molecular dipole:
                 x           y           z       tot (Debye)
 q only:       -2.818      -4.032      -0.714
   full:       -2.895      -4.035      -0.687      12.742

           -------------------------------------------------
          | TOTAL ENERGY              -22.469009022592 Eh   |
          | GRADIENT NORM               0.000488154640 Eh/α |
          | HOMO-LUMO GAP               5.396296681755 eV   |
           -------------------------------------------------

 * finished run on 2024/12/20 at 07:20:43.598
