   * xtb version 6.7.1 (edcfbbe) compiled by 'conda@3ef47c1a292c' on 2024-11-25

   ID    Z sym.   atoms
    1    6 C      1, 3, 5, 7, 10-22
    2    7 N      2, 6, 8, 9
    3    8 O      4
    4    1 H      23-41

          program call               : xtb C1352.xyz --opt --namespace C1352 --charge +1
          :  Hamiltonian                  GFN2-xTB          :
 * total energy  :   -61.5125070 Eh     change       -0.3009504E-09 Eh
 * total energy  :   -61.5190820 Eh     change       -0.6574961E-02 Eh
 * total energy  :   -61.5201615 Eh     change       -0.1079514E-02 Eh
 * total energy  :   -61.5204339 Eh     change       -0.2724159E-03 Eh
 * total energy  :   -61.5206556 Eh     change       -0.2216381E-03 Eh
 * total energy  :   -61.5207797 Eh     change       -0.1241345E-03 Eh
 * total energy  :   -61.5209329 Eh     change       -0.1532234E-03 Eh
 * total energy  :   -61.5210953 Eh     change       -0.1623218E-03 Eh
 * total energy  :   -61.5212476 Eh     change       -0.1523342E-03 Eh
 * total energy  :   -61.5213961 Eh     change       -0.1484769E-03 Eh
 * total energy  :   -61.5221776 Eh     change       -0.1994036E-04 Eh
 * total energy  :   -61.5221861 Eh     change       -0.8484364E-05 Eh
 * total energy  :   -61.5221947 Eh     change       -0.8585958E-05 Eh
 * total energy  :   -61.5222045 Eh     change       -0.9789854E-05 Eh
 * total energy  :   -61.5222114 Eh     change       -0.6891500E-05 Eh
 * total energy  :   -61.5222167 Eh     change       -0.5317701E-05 Eh
 * total energy  :   -61.5222219 Eh     change       -0.5242529E-05 Eh
 * total energy  :   -61.5222272 Eh     change       -0.5298878E-05 Eh
 * total energy  :   -61.5222319 Eh     change       -0.4688975E-05 Eh
   *** GEOMETRY OPTIMIZATION CONVERGED AFTER 33 ITERATIONS ***

 final structure:
================
41
 xtb: 6.7.1 (edcfbbe)
C           -0.79222678296924        0.73232906977772       -0.74783942148390
N           -0.00641480062658       -0.48021064508330       -0.69228039976977
C            0.34969799411987       -1.19312225438718        0.37284733299008
O            1.02611169211279       -2.20831698923970        0.27161247821675
C           -0.11131271680509       -0.72070960340107        1.76086942606180
N            1.00588042551723       -0.33441319812702        2.59776757550815
C            1.97538496124438       -1.16147616874426        3.05558500819634
N            2.05754516816820       -2.44494303377176        2.71936968013604
N            2.77591002912296       -0.49967335913273        3.90816278555246
C            2.29969166947662        0.79917868048686        4.03339263341418
C            1.18207944589293        0.90995628285719        3.19354465717980
C            0.48211280464937        2.09940592039978        3.08931847442376
C            0.93267660960390        3.16626575292273        3.84759753844183
C            2.03906067453055        3.05230573637009        4.68392355549679
C            2.74271227839474        1.86606412799637        4.79470830940483
C            3.89809340622457       -1.02752600708557        4.65773995894420
C            3.51751050135173       -1.29021443299182        6.09723661296377
C            2.42977589093650       -2.10327543233640        6.39219413251840
C            2.07283297723964       -2.33964404135742        7.70748475048357
C            2.80132924772864       -1.76856242653856        8.73770043531382
C            3.88768374812305       -0.96069610802279        8.44896842335624
C            4.24235190276505       -0.71842641727932        7.13292819100480
H           -1.80891918230976        0.56555631563958       -0.38612497972934
H           -0.85147422926458        1.05756209596261       -1.78259029487778
H           -0.32368914487362        1.52991767406126       -0.16824053611105
H            0.29965010633404       -0.86961602750791       -1.57517132848900
H           -0.79072189622554        0.12549606680364        1.69922338251288
H           -0.63491167499304       -1.56368903319663        2.22861587255951
H            1.63246334166471       -2.70968066514162        1.81733029246223
H            2.84363062779590       -2.98800287910519        3.03705220081228
H           -0.38298681588866        2.20504496320113        2.45477146792650
H            0.40989697608206        4.10746208286209        3.79111305652292
H            2.35274183976809        3.90720103214508        5.26072167072748
H            3.59100922374028        1.77818097384624        5.45204849755639
H            4.24324607856846       -1.94794580055586        4.17804589505894
H            4.70977388246456       -0.29708310363776        4.60873524565693
H            1.85888308298834       -2.55665231664661        5.59339826569402
H            1.22822532011535       -2.97412286328474        7.92769031057180
H            2.52420058165294       -1.95623322919381        9.76307098625085
H            4.46068393139777       -0.51655271963072        9.24795594818094
H            5.09474082417160       -0.09186801993005        6.91307190836511

          :  Hamiltonian                  GFN2-xTB          :
         :: total energy             -61.522231926719 Eh    ::
         :: gradient norm              0.000508118125 Eh/a0 ::
         :: HOMO-LUMO gap              3.542006916652 eV    ::
         :: SCC energy               -62.501833350568 Eh    ::
         :: -> dispersion             -0.043951687750 Eh    ::
         :: repulsion energy           0.979601423848 Eh    ::

    * Orbital Energies and Occupations

         #    Occupation            Energy/Eh            Energy/eV
      -------------------------------------------------------------
         1        2.0000           -0.8640476             -23.5119
       ...           ...                  ...                  ...
        44        2.0000           -0.5789994             -15.7554
        45        2.0000           -0.5766669             -15.6919
        46        2.0000           -0.5700940             -15.5130
        47        2.0000           -0.5648314             -15.3698
        48        2.0000           -0.5580484             -15.1853
        49        2.0000           -0.5413705             -14.7314
        50        2.0000           -0.5388331             -14.6624
        51        2.0000           -0.5308503             -14.4452
        52        2.0000           -0.5231933             -14.2368
        53        2.0000           -0.5217976             -14.1988
        54        2.0000           -0.5147691             -14.0076
        55        2.0000           -0.5067225             -13.7886
        56        2.0000           -0.5051169             -13.7449 (HOMO)
        57                         -0.3749506             -10.2029 (LUMO)
        58                         -0.3544316              -9.6446
        59                         -0.3449126              -9.3855
        60                         -0.3335452              -9.0762
        61                         -0.3273670              -8.9081
        62                         -0.3247576              -8.8371
        63                         -0.2195381              -5.9739
        64                         -0.2021462              -5.5007
        65                         -0.1696418              -4.6162
        66                         -0.1327733              -3.6129
        67                         -0.1190363              -3.2391
       ...                                ...                  ...
       107                          0.5634131              15.3313
      -------------------------------------------------------------
                  HL-Gap            0.1301664 Eh            3.5420 eV

     #   Z          covCN         q      C6AA      α(0)
     1   6 C        3.685    -0.062    21.893     6.699
     2   7 N        2.684    -0.139    24.013     7.278
     3   6 C        2.745     0.265    22.532     7.772
     4   8 O        0.860    -0.439    22.476     6.356
     5   6 C        3.739    -0.041    21.390     6.599
     6   7 N        2.821    -0.035    21.925     6.954
     7   6 C        2.980     0.201    23.738     7.992
     8   7 N        2.636    -0.262    26.789     7.687
     9   7 N        2.819    -0.029    21.798     6.934
    10   6 C        3.088     0.040    27.006     8.518
    11   6 C        3.074     0.036    27.120     8.538
    12   6 C        2.911    -0.041    29.019     8.833
    13   6 C        2.926    -0.025    28.617     8.773
    14   6 C        2.926    -0.024    28.609     8.772
    15   6 C        2.911    -0.036    28.886     8.813
    16   6 C        3.745    -0.012    20.853     6.514
    17   6 C        2.971    -0.002    28.067     8.690
    18   6 C        2.923    -0.038    28.952     8.824
    19   6 C        2.919    -0.024    28.601     8.770
    20   6 C        2.920    -0.022    28.554     8.763
    21   6 C        2.920    -0.022    28.556     8.763
    22   6 C        2.923    -0.034    28.853     8.809
    23   1 H        0.924     0.074     2.046     2.237
    24   1 H        0.925     0.089     1.888     2.149
    25   1 H        0.924     0.070     2.080     2.256
    26   1 H        0.860     0.214     1.037     1.596
    27   1 H        0.925     0.093     1.852     2.128
    28   1 H        0.924     0.093     1.854     2.129
    29   1 H        0.859     0.269     0.813     1.413
    30   1 H        0.860     0.210     1.055     1.609
    31   1 H        0.926     0.053     2.284     2.363
    32   1 H        0.926     0.071     2.078     2.254
    33   1 H        0.926     0.072     2.062     2.245
    34   1 H        0.926     0.067     2.119     2.276
    35   1 H        0.924     0.065     2.140     2.288
    36   1 H        0.924     0.079     1.989     2.205
    37   1 H        0.925     0.026     2.645     2.543
    38   1 H        0.926     0.050     2.324     2.384
    39   1 H        0.926     0.055     2.255     2.348
    40   1 H        0.926     0.055     2.262     2.352
    41   1 H        0.926     0.040     2.447     2.446

Wiberg/Mayer (AO) data.
largest (>0.10) Wiberg bond orders for each atom

     #   Z sym  total        # sym  WBO       # sym  WBO       # sym  WBO
 ---------------------------------------------------------------------------
     1   6 C    3.954 --     2 N    1.000    24 H    0.980    25 H    0.973
                            23 H    0.971
     2   7 N    3.507 --     3 C    1.338     1 C    1.000    26 H    0.923
                             4 O    0.209
     3   6 C    3.958 --     4 O    1.617     2 N    1.338     5 C    0.941
     4   8 O    2.033 --     3 C    1.617     2 N    0.209
     5   6 C    3.955 --     6 N    0.979    27 H    0.961    28 H    0.951
                             3 C    0.941
     6   7 N    3.577 --     7 C    1.232    11 C    1.086     5 C    0.979
     7   6 C    3.971 --     8 N    1.312     9 N    1.265     6 N    1.232
     8   7 N    3.358 --     7 C    1.312    30 H    0.927    29 H    0.837
     9   7 N    3.601 --     7 C    1.265    10 C    1.089    16 C    0.965
    10   6 C    3.952 --    15 C    1.371    11 C    1.285     9 N    1.089
    11   6 C    3.949 --    12 C    1.371    10 C    1.285     6 N    1.086
    12   6 C    3.986 --    13 C    1.459    11 C    1.371    31 H    0.963
                            15 C    0.113
    13   6 C    3.981 --    12 C    1.459    14 C    1.412    32 H    0.968
    14   6 C    3.982 --    15 C    1.461    13 C    1.412    33 H    0.967
    15   6 C    3.986 --    14 C    1.461    10 C    1.371    34 H    0.963
                            12 C    0.113
    16   6 C    3.946 --    17 C    0.985     9 N    0.965    36 H    0.962
                            35 H    0.955
    17   6 C    3.981 --    22 C    1.418    18 C    1.412    16 C    0.985
                            20 C    0.110
    18   6 C    3.992 --    19 C    1.447    17 C    1.412    37 H    0.969
                            21 C    0.112
    19   6 C    3.991 --    18 C    1.447    20 C    1.436    38 H    0.970
                            22 C    0.110
    20   6 C    3.990 --    21 C    1.442    19 C    1.436    39 H    0.969
                            17 C    0.110
    21   6 C    3.990 --    20 C    1.442    22 C    1.439    40 H    0.969
                            18 C    0.112
    22   6 C    3.991 --    21 C    1.439    17 C    1.418    41 H    0.968
                            19 C    0.110
    23   1 H    0.995 --     1 C    0.971
    24   1 H    0.992 --     1 C    0.980
    25   1 H    0.995 --     1 C    0.973
    26   1 H    0.954 --     2 N    0.923
    27   1 H    0.991 --     5 C    0.961
    28   1 H    0.991 --     5 C    0.951
    29   1 H    0.927 --     8 N    0.837
    30   1 H    0.955 --     8 N    0.927
    31   1 H    0.997 --    12 C    0.963
    32   1 H    0.995 --    13 C    0.968
    33   1 H    0.994 --    14 C    0.967
    34   1 H    0.995 --    15 C    0.963
    35   1 H    0.995 --    16 C    0.955
    36   1 H    0.993 --    16 C    0.962
    37   1 H    0.999 --    18 C    0.969
    38   1 H    0.997 --    19 C    0.970
    39   1 H    0.996 --    20 C    0.969
    40   1 H    0.997 --    21 C    0.969
    41   1 H    0.998 --    22 C    0.968
 ---------------------------------------------------------------------------

molecular dipole:
                 x           y           z       tot (Debye)
 q only:        2.645       0.007       5.665
   full:        2.673      -0.079       5.440      15.408

           -------------------------------------------------
          | TOTAL ENERGY              -61.522231926719 Eh   |
          | GRADIENT NORM               0.000508118125 Eh/α |
          | HOMO-LUMO GAP               3.542006916652 eV   |
           -------------------------------------------------

 * finished run on 2024/12/20 at 07:20:43.317
