   * xtb version 6.7.1 (edcfbbe) compiled by 'conda@3ef47c1a292c' on 2024-11-25

   ID    Z sym.   atoms
    1    6 C      1, 3, 5, 7, 10-15, 17-23
    2    8 O      2, 4
    3    7 N      6, 8, 9, 16
    4    1 H      24-42

          program call               : xtb C1361.xyz --opt --namespace C1361 --charge +1
          :  Hamiltonian                  GFN2-xTB          :
 * total energy  :   -65.5073814 Eh     change       -0.4054499E-09 Eh
 * total energy  :   -65.5196501 Eh     change       -0.1226874E-01 Eh
 * total energy  :   -65.5230735 Eh     change       -0.3423389E-02 Eh
 * total energy  :   -65.5239853 Eh     change       -0.9118096E-03 Eh
 * total energy  :   -65.5247349 Eh     change       -0.7495175E-03 Eh
 * total energy  :   -65.5251217 Eh     change       -0.3868269E-03 Eh
 * total energy  :   -65.5254974 Eh     change       -0.3757266E-03 Eh
 * total energy  :   -65.5258379 Eh     change       -0.3405364E-03 Eh
 * total energy  :   -65.5261459 Eh     change       -0.3079370E-03 Eh
 * total energy  :   -65.5264549 Eh     change       -0.3089914E-03 Eh
 * total energy  :   -65.5520079 Eh     change       -0.1465063E-04 Eh
 * total energy  :   -65.5520246 Eh     change       -0.1669427E-04 Eh
 * total energy  :   -65.5520309 Eh     change       -0.6253105E-05 Eh
 * total energy  :   -65.5520393 Eh     change       -0.8426447E-05 Eh
 * total energy  :   -65.5520438 Eh     change       -0.4483281E-05 Eh
 * total energy  :   -65.5520573 Eh     change       -0.1347974E-04 Eh
 * total energy  :   -65.5520518 Eh     change        0.5460521E-05 Eh
 * total energy  :   -65.5520600 Eh     change       -0.8253318E-05 Eh
 * total energy  :   -65.5520646 Eh     change       -0.4525712E-05 Eh
   *** GEOMETRY OPTIMIZATION CONVERGED AFTER 128 ITERATIONS ***

 final structure:
================
42
 xtb: 6.7.1 (edcfbbe)
C            0.69457210593467       -1.13735341224279       -2.78124688088222
O            0.20017553592140       -2.00266929867987       -1.75353768387320
C            0.65375332778293       -3.22663816912367       -1.68757347646589
O            1.49540034152234       -3.71887521103972       -2.40153122483652
C           -0.03900883528781       -4.01624835651256       -0.56632199204170
N            0.89485024483097       -4.60307178989426        0.36693871603569
C            1.77922170224187       -5.58734774594406        0.09258517628702
N            1.99758659171416       -6.08726184372048       -1.12001492548343
N            2.40387449962925       -5.96247313934149        1.23016048324211
C            1.89555889087295       -5.20858622750304        2.28253777310048
C            0.94201749168278       -4.34082101249850        1.73512522682117
C            0.25736581949299       -3.44303118914406        2.53643471278585
C            0.55660621093113       -3.45049049948393        3.88828649368244
C            1.50511888354817       -4.31667432225896        4.42667117686791
C            2.19522420723968       -5.21501937883826        3.63259740779914
N            3.40323521708621       -6.90338832321080        1.39567778779161
C            2.90491030673835       -8.26655427538445        1.61866096790059
C            2.13823223005804       -8.79408131108234        0.43478281502859
C            2.82264311524306       -9.21228488564993       -0.70391157879516
C            2.12664466385296       -9.62308753698144       -1.82814414164725
C            0.74114057273359       -9.61186364672043       -1.82697965909222
C            0.05454869657674       -9.19520924466241       -0.69908905342256
C            0.74950504547112       -8.78265856993820        0.42536473246486
H            0.78578373883672       -0.14679249941865       -2.34191195096350
H           -0.02520054660451       -1.11615579780534       -3.59966387613428
H            1.65891092354116       -1.49205561370598       -3.14525119577197
H           -0.70495233514818       -3.34961028893110       -0.01978748658452
H           -0.63095068330943       -4.80962644287708       -1.03978816837507
H            1.78220171508569       -5.50490373568935       -1.92644928655800
H            2.59598384551714       -6.89187926749426       -1.23879481144167
H           -0.47530541252974       -2.76012795831059        2.13891829532538
H            0.04175857035967       -2.76399175882994        4.54107604863077
H            1.70734292694967       -4.28314033735251        5.48506151149029
H            2.93925080043504       -5.88292783129047        4.03262639824954
H            4.05669227601754       -6.87219006346976        0.61631390816223
H            3.78437523155826       -8.87747255737025        1.82579621450209
H            2.27680738439835       -8.24144471451232        2.51133692663387
H            3.90403065287407       -9.24126094654078       -0.69807774177358
H            2.66541841697850       -9.96051666654368       -2.70009766686562
H            0.19900881411836       -9.93983787904358       -2.69980890767797
H           -1.02440842249046       -9.19910588321275       -0.69075579857433
H            0.21156523755595       -8.46814036773350        1.30865473438201

          :  Hamiltonian                  GFN2-xTB          :
         :: total energy             -65.552064571209 Eh    ::
         :: gradient norm              0.000689241880 Eh/a0 ::
         :: HOMO-LUMO gap              3.472651282034 eV    ::
         :: SCC energy               -66.525735355910 Eh    ::
         :: -> dispersion             -0.046125778692 Eh    ::
         :: repulsion energy           0.973670784701 Eh    ::

    * Orbital Energies and Occupations

         #    Occupation            Energy/Eh            Energy/eV
      -------------------------------------------------------------
         1        2.0000           -0.8855731             -24.0977
       ...           ...                  ...                  ...
        47        2.0000           -0.5782409             -15.7347
        48        2.0000           -0.5769846             -15.7006
        49        2.0000           -0.5728207             -15.5872
        50        2.0000           -0.5655115             -15.3884
        51        2.0000           -0.5604830             -15.2515
        52        2.0000           -0.5573400             -15.1660
        53        2.0000           -0.5450037             -14.8303
        54        2.0000           -0.5308953             -14.4464
        55        2.0000           -0.5296746             -14.4132
        56        2.0000           -0.5215261             -14.1914
        57        2.0000           -0.5173872             -14.0788
        58        2.0000           -0.5157884             -14.0353
        59        2.0000           -0.5072280             -13.8024 (HOMO)
        60                         -0.3796104             -10.3297 (LUMO)
        61                         -0.3743117             -10.1855
        62                         -0.3472224              -9.4484
        63                         -0.3403451              -9.2613
        64                         -0.3347186              -9.1082
        65                         -0.3327826              -9.0555
        66                         -0.2209053              -6.0111
        67                         -0.2110690              -5.7435
        68                         -0.1998323              -5.4377
        69                         -0.1558480              -4.2408
        70                         -0.1322282              -3.5981
       ...                                ...                  ...
       111                          0.5588673              15.2076
      -------------------------------------------------------------
                  HL-Gap            0.1276176 Eh            3.4727 eV

     #   Z          covCN         q      C6AA      α(0)
     1   6 C        3.650     0.012    20.702     6.536
     2   8 O        1.704    -0.215    17.576     5.660
     3   6 C        2.714     0.357    20.939     7.490
     4   8 O        0.856    -0.408    21.844     6.266
     5   6 C        3.739    -0.046    21.474     6.612
     6   7 N        2.819    -0.030    21.818     6.937
     7   6 C        2.964     0.185    24.052     8.044
     8   7 N        2.636    -0.256    26.657     7.668
     9   7 N        2.897     0.044    20.468     6.719
    10   6 C        3.076     0.035    27.137     8.541
    11   6 C        3.073     0.036    27.128     8.540
    12   6 C        2.911    -0.038    28.940     8.821
    13   6 C        2.926    -0.022    28.566     8.765
    14   6 C        2.927    -0.022    28.565     8.765
    15   6 C        2.910    -0.032    28.790     8.798
    16   7 N        2.753    -0.173    24.747     7.388
    17   6 C        3.745    -0.015    20.919     6.524
    18   6 C        2.969    -0.010    28.259     8.720
    19   6 C        2.923    -0.047    29.162     8.856
    20   6 C        2.918    -0.029    28.730     8.790
    21   6 C        2.920    -0.027    28.667     8.780
    22   6 C        2.919    -0.028    28.690     8.784
    23   6 C        2.922    -0.041    29.018     8.834
    24   1 H        0.925     0.096     1.826     2.113
    25   1 H        0.925     0.090     1.883     2.146
    26   1 H        0.925     0.089     1.891     2.150
    27   1 H        0.925     0.111     1.686     2.030
    28   1 H        0.924     0.099     1.796     2.096
    29   1 H        0.860     0.255     0.866     1.458
    30   1 H        0.860     0.216     1.028     1.588
    31   1 H        0.926     0.062     2.173     2.305
    32   1 H        0.926     0.075     2.033     2.230
    33   1 H        0.926     0.076     2.019     2.222
    34   1 H        0.926     0.079     1.994     2.208
    35   1 H        0.860     0.166     1.296     1.783
    36   1 H        0.924     0.078     2.000     2.212
    37   1 H        0.924     0.065     2.145     2.290
    38   1 H        0.925     0.036     2.504     2.475
    39   1 H        0.926     0.050     2.323     2.383
    40   1 H        0.926     0.052     2.299     2.371
    41   1 H        0.926     0.046     2.365     2.405
    42   1 H        0.926     0.032     2.555     2.499

Wiberg/Mayer (AO) data.
largest (>0.10) Wiberg bond orders for each atom

     #   Z sym  total        # sym  WBO       # sym  WBO       # sym  WBO
 ---------------------------------------------------------------------------
     1   6 C    3.890 --    26 H    0.976    24 H    0.974    25 H    0.970
                             2 O    0.929
     2   8 O    2.385 --     3 C    1.224     1 C    0.929     4 O    0.193
     3   6 C    3.929 --     4 O    1.704     2 O    1.224     5 C    0.935
     4   8 O    2.062 --     3 C    1.704     2 O    0.193
     5   6 C    3.957 --     6 N    0.985    27 H    0.960    28 H    0.945
                             3 C    0.935
     6   7 N    3.580 --     7 C    1.238    11 C    1.077     5 C    0.985
     7   6 C    3.971 --     8 N    1.304     9 N    1.243     6 N    1.238
     8   7 N    3.369 --     7 C    1.304    30 H    0.914    29 H    0.874
     9   7 N    3.611 --     7 C    1.243    10 C    1.075    16 N    1.017
    10   6 C    3.949 --    15 C    1.369    11 C    1.288     9 N    1.075
    11   6 C    3.945 --    12 C    1.369    10 C    1.288     6 N    1.077
    12   6 C    3.985 --    13 C    1.461    11 C    1.369    31 H    0.962
                            15 C    0.114
    13   6 C    3.981 --    12 C    1.461    14 C    1.409    32 H    0.967
    14   6 C    3.982 --    15 C    1.463    13 C    1.409    33 H    0.967
    15   6 C    3.984 --    14 C    1.463    10 C    1.369    34 H    0.963
                            12 C    0.114
    16   7 N    3.068 --     9 N    1.017    17 C    0.967    35 H    0.941
    17   6 C    3.963 --    18 C    1.002    37 H    0.970    16 N    0.967
                            36 H    0.960
    18   6 C    3.988 --    23 C    1.416    19 C    1.401    17 C    1.002
                            21 C    0.110
    19   6 C    3.992 --    20 C    1.444    18 C    1.401    38 H    0.968
                            22 C    0.111
    20   6 C    3.991 --    19 C    1.444    21 C    1.435    39 H    0.970
                            23 C    0.110
    21   6 C    3.991 --    22 C    1.442    20 C    1.435    40 H    0.970
                            18 C    0.110
    22   6 C    3.991 --    21 C    1.442    23 C    1.440    41 H    0.970
                            19 C    0.111
    23   6 C    3.992 --    22 C    1.440    18 C    1.416    42 H    0.969
                            20 C    0.110
    24   1 H    0.991 --     1 C    0.974
    25   1 H    0.992 --     1 C    0.970
    26   1 H    0.992 --     1 C    0.976
    27   1 H    0.987 --     5 C    0.960
    28   1 H    0.990 --     5 C    0.945
    29   1 H    0.934 --     8 N    0.874
    30   1 H    0.953 --     8 N    0.914
    31   1 H    0.995 --    12 C    0.962
    32   1 H    0.994 --    13 C    0.967
    33   1 H    0.994 --    14 C    0.967
    34   1 H    0.993 --    15 C    0.963
    35   1 H    0.972 --    16 N    0.941
    36   1 H    0.993 --    17 C    0.960
    37   1 H    0.995 --    17 C    0.970
    38   1 H    0.999 --    19 C    0.968
    39   1 H    0.997 --    20 C    0.970
    40   1 H    0.997 --    21 C    0.970
    41   1 H    0.998 --    22 C    0.970
    42   1 H    0.999 --    23 C    0.969
 ---------------------------------------------------------------------------

molecular dipole:
                 x           y           z       tot (Debye)
 q only:        2.543      -9.573       0.649
   full:        2.487      -9.733       0.191      25.538

           -------------------------------------------------
          | TOTAL ENERGY              -65.552064571209 Eh   |
          | GRADIENT NORM               0.000689241880 Eh/α |
          | HOMO-LUMO GAP               3.472651282034 eV   |
           -------------------------------------------------

 * finished run on 2024/12/20 at 07:21:14.976
