   * xtb version 6.7.1 (edcfbbe) compiled by 'conda@3ef47c1a292c' on 2024-11-25

   ID    Z sym.   atoms
    1    8 O      1
    2    6 C      2-5
    3    7 N      6
    4    1 H      7-14

          program call               : xtb C1365.xyz --opt --namespace C1365 --charge +1
          :  Hamiltonian                  GFN2-xTB          :
 * total energy  :   -19.1750076 Eh     change       -0.4297007E-10 Eh
 * total energy  :   -19.1859227 Eh     change       -0.1091512E-01 Eh
 * total energy  :   -19.1898074 Eh     change       -0.3884731E-02 Eh
 * total energy  :   -19.1905870 Eh     change       -0.7795796E-03 Eh
 * total energy  :   -19.1909522 Eh     change       -0.3651895E-03 Eh
 * total energy  :   -19.1910641 Eh     change       -0.1119184E-03 Eh
 * total energy  :   -19.1911020 Eh     change       -0.3789209E-04 Eh
 * total energy  :   -19.1911194 Eh     change       -0.1739062E-04 Eh
 * total energy  :   -19.1911326 Eh     change       -0.1321157E-04 Eh
 * total energy  :   -19.1911417 Eh     change       -0.9130075E-05 Eh
 * total energy  :   -19.1911512 Eh     change       -0.9407227E-05 Eh
 * total energy  :   -19.1911540 Eh     change       -0.2867073E-05 Eh
   *** GEOMETRY OPTIMIZATION CONVERGED AFTER 12 ITERATIONS ***

 final structure:
================
14
 xtb: 6.7.1 (edcfbbe)
O            1.42933872254576       -0.01007072752537       -0.85008639678994
C            2.40276120166774        0.12281071485212       -0.21941121529565
C            3.08725153173190        1.24415554356011        0.45198638789584
C            4.45500837182058        0.73299243934567        0.90460861660210
C            4.21032875940912       -0.74982801814829        1.17259070821566
N            3.29782712234065       -1.14912464266989        0.07805117966908
H            3.13635398465651        2.10867660605310       -0.21229154590350
H            2.46741661212909        1.54764006598714        1.30293753341464
H            5.19369734872715        0.86527246408479        0.11373563509245
H            4.81673513693206        1.24723572064360        1.79077554825179
H            5.12571904562657       -1.33981269415263        1.16907507088862
H            3.69839876925852       -0.89147820046308        2.12598518971210
H            3.81739809494394       -1.36099606087848       -0.78322183129542
H            2.71067529821043       -1.96569321068879        0.28448511954222

          :  Hamiltonian                  GFN2-xTB          :
         :: total energy             -19.191154018531 Eh    ::
         :: gradient norm              0.000503688914 Eh/a0 ::
         :: HOMO-LUMO gap              4.594390943497 eV    ::
         :: SCC energy               -19.434786240928 Eh    ::
         :: -> dispersion             -0.006934761771 Eh    ::
         :: repulsion energy           0.243632222397 Eh    ::

    * Orbital Energies and Occupations

         #    Occupation            Energy/Eh            Energy/eV
      -------------------------------------------------------------
         1        2.0000           -0.9474184             -25.7806
       ...           ...                  ...                  ...
         5        2.0000           -0.8158512             -22.2004
         6        2.0000           -0.8119208             -22.0935
         7        2.0000           -0.7956488             -21.6507
         8        2.0000           -0.7705016             -20.9664
         9        2.0000           -0.7563762             -20.5820
        10        2.0000           -0.7364523             -20.0399
        11        2.0000           -0.7238253             -19.6963
        12        2.0000           -0.7083828             -19.2761
        13        2.0000           -0.6777589             -18.4428
        14        2.0000           -0.6724595             -18.2986
        15        2.0000           -0.6612589             -17.9938
        16        2.0000           -0.6360630             -17.3082
        17        2.0000           -0.6291453             -17.1199 (HOMO)
        18                         -0.4603046             -12.5255 (LUMO)
        19                         -0.2949058              -8.0248
        20                         -0.2275830              -6.1928
        21                         -0.1420423              -3.8652
        22                         -0.1174458              -3.1959
        23                         -0.0967164              -2.6318
        24                         -0.0824254              -2.2429
        25                         -0.0439222              -1.1952
        26                         -0.0350884              -0.9548
        27                          0.0014856               0.0404
        28                          0.0166633               0.4534
       ...                                ...                  ...
        32                          0.5611289              15.2691
      -------------------------------------------------------------
                  HL-Gap            0.1688408 Eh            4.5944 eV

     #   Z          covCN         q      C6AA      α(0)
     1   8 O        0.856    -0.210    18.223     5.723
     2   6 C        2.745     0.297    21.968     7.674
     3   6 C        3.822    -0.106    22.496     6.750
     4   6 C        3.823    -0.081    22.034     6.680
     5   6 C        3.756    -0.029    21.142     6.556
     6   7 N        3.528    -0.095    23.099     7.138
     7   1 H        0.924     0.142     1.446     1.880
     8   1 H        0.924     0.145     1.429     1.869
     9   1 H        0.924     0.090     1.875     2.141
    10   1 H        0.925     0.110     1.700     2.039
    11   1 H        0.925     0.112     1.678     2.025
    12   1 H        0.924     0.109     1.703     2.041
    13   1 H        0.859     0.259     0.851     1.445
    14   1 H        0.859     0.257     0.856     1.449

Wiberg/Mayer (AO) data.
largest (>0.10) Wiberg bond orders for each atom

     #   Z sym  total        # sym  WBO       # sym  WBO       # sym  WBO
 ---------------------------------------------------------------------------
     1   8 O    2.288 --     2 C    2.015     6 N    0.116
     2   6 C    3.905 --     1 O    2.015     3 C    1.040     6 N    0.769
     3   6 C    3.979 --     2 C    1.040     4 C    1.002     7 H    0.924
                             8 H    0.904
     4   6 C    3.978 --     5 C    1.005     3 C    1.002     9 H    0.971
                            10 H    0.966
     5   6 C    3.910 --     4 C    1.005    12 H    0.967    11 H    0.965
                             6 N    0.948
     6   7 N    3.692 --     5 C    0.948    14 H    0.909    13 H    0.903
                             2 C    0.769     1 O    0.116
     7   1 H    0.980 --     3 C    0.924
     8   1 H    0.979 --     3 C    0.904
     9   1 H    0.992 --     4 C    0.971
    10   1 H    0.988 --     4 C    0.966
    11   1 H    0.987 --     5 C    0.965
    12   1 H    0.988 --     5 C    0.967
    13   1 H    0.933 --     6 N    0.903
    14   1 H    0.934 --     6 N    0.909
 ---------------------------------------------------------------------------

molecular dipole:
                 x           y           z       tot (Debye)
 q only:        7.092      -0.734       1.038
   full:        7.123      -1.023       0.963      18.455

           -------------------------------------------------
          | TOTAL ENERGY              -19.191154018531 Eh   |
          | GRADIENT NORM               0.000503688914 Eh/α |
          | HOMO-LUMO GAP               4.594390943497 eV   |
           -------------------------------------------------

 * finished run on 2024/12/20 at 07:21:19.579
