   * xtb version 6.7.1 (edcfbbe) compiled by 'conda@3ef47c1a292c' on 2024-11-25

   ID    Z sym.   atoms
    1    7 N      1
    2    6 C      2-5
    3    1 H      6-15

          program call               : xtb C1368.xyz --opt --namespace C1368 --charge +1
          :  Hamiltonian                  GFN2-xTB          :
 * total energy  :   -16.1633087 Eh     change       -0.7464251E-10 Eh
 * total energy  :   -16.1644065 Eh     change       -0.1097800E-02 Eh
 * total energy  :   -16.1644732 Eh     change       -0.6664488E-04 Eh
 * total energy  :   -16.1644848 Eh     change       -0.1160716E-04 Eh
 * total energy  :   -16.1644860 Eh     change       -0.1224364E-05 Eh
   *** GEOMETRY OPTIMIZATION CONVERGED AFTER 5 ITERATIONS ***

 final structure:
================
15
 xtb: 6.7.1 (edcfbbe)
N            1.20958499902423       -0.05269098069994       -0.02096680732440
C            0.26751521528021       -1.21605924834372       -0.16270943812240
C           -1.08614325928683       -0.66747987936753        0.27038404591234
C           -1.03021575703681        0.77135559747383       -0.23292111049269
C            0.38453615362243        1.19403924411524        0.14335482240978
H            1.82154095239855       -0.18025572097776        0.78918709086170
H            1.81178411876793        0.01744620974991       -0.84530526963794
H            0.60366328836114       -2.05830105654373        0.43891887106109
H            0.23605413391531       -1.51899045041254       -1.20936262886966
H           -1.90625195788585       -1.23102190459609       -0.16494374206711
H           -1.18975565630002       -0.69122988103423        1.35461016121322
H           -1.17536034850370        0.80598103427677       -1.31205773050353
H           -1.77702223656923        1.40691032956992        0.23400983011697
H            0.77348479083261        1.99692265211120       -0.47986887104950
H            0.42183556338005        1.50680405467868        1.18687077649213

          :  Hamiltonian                  GFN2-xTB          :
         :: total energy             -16.164485986650 Eh    ::
         :: gradient norm              0.000373613106 Eh/a0 ::
         :: HOMO-LUMO gap              9.385384524177 eV    ::
         :: SCC energy               -16.391552881268 Eh    ::
         :: -> dispersion             -0.006812959410 Eh    ::
         :: repulsion energy           0.227066894618 Eh    ::

    * Orbital Energies and Occupations

         #    Occupation            Energy/Eh            Energy/eV
      -------------------------------------------------------------
         1        2.0000           -0.8891961             -24.1963
       ...           ...                  ...                  ...
         3        2.0000           -0.8385959             -22.8194
         4        2.0000           -0.7964206             -21.6717
         5        2.0000           -0.7764502             -21.1283
         6        2.0000           -0.7662772             -20.8515
         7        2.0000           -0.7558775             -20.5685
         8        2.0000           -0.7111146             -19.3504
         9        2.0000           -0.6913998             -18.8139
        10        2.0000           -0.6830821             -18.5876
        11        2.0000           -0.6718056             -18.2808
        12        2.0000           -0.6397829             -17.4094
        13        2.0000           -0.6330843             -17.2271
        14        2.0000           -0.6283631             -17.0986
        15        2.0000           -0.6052004             -16.4683 (HOMO)
        16                         -0.2602938              -7.0830 (LUMO)
        17                         -0.1978040              -5.3825
        18                         -0.1554336              -4.2296
        19                         -0.1288373              -3.5058
        20                         -0.0828845              -2.2554
        21                         -0.0531997              -1.4476
        22                         -0.0510592              -1.3894
        23                         -0.0136742              -0.3721
        24                         -0.0054599              -0.1486
        25                         -0.0012392              -0.0337
        26                          0.0097106               0.2642
       ...                                ...                  ...
        30                          0.1425213               3.8782
      -------------------------------------------------------------
                  HL-Gap            0.3449065 Eh            9.3854 eV

     #   Z          covCN         q      C6AA      α(0)
     1   7 N        3.539    -0.041    22.022     6.970
     2   6 C        3.762    -0.029    21.145     6.555
     3   6 C        3.829    -0.077    21.952     6.666
     4   6 C        3.829    -0.077    21.952     6.667
     5   6 C        3.761    -0.029    21.146     6.555
     6   1 H        0.859     0.246     0.898     1.484
     7   1 H        0.859     0.246     0.898     1.485
     8   1 H        0.925     0.101     1.778     2.085
     9   1 H        0.925     0.102     1.768     2.079
    10   1 H        0.925     0.097     1.809     2.103
    11   1 H        0.925     0.081     1.972     2.196
    12   1 H        0.925     0.081     1.971     2.195
    13   1 H        0.925     0.097     1.809     2.104
    14   1 H        0.925     0.101     1.777     2.085
    15   1 H        0.925     0.102     1.769     2.080

Wiberg/Mayer (AO) data.
largest (>0.10) Wiberg bond orders for each atom

     #   Z sym  total        # sym  WBO       # sym  WBO       # sym  WBO
 ---------------------------------------------------------------------------
     1   7 N    3.726 --     2 C    0.923     5 C    0.923     7 H    0.922
                             6 H    0.922
     2   6 C    3.908 --     3 C    1.009     9 H    0.972     8 H    0.971
                             1 N    0.923
     3   6 C    3.981 --     2 C    1.009     4 C    1.004    11 H    0.973
                            10 H    0.966
     4   6 C    3.981 --     5 C    1.009     3 C    1.004    12 H    0.973
                            13 H    0.966
     5   6 C    3.908 --     4 C    1.009    15 H    0.972    14 H    0.971
                             1 N    0.923
     6   1 H    0.939 --     1 N    0.922
     7   1 H    0.939 --     1 N    0.922
     8   1 H    0.990 --     2 C    0.971
     9   1 H    0.990 --     2 C    0.972
    10   1 H    0.991 --     3 C    0.966
    11   1 H    0.993 --     3 C    0.973
    12   1 H    0.993 --     4 C    0.973
    13   1 H    0.991 --     4 C    0.966
    14   1 H    0.990 --     5 C    0.971
    15   1 H    0.990 --     5 C    0.972
 ---------------------------------------------------------------------------

molecular dipole:
                 x           y           z       tot (Debye)
 q only:        1.221      -0.050      -0.022
   full:        1.614      -0.068      -0.028       4.106

           -------------------------------------------------
          | TOTAL ENERGY              -16.164485986650 Eh   |
          | GRADIENT NORM               0.000373613106 Eh/α |
          | HOMO-LUMO GAP               9.385384524177 eV   |
           -------------------------------------------------

 * finished run on 2024/12/20 at 07:21:21.594
