   * xtb version 6.7.1 (edcfbbe) compiled by 'conda@3ef47c1a292c' on 2024-11-25

   ID    Z sym.   atoms
    1   35 Br     1, 11
    2    6 C      2-4, 6, 7, 9, 10
    3    7 N      5, 8
    4    1 H      12-22

          program call               : xtb C1366.xyz --opt --namespace C1366 --charge +1
          :  Hamiltonian                  GFN2-xTB          :
 * total energy  :   -34.2279615 Eh     change       -0.4066223E-09 Eh
 * total energy  :   -34.2321482 Eh     change       -0.4186655E-02 Eh
 * total energy  :   -34.2333389 Eh     change       -0.1190757E-02 Eh
 * total energy  :   -34.2336558 Eh     change       -0.3169044E-03 Eh
 * total energy  :   -34.2338336 Eh     change       -0.1777372E-03 Eh
 * total energy  :   -34.2338834 Eh     change       -0.4984951E-04 Eh
 * total energy  :   -34.2339242 Eh     change       -0.4074675E-04 Eh
 * total energy  :   -34.2339455 Eh     change       -0.2128449E-04 Eh
 * total energy  :   -34.2339553 Eh     change       -0.9798694E-05 Eh
 * total energy  :   -34.2339651 Eh     change       -0.9853429E-05 Eh
 * total energy  :   -34.2340186 Eh     change       -0.1226701E-04 Eh
 * total energy  :   -34.2340315 Eh     change       -0.1290961E-04 Eh
 * total energy  :   -34.2340434 Eh     change       -0.1195666E-04 Eh
 * total energy  :   -34.2340541 Eh     change       -0.1068596E-04 Eh
 * total energy  :   -34.2340652 Eh     change       -0.1111853E-04 Eh
 * total energy  :   -34.2340760 Eh     change       -0.1075187E-04 Eh
 * total energy  :   -34.2340872 Eh     change       -0.1117612E-04 Eh
 * total energy  :   -34.2340948 Eh     change       -0.7589949E-05 Eh
 * total energy  :   -34.2340981 Eh     change       -0.3324224E-05 Eh
   *** GEOMETRY OPTIMIZATION CONVERGED AFTER 23 ITERATIONS ***

 final structure:
================
22
 xtb: 6.7.1 (edcfbbe)
Br           1.61967477206101        0.61597652138905        0.41243372991421
C            3.47547620544907       -0.01283264846234        0.23836518767457
C            3.53581721816491       -1.52735322555898        0.18523593865361
C            2.69575224299925       -2.17609037158498       -0.92452633691504
N            3.08786389159726       -1.74806944920794       -2.24379108722922
C            2.61247782407505       -0.65721011062811       -2.90971818090327
C            3.29198688382398       -0.57849293208957       -4.08675541149638
N            4.17202893057341       -1.61850520232563       -4.11972979622232
C            4.03202079717703       -2.31320862070243       -2.99777840570005
C            5.07160603828491       -1.91700135711713       -5.20072801050251
Br           5.43909327479406       -2.03369017037513       -0.05529690990943
H            3.88261112851732        0.44571065108779       -0.66320750254832
H            4.01664991043021        0.36286484034610        1.10622083532752
H            3.22823128880209       -1.95890874816551        1.14025668507244
H            2.80148665241562       -3.26169406754703       -0.86009780385973
H            1.64626764161105       -1.91128072538459       -0.76597389964044
H            1.83364875234299       -0.03360558449964       -2.51700732111885
H            3.20710780833106        0.13199847700872       -4.88380141852688
H            4.59169151179834       -3.19067063420751       -2.73625538517104
H            5.82868733941496       -2.62324562272358       -4.86965605942924
H            4.52419107045717       -2.35023846803679       -6.03886364038858
H            5.55763881687941       -1.00445255121466       -5.54175520708119

          :  Hamiltonian                  GFN2-xTB          :
         :: total energy             -34.234098077253 Eh    ::
         :: gradient norm              0.000895507362 Eh/a0 ::
         :: HOMO-LUMO gap              3.200329645422 eV    ::
         :: SCC energy               -34.623980122703 Eh    ::
         :: -> dispersion             -0.020996407025 Eh    ::
         :: repulsion energy           0.389882045450 Eh    ::

    * Orbital Energies and Occupations

         #    Occupation            Energy/Eh            Energy/eV
      -------------------------------------------------------------
         1        2.0000           -0.9759786             -26.5577
       ...           ...                  ...                  ...
        19        2.0000           -0.6750243             -18.3683
        20        2.0000           -0.6681913             -18.1824
        21        2.0000           -0.6540814             -17.7985
        22        2.0000           -0.6451588             -17.5557
        23        2.0000           -0.6390007             -17.3881
        24        2.0000           -0.6366892             -17.3252
        25        2.0000           -0.6166817             -16.7808
        26        2.0000           -0.6090960             -16.5743
        27        2.0000           -0.5975605             -16.2604
        28        2.0000           -0.5530746             -15.0499
        29        2.0000           -0.5504698             -14.9790
        30        2.0000           -0.5373381             -14.6217
        31        2.0000           -0.5356302             -14.5752 (HOMO)
        32                         -0.4180202             -11.3749 (LUMO)
        33                         -0.3827981             -10.4165
        34                         -0.3803510             -10.3499
        35                         -0.3402230              -9.2579
        36                         -0.1978011              -5.3824
        37                         -0.1439760              -3.9178
        38                         -0.1357063              -3.6928
        39                         -0.1300208              -3.5380
        40                         -0.1115436              -3.0353
        41                         -0.0973879              -2.6501
        42                         -0.0966073              -2.6288
       ...                                ...                  ...
        65                          0.4557058              12.4004
      -------------------------------------------------------------
                  HL-Gap            0.1176100 Eh            3.2003 eV

     #   Z          covCN         q      C6AA      α(0)
     1  35 Br       0.973    -0.155   189.289    22.183
     2   6 C        3.825     0.008    20.417     6.430
     3   6 C        3.844     0.046    19.767     6.324
     4   6 C        3.801    -0.033    21.167     6.550
     5   7 N        2.871     0.071    20.002     6.642
     6   6 C        3.063    -0.009    28.179     8.705
     7   6 C        3.073    -0.008    28.146     8.699
     8   7 N        2.867     0.088    19.715     6.595
     9   6 C        3.092     0.045    26.891     8.499
    10   6 C        3.693    -0.091    22.433     6.777
    11  35 Br       1.058    -0.152   189.253    22.181
    12   1 H        0.925     0.078     1.997     2.210
    13   1 H        0.926     0.095     1.831     2.116
    14   1 H        0.925     0.099     1.794     2.094
    15   1 H        0.924     0.105     1.742     2.064
    16   1 H        0.924     0.121     1.608     1.983
    17   1 H        0.926     0.123     1.591     1.973
    18   1 H        0.926     0.115     1.655     2.012
    19   1 H        0.926     0.128     1.551     1.948
    20   1 H        0.925     0.105     1.736     2.061
    21   1 H        0.924     0.111     1.691     2.034
    22   1 H        0.925     0.111     1.685     2.030

Wiberg/Mayer (AO) data.
largest (>0.10) Wiberg bond orders for each atom

     #   Z sym  total        # sym  WBO       # sym  WBO       # sym  WBO
 ---------------------------------------------------------------------------
     1  35 Br   1.053 --     2 C    0.969
     2   6 C    3.958 --     3 C    1.018    12 H    0.971    13 H    0.970
                             1 Br   0.969
     3   6 C    3.959 --     2 C    1.018     4 C    0.986    14 H    0.959
                            11 Br   0.948
     4   6 C    3.946 --     3 C    0.986     5 N    0.984    15 H    0.961
                            16 H    0.947
     5   7 N    3.712 --     9 C    1.345     6 C    1.221     4 C    0.984
     6   6 C    3.946 --     7 C    1.597     5 N    1.221    17 H    0.955
     7   6 C    3.947 --     6 C    1.597     8 N    1.224    18 H    0.960
     8   7 N    3.729 --     9 C    1.376     7 C    1.224    10 C    0.990
     9   6 C    3.945 --     8 N    1.376     5 N    1.345    19 H    0.949
    10   6 C    3.930 --     8 N    0.990    20 H    0.973    22 H    0.965
                            21 H    0.957
    11  35 Br   1.054 --     3 C    0.948
    12   1 H    0.994 --     2 C    0.971
    13   1 H    0.991 --     2 C    0.970
    14   1 H    0.989 --     3 C    0.959
    15   1 H    0.989 --     4 C    0.961
    16   1 H    0.985 --     4 C    0.947
    17   1 H    0.985 --     6 C    0.955
    18   1 H    0.987 --     7 C    0.960
    19   1 H    0.984 --     9 C    0.949
    20   1 H    0.988 --    10 C    0.973
    21   1 H    0.987 --    10 C    0.957
    22   1 H    0.987 --    10 C    0.965
 ---------------------------------------------------------------------------

molecular dipole:
                 x           y           z       tot (Debye)
 q only:        6.971      -3.233      -5.991
   full:        7.110      -3.062      -5.346      23.914

           -------------------------------------------------
          | TOTAL ENERGY              -34.234098077253 Eh   |
          | GRADIENT NORM               0.000895507362 Eh/α |
          | HOMO-LUMO GAP               3.200329645422 eV   |
           -------------------------------------------------

 * finished run on 2024/12/20 at 07:21:20.189
