   * xtb version 6.7.1 (edcfbbe) compiled by 'conda@3ef47c1a292c' on 2024-11-25

   ID    Z sym.   atoms
    1    8 O      1
    2    6 C      2-7, 9-11
    3    7 N      8
    4    1 H      12-25

          program call               : xtb C1362.xyz --opt --namespace C1362 --charge +1
          :  Hamiltonian                  GFN2-xTB          :
 * total energy  :   -32.9847506 Eh     change       -0.4858123E-09 Eh
 * total energy  :   -32.9876443 Eh     change       -0.2893675E-02 Eh
 * total energy  :   -32.9881995 Eh     change       -0.5552062E-03 Eh
 * total energy  :   -32.9882952 Eh     change       -0.9567813E-04 Eh
 * total energy  :   -32.9883716 Eh     change       -0.7641757E-04 Eh
 * total energy  :   -32.9884212 Eh     change       -0.4957757E-04 Eh
 * total energy  :   -32.9884982 Eh     change       -0.7707403E-04 Eh
 * total energy  :   -32.9885684 Eh     change       -0.7014412E-04 Eh
 * total energy  :   -32.9886158 Eh     change       -0.4743999E-04 Eh
 * total energy  :   -32.9886442 Eh     change       -0.2836675E-04 Eh
 * total energy  :   -32.9886037 Eh     change        0.4051731E-04 Eh
 * total energy  :   -32.9886623 Eh     change       -0.5867560E-04 Eh
 * total energy  :   -32.9886679 Eh     change       -0.5585471E-05 Eh
 * total energy  :   -32.9886733 Eh     change       -0.5385112E-05 Eh
 * total energy  :   -32.9886776 Eh     change       -0.4322517E-05 Eh
   *** GEOMETRY OPTIMIZATION CONVERGED AFTER 15 ITERATIONS ***

 final structure:
================
25
 xtb: 6.7.1 (edcfbbe)
O            0.59948184335060        0.00206758430569        0.18204234848511
C            0.49865172779677        1.30514673929721       -0.31422875517506
C            1.06411553150228        2.37172548943972        0.63191204329048
C            2.60728730084520        2.39183112214564        0.67336861191735
C            3.17617234980222        2.79226675044627       -0.63889083876205
C            3.82347639738282        1.88337400186905       -1.48065343001385
C            4.29855772366330        2.28641359751956       -2.70803760709744
N            4.15661768686840        3.54802249641053       -3.12924939801062
C            3.54810334035295        4.44991516961054       -2.34264772897183
C            3.05386743428589        4.10625811235443       -1.10919519415284
C            4.65961315766241        3.96350127109202       -4.41922935171833
H            1.52016202427718       -0.23602705078110        0.33730421872695
H            0.97645133078287        1.38813220386899       -1.30495873461897
H           -0.57301951041733        1.47633321823303       -0.43884252950128
H            0.69125636431405        3.34846963327393        0.32366781345197
H            0.69568439916019        2.16740035618972        1.63745405064435
H            2.90874587982000        3.11643597957339        1.43257449464423
H            2.98278396717423        1.41156827539565        0.96953854468690
H            3.96159228224227        0.85676361618491       -1.17878075920184
H            4.79862500252252        1.59362895678761       -3.36876999381130
H            3.46583650415760        5.45683809419764       -2.72500411682743
H            2.57363850012255        4.85856481577790       -0.50332609522857
H            3.86548413168343        4.43627388381637       -4.99789497112107
H            5.46844078977461        4.68489222947738       -4.29271076220676
H            5.03763384087303        3.10831345351378       -4.97461185942857

          :  Hamiltonian                  GFN2-xTB          :
         :: total energy             -32.988677632581 Eh    ::
         :: gradient norm              0.000850125731 Eh/a0 ::
         :: HOMO-LUMO gap              1.751126921926 eV    ::
         :: SCC energy               -33.478763928244 Eh    ::
         :: -> dispersion             -0.018494372035 Eh    ::
         :: repulsion energy           0.490086295664 Eh    ::

    * Orbital Energies and Occupations

         #    Occupation            Energy/Eh            Energy/eV
      -------------------------------------------------------------
         1        2.0000           -0.8825181             -24.0145
       ...           ...                  ...                  ...
        18        2.0000           -0.6645936             -18.0845
        19        2.0000           -0.6548211             -17.8186
        20        2.0000           -0.6472924             -17.6137
        21        2.0000           -0.6414261             -17.4541
        22        2.0000           -0.6336660             -17.2429
        23        2.0000           -0.6269741             -17.0608
        24        2.0000           -0.6172149             -16.7953
        25        2.0000           -0.6166244             -16.7792
        26        2.0000           -0.5994690             -16.3124
        27        2.0000           -0.5885244             -16.0146
        28        2.0000           -0.5769143             -15.6986
        29        2.0000           -0.5539020             -15.0724
        30        2.0000           -0.5213030             -14.1854 (HOMO)
        31                         -0.4569503             -12.4342 (LUMO)
        32                         -0.4280880             -11.6489
        33                         -0.3105749              -8.4512
        34                         -0.1721123              -4.6834
        35                         -0.0842454              -2.2924
        36                         -0.0565381              -1.5385
        37                         -0.0539782              -1.4688
        38                         -0.0423058              -1.1512
        39                         -0.0418173              -1.1379
        40                         -0.0230671              -0.6277
        41                         -0.0147192              -0.4005
       ...                                ...                  ...
        58                          0.4349454              11.8355
      -------------------------------------------------------------
                  HL-Gap            0.0643527 Eh            1.7511 eV

     #   Z          covCN         q      C6AA      α(0)
     1   8 O        1.656    -0.424    21.321     6.233
     2   6 C        3.674     0.078    19.505     6.329
     3   6 C        3.801    -0.076    21.950     6.670
     4   6 C        3.807    -0.074    21.902     6.662
     5   6 C        2.972     0.067    26.503     8.444
     6   6 C        2.920    -0.025    28.627     8.774
     7   6 C        2.888     0.029    27.351     8.574
     8   7 N        2.748     0.109    19.363     6.535
     9   6 C        2.892     0.027    27.409     8.583
    10   6 C        2.921    -0.024    28.594     8.769
    11   6 C        3.709    -0.094    22.448     6.772
    12   1 H        0.805     0.290     0.753     1.363
    13   1 H        0.923     0.007     2.943     2.683
    14   1 H        0.924     0.071     2.071     2.251
    15   1 H        0.925     0.051     2.301     2.372
    16   1 H        0.924     0.084     1.941     2.179
    17   1 H        0.924     0.088     1.897     2.154
    18   1 H        0.924     0.071     2.079     2.255
    19   1 H        0.926     0.099     1.790     2.092
    20   1 H        0.926     0.107     1.722     2.052
    21   1 H        0.926     0.108     1.715     2.048
    22   1 H        0.926     0.104     1.751     2.069
    23   1 H        0.924     0.110     1.695     2.036
    24   1 H        0.924     0.111     1.686     2.030
    25   1 H        0.925     0.106     1.736     2.060

Wiberg/Mayer (AO) data.
largest (>0.10) Wiberg bond orders for each atom

     #   Z sym  total        # sym  WBO       # sym  WBO       # sym  WBO
 ---------------------------------------------------------------------------
     1   8 O    1.978 --     2 C    1.014    12 H    0.898
     2   6 C    3.960 --     1 O    1.014     3 C    0.994    14 H    0.967
                            13 H    0.966
     3   6 C    3.984 --     2 C    0.994    15 H    0.975    16 H    0.968
                             4 C    0.959
     4   6 C    3.987 --     5 C    1.047    18 H    0.968     3 C    0.959
                            17 H    0.945
     5   6 C    3.968 --     6 C    1.371    10 C    1.353     4 C    1.047
     6   6 C    3.984 --     7 C    1.479     5 C    1.371    19 H    0.959
     7   6 C    3.958 --     6 C    1.479     8 N    1.320    20 H    0.954
     8   7 N    3.758 --     7 C    1.320     9 C    1.300    11 C    0.986
     9   6 C    3.957 --    10 C    1.504     8 N    1.300    21 H    0.955
    10   6 C    3.983 --     9 C    1.504     5 C    1.353    22 H    0.958
    11   6 C    3.931 --     8 N    0.986    25 H    0.974    23 H    0.961
                            24 H    0.957
    12   1 H    0.916 --     1 O    0.898
    13   1 H    1.000 --     2 C    0.966
    14   1 H    0.994 --     2 C    0.967
    15   1 H    0.997 --     3 C    0.975
    16   1 H    0.991 --     3 C    0.968
    17   1 H    0.991 --     4 C    0.945
    18   1 H    0.995 --     4 C    0.968
    19   1 H    0.990 --     6 C    0.959
    20   1 H    0.988 --     7 C    0.954
    21   1 H    0.988 --     9 C    0.955
    22   1 H    0.989 --    10 C    0.958
    23   1 H    0.987 --    11 C    0.961
    24   1 H    0.986 --    11 C    0.957
    25   1 H    0.988 --    11 C    0.974
 ---------------------------------------------------------------------------

molecular dipole:
                 x           y           z       tot (Debye)
 q only:        7.317       6.515      -4.189
   full:        7.603       6.655      -4.311      27.922

           -------------------------------------------------
          | TOTAL ENERGY              -32.988677632581 Eh   |
          | GRADIENT NORM               0.000850125731 Eh/α |
          | HOMO-LUMO GAP               1.751126921926 eV   |
           -------------------------------------------------

 * finished run on 2024/12/20 at 07:21:15.519
