   * xtb version 6.7.1 (edcfbbe) compiled by 'conda@3ef47c1a292c' on 2024-11-25

   ID    Z sym.   atoms
    1    6 C      1-3, 5, 6, 8-10, 12-17
    2    7 N      4, 7
    3    8 O      11
    4    1 H      18-34

          program call               : xtb C1363.xyz --opt --namespace C1363 --charge +1
          :  Hamiltonian                  GFN2-xTB          :
 * total energy  :   -48.1656985 Eh     change       -0.5530723E-09 Eh
 * total energy  :   -48.1713773 Eh     change       -0.5678801E-02 Eh
 * total energy  :   -48.1729497 Eh     change       -0.1572456E-02 Eh
 * total energy  :   -48.1732382 Eh     change       -0.2884946E-03 Eh
 * total energy  :   -48.1734302 Eh     change       -0.1919696E-03 Eh
 * total energy  :   -48.1735436 Eh     change       -0.1134050E-03 Eh
 * total energy  :   -48.1737145 Eh     change       -0.1708917E-03 Eh
 * total energy  :   -48.1739341 Eh     change       -0.2195489E-03 Eh
 * total energy  :   -48.1741896 Eh     change       -0.2555184E-03 Eh
 * total energy  :   -48.1744714 Eh     change       -0.2818173E-03 Eh
 * total energy  :   -48.1788430 Eh     change       -0.1907471E-04 Eh
 * total energy  :   -48.1788653 Eh     change       -0.2237592E-04 Eh
 * total energy  :   -48.1788839 Eh     change       -0.1858568E-04 Eh
 * total energy  :   -48.1788932 Eh     change       -0.9266053E-05 Eh
 * total energy  :   -48.1788986 Eh     change       -0.5351500E-05 Eh
 * total energy  :   -48.1789046 Eh     change       -0.6032353E-05 Eh
 * total energy  :   -48.1789116 Eh     change       -0.6972182E-05 Eh
 * total energy  :   -48.1789175 Eh     change       -0.5947787E-05 Eh
 * total energy  :   -48.1789216 Eh     change       -0.4084695E-05 Eh
   *** GEOMETRY OPTIMIZATION CONVERGED AFTER 61 ITERATIONS ***

 final structure:
================
34
 xtb: 6.7.1 (edcfbbe)
C            1.48715104987196       -0.95637459087965        0.73045787135729
C            1.01750186283129        0.33551414704163        0.07493066811708
C            1.25238958169014        0.34306753355197       -1.44028847571719
N            0.44988752161211       -0.66058780178681       -2.09880803553269
C           -0.86348605305927       -0.53122394228492       -2.43599932128572
C           -1.26218414408867       -1.71172754582287       -2.98160121394867
N           -0.18975054539828       -2.55393489799646       -2.95014935684378
C            0.83891255956531       -1.88936285957651       -2.42200192211996
C           -0.07747294784951       -3.82532312874976       -3.60062047665988
C            0.97781428798934       -3.69214850854992       -4.74014359369288
O            1.67474724753306       -2.70382391483748       -4.75597986321173
C            1.05529396537826       -4.78267815405927       -5.70469720554698
C            1.89566929879316       -4.60113605279455       -6.81139400192383
C            2.02116830642924       -5.59024383948898       -7.76493137730097
C            1.31682895127197       -6.77679260835822       -7.62583677445995
C            0.48843054046730       -6.97119623031353       -6.52908474609486
C            0.35139688906768       -5.98512817419319       -5.57256929983276
H            0.91978387594685       -1.81401188516989        0.37342509861469
H            1.35223819033588       -0.89357698473275        1.80606368500026
H            2.54290102999541       -1.12671721075293        0.53355724595064
H           -0.04303132333329        0.49202824683823        0.28001143006632
H            1.56620156682893        1.17666102958559        0.49771401274900
H            0.98794402207488        1.31813917559181       -1.85437789204121
H            2.30276153640243        0.13993173412148       -1.65697412714858
H           -1.41346523115414        0.37385598959279       -2.27850133271003
H           -2.21417107439732       -2.00201048460526       -3.37629615484452
H            1.82333131187310       -2.28655574963677       -2.27295680433823
H            0.27558215101049       -4.58812067970165       -2.90057503217884
H           -1.04867210356134       -4.11531696630773       -4.00052668420110
H            2.43537858831269       -3.67081608675509       -6.90067344582740
H            2.66681490911104       -5.43924142034827       -8.61596346620841
H            1.41321604944993       -7.55260554031762       -8.36953631159131
H           -0.05266308234815       -7.89840266631424       -6.42200893395779
H           -0.28963878865114       -6.16475993200813       -4.72409416263417

          :  Hamiltonian                  GFN2-xTB          :
         :: total energy             -48.178921587563 Eh    ::
         :: gradient norm              0.000581253023 Eh/a0 ::
         :: HOMO-LUMO gap              3.104352761231 eV    ::
         :: SCC energy               -48.942372233750 Eh    ::
         :: -> dispersion             -0.030088629351 Eh    ::
         :: repulsion energy           0.763450646187 Eh    ::

    * Orbital Energies and Occupations

         #    Occupation            Energy/Eh            Energy/eV
      -------------------------------------------------------------
         1        2.0000           -0.8805383             -23.9607
       ...           ...                  ...                  ...
        32        2.0000           -0.6019468             -16.3798
        33        2.0000           -0.5978318             -16.2678
        34        2.0000           -0.5948840             -16.1876
        35        2.0000           -0.5916580             -16.0998
        36        2.0000           -0.5788387             -15.7510
        37        2.0000           -0.5739841             -15.6189
        38        2.0000           -0.5670912             -15.4313
        39        2.0000           -0.5607934             -15.2600
        40        2.0000           -0.5529550             -15.0467
        41        2.0000           -0.5362359             -14.5917
        42        2.0000           -0.5289487             -14.3934
        43        2.0000           -0.5279587             -14.3665
        44        2.0000           -0.5234998             -14.2452 (HOMO)
        45                         -0.4094169             -11.1408 (LUMO)
        46                         -0.3909389             -10.6380
        47                         -0.3581745              -9.7464
        48                         -0.3398840              -9.2487
        49                         -0.3125909              -8.5060
        50                         -0.2030159              -5.5243
        51                         -0.1687408              -4.5917
        52                         -0.1200585              -3.2670
        53                         -0.0828366              -2.2541
        54                         -0.0487753              -1.3272
        55                         -0.0399392              -1.0868
       ...                                ...                  ...
        85                          0.5515310              15.0079
      -------------------------------------------------------------
                  HL-Gap            0.1140829 Eh            3.1044 eV

     #   Z          covCN         q      C6AA      α(0)
     1   6 C        3.752    -0.116    22.784     6.807
     2   6 C        3.801    -0.066    21.769     6.643
     3   6 C        3.743    -0.028    21.156     6.562
     4   7 N        2.869     0.072    19.995     6.641
     5   6 C        3.072    -0.006    28.099     8.691
     6   6 C        3.066    -0.009    28.167     8.703
     7   7 N        2.872     0.069    20.037     6.648
     8   6 C        3.096     0.060    26.537     8.443
     9   6 C        3.743    -0.050    21.541     6.621
    10   6 C        2.823     0.227    23.232     7.898
    11   8 O        0.857    -0.356    20.827     6.119
    12   6 C        2.970    -0.017    28.428     8.746
    13   6 C        2.927    -0.009    28.237     8.714
    14   6 C        2.916    -0.017    28.441     8.745
    15   6 C        2.920    -0.006    28.175     8.705
    16   6 C        2.917    -0.019    28.475     8.751
    17   6 C        2.919    -0.027    28.666     8.780
    18   1 H        0.925     0.032     2.557     2.501
    19   1 H        0.925     0.067     2.123     2.279
    20   1 H        0.925     0.051     2.305     2.374
    21   1 H        0.924     0.057     2.238     2.340
    22   1 H        0.925     0.075     2.033     2.230
    23   1 H        0.924     0.088     1.895     2.153
    24   1 H        0.924     0.088     1.897     2.154
    25   1 H        0.926     0.105     1.742     2.064
    26   1 H        0.926     0.100     1.781     2.087
    27   1 H        0.926     0.121     1.605     1.981
    28   1 H        0.924     0.100     1.787     2.091
    29   1 H        0.925     0.100     1.785     2.090
    30   1 H        0.926     0.074     2.042     2.234
    31   1 H        0.926     0.067     2.121     2.277
    32   1 H        0.926     0.068     2.104     2.268
    33   1 H        0.926     0.062     2.171     2.304
    34   1 H        0.926     0.043     2.413     2.429

Wiberg/Mayer (AO) data.
largest (>0.10) Wiberg bond orders for each atom

     #   Z sym  total        # sym  WBO       # sym  WBO       # sym  WBO
 ---------------------------------------------------------------------------
     1   6 C    3.992 --     2 C    1.022    18 H    0.986    20 H    0.986
                            19 H    0.982
     2   6 C    3.985 --     1 C    1.022     3 C    0.984    21 H    0.975
                            22 H    0.969
     3   6 C    3.938 --     2 C    0.984     4 N    0.970    24 H    0.965
                            23 H    0.963
     4   7 N    3.715 --     8 C    1.363     5 C    1.222     3 C    0.970
     5   6 C    3.951 --     6 C    1.600     4 N    1.222    25 H    0.962
     6   6 C    3.947 --     5 C    1.600     7 N    1.212    26 H    0.962
     7   7 N    3.706 --     8 C    1.340     6 C    1.212     9 C    0.996
     8   6 C    3.946 --     4 N    1.363     7 N    1.340    27 H    0.952
     9   6 C    3.947 --     7 N    0.996    29 H    0.957    28 H    0.943
                            10 C    0.919
    10   6 C    3.929 --    11 O    1.806    12 C    1.082     9 C    0.919
    11   8 O    2.106 --    10 C    1.806
    12   6 C    3.982 --    17 C    1.351    13 C    1.347    10 C    1.082
    13   6 C    3.984 --    14 C    1.464    12 C    1.347    30 H    0.964
    14   6 C    3.988 --    13 C    1.464    15 C    1.427    31 H    0.967
                            17 C    0.102
    15   6 C    3.984 --    14 C    1.427    16 C    1.417    32 H    0.968
    16   6 C    3.990 --    17 C    1.473    15 C    1.417    33 H    0.968
    17   6 C    3.991 --    16 C    1.473    12 C    1.351    34 H    0.967
                            14 C    0.102
    18   1 H    0.999 --     1 C    0.986
    19   1 H    0.995 --     1 C    0.982
    20   1 H    0.997 --     1 C    0.986
    21   1 H    0.997 --     2 C    0.975
    22   1 H    0.993 --     2 C    0.969
    23   1 H    0.992 --     3 C    0.963
    24   1 H    0.992 --     3 C    0.965
    25   1 H    0.989 --     5 C    0.962
    26   1 H    0.990 --     6 C    0.962
    27   1 H    0.985 --     8 C    0.952
    28   1 H    0.989 --     9 C    0.943
    29   1 H    0.990 --     9 C    0.957
    30   1 H    0.994 --    13 C    0.964
    31   1 H    0.995 --    14 C    0.967
    32   1 H    0.995 --    15 C    0.968
    33   1 H    0.996 --    16 C    0.968
    34   1 H    0.998 --    17 C    0.967
 ---------------------------------------------------------------------------

molecular dipole:
                 x           y           z       tot (Debye)
 q only:        0.398      -4.765      -5.675
   full:        0.281      -4.911      -5.665      19.069

           -------------------------------------------------
          | TOTAL ENERGY              -48.178921587563 Eh   |
          | GRADIENT NORM               0.000581253023 Eh/α |
          | HOMO-LUMO GAP               3.104352761231 eV   |
           -------------------------------------------------

 * finished run on 2024/12/20 at 07:21:17.112
