   * xtb version 6.7.1 (edcfbbe) compiled by 'conda@3ef47c1a292c' on 2024-11-25

   ID    Z sym.   atoms
    1   35 Br     1, 24
    2    6 C      2-8, 11, 12, 14, 15, 17-23
    3    8 O      9, 16
    4    7 N      10, 13
    5    1 H      25-41

          program call               : xtb C1367.xyz --opt --namespace C1367 --charge +1
          :  Hamiltonian                  GFN2-xTB          :
 * total energy  :   -68.8616867 Eh     change       -0.1012580E-08 Eh
 * total energy  :   -68.8700836 Eh     change       -0.8396918E-02 Eh
 * total energy  :   -68.8725039 Eh     change       -0.2420279E-02 Eh
 * total energy  :   -68.8728612 Eh     change       -0.3572771E-03 Eh
 * total energy  :   -68.8730992 Eh     change       -0.2380564E-03 Eh
 * total energy  :   -68.8731945 Eh     change       -0.9522288E-04 Eh
 * total energy  :   -68.8732763 Eh     change       -0.8187165E-04 Eh
 * total energy  :   -68.8733506 Eh     change       -0.7425573E-04 Eh
 * total energy  :   -68.8734262 Eh     change       -0.7559927E-04 Eh
 * total energy  :   -68.8734932 Eh     change       -0.6699411E-04 Eh
 * total energy  :   -68.8735388 Eh     change       -0.4562586E-04 Eh
 * total energy  :   -68.8735782 Eh     change       -0.3936464E-04 Eh
 * total energy  :   -68.8736069 Eh     change       -0.2871986E-04 Eh
 * total energy  :   -68.8736496 Eh     change       -0.4272285E-04 Eh
 * total energy  :   -68.8736766 Eh     change       -0.2700217E-04 Eh
 * total energy  :   -68.8736889 Eh     change       -0.1228713E-04 Eh
 * total energy  :   -68.8736954 Eh     change       -0.6488512E-05 Eh
 * total energy  :   -68.8736993 Eh     change       -0.3942553E-05 Eh
   *** GEOMETRY OPTIMIZATION CONVERGED AFTER 18 ITERATIONS ***

 final structure:
================
41
 xtb: 6.7.1 (edcfbbe)
Br          -1.43401612540088        0.18454221516109        0.99032708721406
C            0.42817673765458        0.07178890598536        0.61821473810166
C            1.22128436869805        1.20544627928732        0.73408594003859
C            2.57120358962458        1.11898359461191        0.45475583168647
C            3.13379177685787       -0.08944164583381        0.05299099855733
C            2.32677574977638       -1.21580366950667       -0.06050434506513
C            0.97555464234701       -1.14094257435290        0.22548454233294
C            4.60344880614936       -0.15295587397436       -0.26244128008384
O            5.00018587582105        0.75205159821280       -1.31370079347289
N            4.64371477579160        0.37026779158389       -2.56684894684974
C            3.38902254592283        0.14927046929957       -3.04659758898871
C            3.51893640850744       -0.15396450363694       -4.36815725217293
N            4.84817075458346       -0.09909761665356       -4.65476404636107
C            5.53947578539765        0.21422830347239       -3.55429335213923
C            6.99633627329025        0.39262842615243       -3.46482619285766
O            5.48699052631040       -0.28750639517257       -5.84249014394890
C            4.70528731305998       -0.86505096245874       -6.88935852040693
C            4.17877677666706       -2.23634145308772       -6.54908448996435
C            5.00748987880261       -3.15553554695416       -5.91442230611224
C            4.53928131698033       -4.41286968707653       -5.58519106732233
C            3.23279893880487       -4.75699038171534       -5.90202335066386
C            2.39941979372126       -3.85630928046488       -6.54892498601268
C            2.87429704422588       -2.59664033201407       -6.86472069275991
Br           2.57771154932139       -6.48118034230902       -5.43742739437833
H            0.78570935951680        2.14077971345712        1.04726576111167
H            3.19734939715232        1.99335521607035        0.54661900900845
H            2.75332994604240       -2.16153917875880       -0.36178249593809
H            0.35097774108034       -2.01618383716352        0.14589538694968
H            5.19592656344757        0.20642690553372        0.58264568856663
H            4.91478261696332       -1.17267773227660       -0.51371213721207
H            2.51405382985988        0.21535136565900       -2.43294257447853
H            2.76437083875787       -0.40400890306760       -5.08379141347020
H            7.51228699696919       -0.49136491230318       -3.83809168687414
H            7.31287194872268        1.23444497339190       -4.08103898397287
H            7.28419562882565        0.58182534830853       -2.43422804206572
H            3.89871286007932       -0.18525396729616       -7.18656900190362
H            5.43085840767586       -0.91821667692005       -7.70641637388853
H            6.02852629951863       -2.88741232484571       -5.68537756722060
H            5.18303900608199       -5.12656945722802       -5.09623362761536
H            1.38982612956561       -4.13823425861837       -6.80156080542878
H            2.22667732682691       -1.89824959249845       -7.37431352394044

          :  Hamiltonian                  GFN2-xTB          :
         :: total energy             -68.873699341766 Eh    ::
         :: gradient norm              0.000662382460 Eh/a0 ::
         :: HOMO-LUMO gap              2.377533141873 eV    ::
         :: SCC energy               -69.807123599052 Eh    ::
         :: -> dispersion             -0.045332036398 Eh    ::
         :: repulsion energy           0.933424257286 Eh    ::

    * Orbital Energies and Occupations

         #    Occupation            Energy/Eh            Energy/eV
      -------------------------------------------------------------
         1        2.0000           -0.9242938             -25.1513
       ...           ...                  ...                  ...
        50        2.0000           -0.5737880             -15.6136
        51        2.0000           -0.5566248             -15.1465
        52        2.0000           -0.5545173             -15.0892
        53        2.0000           -0.5513954             -15.0042
        54        2.0000           -0.5491935             -14.9443
        55        2.0000           -0.5480679             -14.9137
        56        2.0000           -0.5451298             -14.8337
        57        2.0000           -0.5378050             -14.6344
        58        2.0000           -0.5322301             -14.4827
        59        2.0000           -0.4998619             -13.6019
        60        2.0000           -0.4949831             -13.4692
        61        2.0000           -0.4947465             -13.4627
        62        2.0000           -0.4900266             -13.3343 (HOMO)
        63                         -0.4026539             -10.9568 (LUMO)
        64                         -0.3778559             -10.2820
        65                         -0.3619717              -9.8498
        66                         -0.3576332              -9.7317
        67                         -0.3559488              -9.6859
        68                         -0.3501305              -9.5275
        69                         -0.2943556              -8.0098
        70                         -0.2895608              -7.8794
        71                         -0.2760076              -7.5105
        72                         -0.2366569              -6.4398
        73                         -0.2323792              -6.3234
       ...                                ...                  ...
       123                          0.5296025              14.4112
      -------------------------------------------------------------
                  HL-Gap            0.0873727 Eh            2.3775 eV

     #   Z          covCN         q      C6AA      α(0)
     1  35 Br       1.063    -0.127   188.529    22.139
     2   6 C        2.915     0.090    26.002     8.362
     3   6 C        2.988    -0.031    28.774     8.799
     4   6 C        2.925    -0.032    28.805     8.801
     5   6 C        2.967    -0.013    28.323     8.729
     6   6 C        2.923    -0.039    28.981     8.828
     7   6 C        2.989    -0.033    28.825     8.807
     8   6 C        3.688     0.054    19.861     6.379
     9   8 O        1.766    -0.210    17.487     5.647
    10   7 N        2.910     0.177    18.283     6.351
    11   6 C        3.034    -0.028    28.662     8.781
    12   6 C        3.034    -0.033    28.780     8.799
    13   7 N        2.911     0.182    18.207     6.337
    14   6 C        3.062     0.082    26.108     8.379
    15   6 C        3.754    -0.132    23.096     6.853
    16   8 O        1.768    -0.196    17.257     5.609
    17   6 C        3.689     0.053    19.868     6.380
    18   6 C        2.967    -0.013    28.335     8.731
    19   6 C        2.925    -0.036    28.892     8.815
    20   6 C        2.989    -0.033    28.820     8.806
    21   6 C        2.915     0.090    26.004     8.362
    22   6 C        2.988    -0.031    28.757     8.797
    23   6 C        2.924    -0.039    28.958     8.825
    24  35 Br       1.063    -0.127   188.526    22.139
    25   1 H        0.926     0.076     2.025     2.225
    26   1 H        0.926     0.063     2.169     2.303
    27   1 H        0.926     0.048     2.350     2.397
    28   1 H        0.926     0.074     2.047     2.237
    29   1 H        0.924     0.106     1.727     2.055
    30   1 H        0.924     0.057     2.235     2.338
    31   1 H        0.926     0.119     1.618     1.989
    32   1 H        0.927     0.118     1.632     1.998
    33   1 H        0.925     0.110     1.693     2.035
    34   1 H        0.924     0.117     1.639     2.002
    35   1 H        0.925     0.109     1.706     2.042
    36   1 H        0.924     0.065     2.140     2.287
    37   1 H        0.924     0.112     1.681     2.027
    38   1 H        0.926     0.052     2.300     2.372
    39   1 H        0.926     0.072     2.061     2.245
    40   1 H        0.926     0.076     2.017     2.221
    41   1 H        0.926     0.052     2.292     2.368

Wiberg/Mayer (AO) data.
largest (>0.10) Wiberg bond orders for each atom

     #   Z sym  total        # sym  WBO       # sym  WBO       # sym  WBO
 ---------------------------------------------------------------------------
     1  35 Br   1.167 --     2 C    1.016
     2   6 C    3.947 --     7 C    1.402     3 C    1.396     1 Br   1.016
     3   6 C    3.988 --     4 C    1.455     2 C    1.396    25 H    0.965
                             6 C    0.106
     4   6 C    3.990 --     3 C    1.455     5 C    1.400    26 H    0.966
                             7 C    0.107
     5   6 C    3.984 --     6 C    1.408     4 C    1.400     8 C    1.003
     6   6 C    3.990 --     7 C    1.445     5 C    1.408    27 H    0.966
                             3 C    0.106
     7   6 C    3.988 --     6 C    1.445     2 C    1.402    28 H    0.965
                             4 C    0.107
     8   6 C    3.901 --     5 C    1.003    30 H    0.970    29 H    0.946
                             9 O    0.914
     9   8 O    2.091 --    10 N    1.008     8 C    0.914
    10   7 N    3.701 --    14 C    1.283    11 C    1.207     9 O    1.008
    11   6 C    3.941 --    12 C    1.573    10 N    1.207    31 H    0.954
    12   6 C    3.936 --    11 C    1.573    13 N    1.202    32 H    0.955
    13   7 N    3.711 --    14 C    1.300    12 C    1.202    16 O    1.006
    14   6 C    3.935 --    13 N    1.300    10 N    1.283    15 C    1.052
    15   6 C    3.968 --    14 C    1.052    35 H    0.969    33 H    0.948
                            34 H    0.940
    16   8 O    2.141 --    13 N    1.006    17 C    0.933
    17   6 C    3.899 --    18 C    0.998    36 H    0.964    37 H    0.939
                            16 O    0.933
    18   6 C    3.984 --    23 C    1.408    19 C    1.405    17 C    0.998
    19   6 C    3.991 --    20 C    1.451    18 C    1.405    38 H    0.967
                            22 C    0.107
    20   6 C    3.988 --    19 C    1.451    21 C    1.398    39 H    0.966
                            23 C    0.106
    21   6 C    3.948 --    22 C    1.401    20 C    1.398    24 Br   1.016
    22   6 C    3.988 --    23 C    1.446    21 C    1.401    40 H    0.965
                            19 C    0.107
    23   6 C    3.990 --    22 C    1.446    18 C    1.408    41 H    0.965
                            20 C    0.106
    24  35 Br   1.166 --    21 C    1.016
    25   1 H    0.994 --     3 C    0.965
    26   1 H    0.996 --     4 C    0.966
    27   1 H    0.998 --     6 C    0.966
    28   1 H    0.994 --     7 C    0.965
    29   1 H    0.988 --     8 C    0.946
    30   1 H    0.996 --     8 C    0.970
    31   1 H    0.986 --    11 C    0.954
    32   1 H    0.986 --    12 C    0.955
    33   1 H    0.988 --    15 C    0.948
    34   1 H    0.986 --    15 C    0.940
    35   1 H    0.988 --    15 C    0.969
    36   1 H    0.995 --    17 C    0.964
    37   1 H    0.986 --    17 C    0.939
    38   1 H    0.997 --    19 C    0.967
    39   1 H    0.994 --    20 C    0.966
    40   1 H    0.994 --    22 C    0.965
    41   1 H    0.997 --    23 C    0.965
 ---------------------------------------------------------------------------

molecular dipole:
                 x           y           z       tot (Debye)
 q only:        9.159      -0.324      -6.961
   full:        9.302      -0.272      -7.140      29.814

           -------------------------------------------------
          | TOTAL ENERGY              -68.873699341766 Eh   |
          | GRADIENT NORM               0.000662382460 Eh/α |
          | HOMO-LUMO GAP               2.377533141873 eV   |
           -------------------------------------------------

 * finished run on 2024/12/20 at 07:21:21.322
