   * xtb version 6.7.1 (edcfbbe) compiled by 'conda@3ef47c1a292c' on 2024-11-25

   ID    Z sym.   atoms
    1    6 C      1-16, 18-22
    2    7 N      17
    3    1 H      23-60

          program call               : xtb C1364.xyz --opt --namespace C1364 --charge +1
          :  Hamiltonian                  GFN2-xTB          :
 * total energy  :   -66.8890844 Eh     change       -0.2026468E-10 Eh
 * total energy  :   -66.8921366 Eh     change       -0.3052218E-02 Eh
 * total energy  :   -66.8926128 Eh     change       -0.4762463E-03 Eh
 * total energy  :   -66.8927027 Eh     change       -0.8985681E-04 Eh
 * total energy  :   -66.8928095 Eh     change       -0.1067532E-03 Eh
 * total energy  :   -66.8928972 Eh     change       -0.8770434E-04 Eh
 * total energy  :   -66.8930028 Eh     change       -0.1056386E-03 Eh
 * total energy  :   -66.8931069 Eh     change       -0.1040681E-03 Eh
 * total energy  :   -66.8931516 Eh     change       -0.4470754E-04 Eh
 * total energy  :   -66.8931697 Eh     change       -0.1812413E-04 Eh
 * total energy  :   -66.8932050 Eh     change       -0.9366914E-05 Eh
 * total energy  :   -66.8932217 Eh     change       -0.1668831E-04 Eh
 * total energy  :   -66.8932359 Eh     change       -0.1428438E-04 Eh
 * total energy  :   -66.8932436 Eh     change       -0.7678036E-05 Eh
 * total energy  :   -66.8932503 Eh     change       -0.6631866E-05 Eh
 * total energy  :   -66.8932598 Eh     change       -0.9549270E-05 Eh
 * total energy  :   -66.8932731 Eh     change       -0.1329924E-04 Eh
 * total energy  :   -66.8932854 Eh     change       -0.1229783E-04 Eh
 * total energy  :   -66.8932897 Eh     change       -0.4319303E-05 Eh
   *** GEOMETRY OPTIMIZATION CONVERGED AFTER 22 ITERATIONS ***

 final structure:
================
60
 xtb: 6.7.1 (edcfbbe)
C            1.08444105848004       -0.28696040655035        0.52202559920703
C            1.05651988474588        1.17595541175968        0.94695118415601
C            1.36445761189375        2.14317788219523       -0.19642064486739
C            0.37290644578706        2.10519841378588       -1.36120739858071
C           -1.07256584940621        2.43937159683581       -0.99047244784608
C           -1.28319132374087        3.83091986053252       -0.39031906727192
C           -0.84481906865025        4.99356341399068       -1.28287115766929
C           -1.52327961043972        5.04951600469467       -2.65303479633653
C           -3.04893095717058        5.15598781023460       -2.61513753652650
C           -3.59294054343151        6.39276218357889       -1.89722876684017
C           -3.15370495119542        7.73191881667170       -2.49354665376046
C           -3.51519729710352        7.93279830400613       -3.96678130651063
C           -5.00675208627472        7.81194507595980       -4.28943680252378
C           -5.90844557672126        8.80065002586871       -3.54545580755628
C           -5.63128391333664       10.27331858064736       -3.84427605281926
C           -5.95147536158514       10.69167737871157       -5.28813675738837
N           -7.37836642583176       10.61971077677261       -5.53595296718810
C           -7.92107568028928        9.49088563923610       -6.01113191713750
C           -9.28526084839313        9.36632456714509       -6.17240545724390
C          -10.11110744704929       10.43173373262609       -5.83694075183537
C           -9.52864301034598       11.59635136956350       -5.34864082524703
C           -8.16002697616454       11.65727631001239       -5.20511535607260
H            0.27880144724996       -0.50889142371114       -0.17340834864704
H            0.96961895706701       -0.93351335634404        1.38883462642953
H            2.03017093908678       -0.52623025970297        0.04052637566004
H            0.08310543772188        1.41198692958660        1.38109179925654
H            1.80379154627174        1.32844765077924        1.72982420725512
H            1.40837772448553        3.15750707705880        0.20611623737133
H            2.35599683234318        1.90724166242515       -0.59144665726320
H            0.71870593492980        2.80163198919642       -2.12822452626254
H            0.38933701848760        1.10880404121442       -1.80730405241828
H           -1.68665595277177        2.33830862132740       -1.88845338638689
H           -1.43652245938920        1.70220312587001       -0.27213363347192
H           -2.34242620602853        3.94176113511309       -0.14660987142286
H           -0.73339151734418        3.89979994928842        0.55042524785456
H           -1.03446601163047        5.92627568459410       -0.74655999916524
H            0.23335437947610        4.93395435101573       -1.44265880261353
H           -1.11339981647451        5.89937689568871       -3.20372367451876
H           -1.26178877936837        4.15184263893159       -3.21633527980881
H           -3.41865321474406        5.13937736194432       -3.64330775948892
H           -3.45525098402070        4.27281949516767       -2.11928374736896
H           -4.68442046937090        6.33515907627429       -1.89208509318338
H           -3.27173872238431        6.36848936920119       -0.85488758672953
H           -3.58996957777710        8.53550182794641       -1.89502982280526
H           -2.07069410671033        7.82345216206319       -2.40107404492991
H           -3.14622702476086        8.91166159005696       -4.28328718068906
H           -2.98538007696399        7.19021532844867       -4.56466360960353
H           -5.12895469886761        7.92338060576899       -5.37080270891069
H           -5.33975275774292        6.80465825447240       -4.03791378359435
H           -6.95523890837592        8.56767059662963       -3.76685376903219
H           -5.77630797680917        8.65003175782286       -2.47428555310505
H           -6.21180533896293       10.89541962262102       -3.15936002447824
H           -4.57749769409445       10.48522943394227       -3.66882787359968
H           -5.61687253604622       11.71748953850017       -5.45239254570592
H           -5.43127108802723       10.03760587125447       -5.98839022934276
H           -7.24694171181124        8.68944475511101       -6.27327201127459
H           -9.69351581338362        8.44579741224284       -6.55735365975516
H          -11.18027511904491       10.35898166342411       -5.95565028992393
H          -10.13134405600004       12.44935690168046       -5.08176514495280
H           -7.66958567199420       12.54179791482685       -4.82640813550854

          :  Hamiltonian                  GFN2-xTB          :
         :: total energy             -66.893289719403 Eh    ::
         :: gradient norm              0.000255282624 Eh/a0 ::
         :: HOMO-LUMO gap              0.201745854569 eV    ::
         :: SCC energy               -67.937696463763 Eh    ::
         :: -> dispersion             -0.051236123086 Eh    ::
         :: repulsion energy           1.044406744359 Eh    ::

    * Orbital Energies and Occupations

         #    Occupation            Energy/Eh            Energy/eV
      -------------------------------------------------------------
         1        2.0000           -0.8713543             -23.7108
       ...           ...                  ...                  ...
        51        2.0000           -0.5176511             -14.0860
        52        2.0000           -0.5116532             -13.9228
        53        2.0000           -0.5083061             -13.8317
        54        2.0000           -0.5013469             -13.6423
        55        2.0000           -0.4963139             -13.5054
        56        2.0000           -0.4924625             -13.4006
        57        2.0000           -0.4884049             -13.2902
        58        2.0000           -0.4785139             -13.0210
        59        2.0000           -0.4775077             -12.9936
        60        2.0000           -0.4744811             -12.9113
        61        2.0000           -0.4658215             -12.6756
        62        1.9927           -0.4599347             -12.5155
        63        1.9639           -0.4583992             -12.4737 (HOMO)
        64        0.0434           -0.4509852             -12.2719 (LUMO)
        65                         -0.4202784             -11.4364
        66                         -0.3001578              -8.1677
        67                         -0.1616996              -4.4001
        68                         -0.0769913              -2.0950
        69                         -0.0600758              -1.6347
        70                         -0.0426426              -1.1604
        71                         -0.0339730              -0.9245
        72                         -0.0220274              -0.5994
        73                         -0.0114193              -0.3107
        74                         -0.0052932              -0.1440
       ...                                ...                  ...
       126                          0.4553121              12.3897
      -------------------------------------------------------------
                  HL-Gap            0.0074140 Eh            0.2017 eV

     #   Z          covCN         q      C6AA      α(0)
     1   6 C        3.751    -0.103    22.520     6.767
     2   6 C        3.799    -0.052    21.512     6.604
     3   6 C        3.801    -0.057    21.604     6.618
     4   6 C        3.800    -0.057    21.598     6.617
     5   6 C        3.800    -0.057    21.591     6.616
     6   6 C        3.800    -0.057    21.596     6.617
     7   6 C        3.800    -0.057    21.605     6.618
     8   6 C        3.800    -0.057    21.608     6.618
     9   6 C        3.800    -0.058    21.611     6.619
    10   6 C        3.800    -0.059    21.628     6.622
    11   6 C        3.800    -0.060    21.661     6.627
    12   6 C        3.800    -0.061    21.680     6.629
    13   6 C        3.800    -0.061    21.680     6.629
    14   6 C        3.800    -0.066    21.765     6.642
    15   6 C        3.801    -0.069    21.815     6.650
    16   6 C        3.759    -0.036    21.257     6.573
    17   7 N        2.749     0.109    19.375     6.537
    18   6 C        2.890     0.032    27.281     8.563
    19   6 C        2.915    -0.012    28.321     8.727
    20   6 C        2.924     0.010    27.803     8.647
    21   6 C        2.915    -0.011    28.300     8.723
    22   6 C        2.892     0.030    27.319     8.569
    23   1 H        0.925     0.036     2.505     2.475
    24   1 H        0.925     0.034     2.525     2.485
    25   1 H        0.925     0.037     2.495     2.470
    26   1 H        0.924     0.033     2.541     2.493
    27   1 H        0.924     0.032     2.563     2.504
    28   1 H        0.924     0.031     2.568     2.506
    29   1 H        0.924     0.032     2.552     2.498
    30   1 H        0.924     0.031     2.579     2.512
    31   1 H        0.924     0.036     2.505     2.475
    32   1 H        0.924     0.029     2.603     2.523
    33   1 H        0.924     0.035     2.523     2.484
    34   1 H        0.924     0.027     2.622     2.532
    35   1 H        0.924     0.035     2.517     2.481
    36   1 H        0.924     0.028     2.622     2.532
    37   1 H        0.924     0.035     2.522     2.483
    38   1 H        0.924     0.026     2.637     2.540
    39   1 H        0.924     0.035     2.514     2.480
    40   1 H        0.924     0.024     2.675     2.558
    41   1 H        0.924     0.036     2.500     2.472
    42   1 H        0.924     0.023     2.690     2.565
    43   1 H        0.924     0.039     2.456     2.451
    44   1 H        0.924     0.025     2.662     2.552
    45   1 H        0.924     0.043     2.410     2.428
    46   1 H        0.924     0.025     2.658     2.550
    47   1 H        0.924     0.046     2.365     2.405
    48   1 H        0.924     0.017     2.784     2.609
    49   1 H        0.924     0.051     2.309     2.377
    50   1 H        0.924     0.023     2.696     2.568
    51   1 H        0.925     0.067     2.124     2.279
    52   1 H        0.924     0.050     2.320     2.382
    53   1 H        0.925     0.083     1.945     2.181
    54   1 H        0.924     0.086     1.914     2.164
    55   1 H        0.924     0.095     1.835     2.119
    56   1 H        0.926     0.109     1.706     2.042
    57   1 H        0.926     0.104     1.750     2.069
    58   1 H        0.926     0.103     1.758     2.073
    59   1 H        0.926     0.104     1.745     2.066
    60   1 H        0.926     0.105     1.741     2.063

Wiberg/Mayer (AO) data.
largest (>0.10) Wiberg bond orders for each atom

     #   Z sym  total        # sym  WBO       # sym  WBO       # sym  WBO
 ---------------------------------------------------------------------------
     1   6 C    3.992 --     2 C    1.020    24 H    0.987    25 H    0.986
                            23 H    0.984
     2   6 C    3.989 --     1 C    1.020     3 C    1.007    27 H    0.974
                            26 H    0.972
     3   6 C    3.988 --     2 C    1.007     4 C    1.004    29 H    0.975
                            28 H    0.973
     4   6 C    3.987 --     5 C    1.007     3 C    1.004    30 H    0.973
                            31 H    0.972
     5   6 C    3.990 --     4 C    1.007     6 C    1.006    33 H    0.973
                            32 H    0.972
     6   6 C    3.992 --     7 C    1.007     5 C    1.006    34 H    0.974
                            35 H    0.973
     7   6 C    3.995 --     6 C    1.007     8 C    1.007    36 H    0.974
                            37 H    0.974
     8   6 C    3.995 --     9 C    1.008     7 C    1.007    38 H    0.975
                            39 H    0.974
     9   6 C    3.997 --     8 C    1.008    10 C    1.008    40 H    0.975
                            41 H    0.974
    10   6 C    3.996 --     9 C    1.008    11 C    1.007    42 H    0.975
                            43 H    0.974
    11   6 C    3.996 --    12 C    1.008    10 C    1.007    44 H    0.975
                            45 H    0.974
    12   6 C    3.995 --    11 C    1.008    13 C    1.007    46 H    0.974
                            47 H    0.973
    13   6 C    3.995 --    14 C    1.007    12 C    1.007    49 H    0.972
                            48 H    0.972
    14   6 C    3.992 --    15 C    1.010    13 C    1.007    50 H    0.971
                            51 H    0.965
    15   6 C    3.980 --    14 C    1.010    52 H    0.974    16 C    0.972
                            53 H    0.960
    16   6 C    3.934 --    15 C    0.972    17 N    0.967    54 H    0.963
                            55 H    0.959
    17   7 N    3.743 --    18 C    1.316    22 C    1.313    16 C    0.967
    18   6 C    3.943 --    19 C    1.462    17 N    1.316    56 H    0.952
    19   6 C    3.980 --    18 C    1.462    20 C    1.420    57 H    0.960
    20   6 C    3.945 --    19 C    1.420    21 C    1.410    58 H    0.962
    21   6 C    3.979 --    22 C    1.473    20 C    1.410    59 H    0.960
    22   6 C    3.945 --    21 C    1.473    17 N    1.313    60 H    0.955
    23   1 H    0.996 --     1 C    0.984
    24   1 H    0.998 --     1 C    0.987
    25   1 H    0.997 --     1 C    0.986
    26   1 H    0.995 --     2 C    0.972
    27   1 H    0.995 --     2 C    0.974
    28   1 H    0.996 --     3 C    0.973
    29   1 H    0.996 --     3 C    0.975
    30   1 H    0.997 --     4 C    0.973
    31   1 H    0.995 --     4 C    0.972
    32   1 H    0.996 --     5 C    0.972
    33   1 H    0.997 --     5 C    0.973
    34   1 H    0.998 --     6 C    0.974
    35   1 H    0.997 --     6 C    0.973
    36   1 H    0.998 --     7 C    0.974
    37   1 H    0.998 --     7 C    0.974
    38   1 H    0.999 --     8 C    0.975
    39   1 H    0.998 --     8 C    0.974
    40   1 H    0.999 --     9 C    0.975
    41   1 H    0.999 --     9 C    0.974
    42   1 H    0.999 --    10 C    0.975
    43   1 H    0.998 --    10 C    0.974
    44   1 H    0.999 --    11 C    0.975
    45   1 H    0.998 --    11 C    0.974
    46   1 H    0.999 --    12 C    0.974
    47   1 H    0.998 --    12 C    0.973
    48   1 H    1.000 --    13 C    0.972
    49   1 H    0.997 --    13 C    0.972
    50   1 H    0.999 --    14 C    0.971
    51   1 H    0.994 --    14 C    0.965
    52   1 H    0.997 --    15 C    0.974
    53   1 H    0.991 --    15 C    0.960
    54   1 H    0.992 --    16 C    0.963
    55   1 H    0.990 --    16 C    0.959
    56   1 H    0.988 --    18 C    0.952
    57   1 H    0.989 --    19 C    0.960
    58   1 H    0.989 --    20 C    0.962
    59   1 H    0.989 --    21 C    0.960
    60   1 H    0.989 --    22 C    0.955
 ---------------------------------------------------------------------------

molecular dipole:
                 x           y           z       tot (Debye)
 q only:      -13.748      18.738      -9.571
   full:      -13.804      18.831      -9.643      64.208

           -------------------------------------------------
          | TOTAL ENERGY              -66.893289719403 Eh   |
          | GRADIENT NORM               0.000255282624 Eh/α |
          | HOMO-LUMO GAP               0.201745854569 eV   |
           -------------------------------------------------

 * finished run on 2024/12/20 at 07:21:19.363
