   * xtb version 6.7.1 (edcfbbe) compiled by 'conda@3ef47c1a292c' on 2024-11-25

   ID    Z sym.   atoms
    1    6 C      1, 3-10, 12-14
    2    8 O      2
    3    7 N      11
    4    1 H      15-34

          program call               : xtb C1360.xyz --opt --namespace C1360 --charge +1
          :  Hamiltonian                  GFN2-xTB          :
 * total energy  :   -42.4682789 Eh     change       -0.5741754E-09 Eh
 * total energy  :   -42.4759028 Eh     change       -0.7623986E-02 Eh
 * total energy  :   -42.4780580 Eh     change       -0.2155203E-02 Eh
 * total energy  :   -42.4784234 Eh     change       -0.3653254E-03 Eh
 * total energy  :   -42.4788710 Eh     change       -0.4476539E-03 Eh
 * total energy  :   -42.4790442 Eh     change       -0.1731488E-03 Eh
 * total energy  :   -42.4792532 Eh     change       -0.2090635E-03 Eh
 * total energy  :   -42.4793524 Eh     change       -0.9917571E-04 Eh
 * total energy  :   -42.4794249 Eh     change       -0.7250990E-04 Eh
 * total energy  :   -42.4794761 Eh     change       -0.5118899E-04 Eh
 * total energy  :   -42.4795972 Eh     change       -0.1981102E-04 Eh
 * total energy  :   -42.4796120 Eh     change       -0.1481158E-04 Eh
 * total energy  :   -42.4796272 Eh     change       -0.1510377E-04 Eh
 * total energy  :   -42.4796459 Eh     change       -0.1876686E-04 Eh
 * total energy  :   -42.4796644 Eh     change       -0.1847301E-04 Eh
 * total energy  :   -42.4796837 Eh     change       -0.1932824E-04 Eh
 * total energy  :   -42.4797030 Eh     change       -0.1930771E-04 Eh
 * total energy  :   -42.4797217 Eh     change       -0.1862783E-04 Eh
 * total energy  :   -42.4797263 Eh     change       -0.4629308E-05 Eh
   *** GEOMETRY OPTIMIZATION CONVERGED AFTER 22 ITERATIONS ***

 final structure:
================
34
 xtb: 6.7.1 (edcfbbe)
C            1.18451394032059        0.25425785332792        0.00362295977922
O            0.26921986163607       -0.54954753669990        0.71684132399172
C            0.67273075551029       -1.16879779730095        1.84181753292050
C           -0.26846938404281       -2.00725269772705        2.44916594236496
C            0.04227120421457       -2.68872207345888        3.60478521789488
C            1.29460900557291       -2.55288002035340        4.20069682457620
C            2.22805942408638       -1.72618001806352        3.59012217594202
C            1.93098371969475       -1.03791828710778        2.42815199708690
C            1.64638113308066       -3.30691756267676        5.45830106408804
C            1.87378769883879       -2.43660353219261        6.70029564780368
N            0.68230040745767       -1.72490226978545        7.26260887226849
C           -0.44920928168404       -2.64938335909227        7.45148462134568
C            1.06379842728274       -1.16643191145540        8.57503598280654
C            0.26388148822962       -0.61721420324139        6.38416023622517
H            0.64099300596427        0.61154264479080       -0.86863599757151
H            2.05280934422205       -0.32471107304280       -0.32304474639520
H            1.51492730221591        1.11051943367134        0.59903975951066
H           -1.23264241402035       -2.11616069830493        1.98046342623767
H           -0.69393076200622       -3.35349811956527        4.03578659538003
H            3.21651785814500       -1.62766590160261        4.01577321628723
H            2.68839453970067       -0.41645572066158        1.97927919499933
H            0.90068637130725       -4.07699629530475        5.65358392223549
H            2.59550145593127       -3.82394078958450        5.29348476043520
H            2.26722139269099       -3.07622039713865        7.49371842498211
H            2.62280999823782       -1.67711954735144        6.46792900923541
H           -0.13039862952033       -3.52463791897930        8.01499352075975
H           -1.24618057927304       -2.15147328926989        8.00103877959372
H           -0.84213119555512       -2.96527878839231        6.48839040702667
H            1.93304409771688       -0.51927229365102        8.47192788223301
H            0.24289778270031       -0.58138223165663        8.98625369939369
H            1.30423952052581       -1.96581153037620        9.27391525270325
H           -0.60239152643993       -0.11363090548786        6.80927380745191
H            1.07211458435289        0.10379025092947        6.27928137428678
H            0.00845945289903       -0.99652341318980        5.39594731212444

          :  Hamiltonian                  GFN2-xTB          :
         :: total energy             -42.479726286720 Eh    ::
         :: gradient norm              0.000308608955 Eh/a0 ::
         :: HOMO-LUMO gap              4.008447610753 eV    ::
         :: SCC energy               -43.110302243939 Eh    ::
         :: -> dispersion             -0.028841673497 Eh    ::
         :: repulsion energy           0.630575957219 Eh    ::

    * Orbital Energies and Occupations

         #    Occupation            Energy/Eh            Energy/eV
      -------------------------------------------------------------
         1        2.0000           -0.8653085             -23.5462
       ...           ...                  ...                  ...
        27        2.0000           -0.6322220             -17.2036
        28        2.0000           -0.6125671             -16.6688
        29        2.0000           -0.6055828             -16.4787
        30        2.0000           -0.5987345             -16.2924
        31        2.0000           -0.5854126             -15.9299
        32        2.0000           -0.5813678             -15.8198
        33        2.0000           -0.5750189             -15.6471
        34        2.0000           -0.5567253             -15.1493
        35        2.0000           -0.5480662             -14.9136
        36        2.0000           -0.5452582             -14.8372
        37        2.0000           -0.5237008             -14.2506
        38        2.0000           -0.5141718             -13.9913
        39        2.0000           -0.4792029             -13.0398 (HOMO)
        40                         -0.3318952              -9.0313 (LUMO)
        41                         -0.3248143              -8.8386
        42                         -0.2248828              -6.1194
        43                         -0.2013858              -5.4800
        44                         -0.1555635              -4.2331
        45                         -0.1455242              -3.9599
        46                         -0.1401317              -3.8132
        47                         -0.0655354              -1.7833
        48                         -0.0623654              -1.6970
        49                         -0.0421450              -1.1468
        50                         -0.0253837              -0.6907
       ...                                ...                  ...
        76                          0.5567186              15.1491
      -------------------------------------------------------------
                  HL-Gap            0.1473077 Eh            4.0084 eV

     #   Z          covCN         q      C6AA      α(0)
     1   6 C        3.644     0.028    20.435     6.498
     2   8 O        1.706    -0.248    18.114     5.746
     3   6 C        2.865     0.151    24.713     8.149
     4   6 C        2.919    -0.056    29.393     8.891
     5   6 C        2.922    -0.047    29.163     8.856
     6   6 C        2.966    -0.019    28.473     8.752
     7   6 C        2.924    -0.044    29.102     8.847
     8   6 C        2.916    -0.067    29.660     8.931
     9   6 C        3.805    -0.079    22.003     6.678
    10   6 C        3.760    -0.040    21.344     6.586
    11   7 N        3.622     0.145    18.779     6.436
    12   6 C        3.721    -0.097    22.472     6.770
    13   6 C        3.730    -0.098    22.474     6.767
    14   6 C        3.722    -0.101    22.551     6.782
    15   1 H        0.925     0.078     2.000     2.211
    16   1 H        0.924     0.052     2.295     2.369
    17   1 H        0.924     0.047     2.353     2.399
    18   1 H        0.926     0.064     2.155     2.296
    19   1 H        0.925     0.032     2.556     2.500
    20   1 H        0.926     0.036     2.502     2.474
    21   1 H        0.926     0.051     2.313     2.378
    22   1 H        0.925     0.061     2.185     2.311
    23   1 H        0.924     0.080     1.974     2.197
    24   1 H        0.924     0.083     1.952     2.185
    25   1 H        0.924     0.087     1.904     2.158
    26   1 H        0.925     0.098     1.804     2.100
    27   1 H        0.925     0.097     1.809     2.103
    28   1 H        0.925     0.107     1.722     2.052
    29   1 H        0.925     0.098     1.802     2.099
    30   1 H        0.925     0.100     1.785     2.089
    31   1 H        0.925     0.098     1.801     2.098
    32   1 H        0.925     0.096     1.824     2.112
    33   1 H        0.925     0.095     1.835     2.118
    34   1 H        0.925     0.111     1.688     2.032

Wiberg/Mayer (AO) data.
largest (>0.10) Wiberg bond orders for each atom

     #   Z sym  total        # sym  WBO       # sym  WBO       # sym  WBO
 ---------------------------------------------------------------------------
     1   6 C    3.935 --    15 H    0.978    17 H    0.976    16 H    0.976
                             2 O    0.974
     2   8 O    2.273 --     3 C    1.103     1 C    0.974
     3   6 C    3.940 --     8 C    1.356     4 C    1.333     2 O    1.103
     4   6 C    3.987 --     5 C    1.478     3 C    1.333    18 H    0.966
                             7 C    0.105
     5   6 C    3.990 --     4 C    1.478     6 C    1.382    19 H    0.966
     6   6 C    3.983 --     7 C    1.411     5 C    1.382     9 C    1.005
     7   6 C    3.992 --     8 C    1.452     6 C    1.411    20 H    0.969
                             4 C    0.105
     8   6 C    3.988 --     7 C    1.452     3 C    1.356    21 H    0.965
     9   6 C    3.982 --     6 C    1.005    10 C    0.997    22 H    0.969
                            23 H    0.955
    10   6 C    3.926 --     9 C    0.997    24 H    0.968    25 H    0.966
                            11 N    0.921
    11   7 N    3.816 --    13 C    0.958    12 C    0.958    14 C    0.957
                            10 C    0.921
    12   6 C    3.927 --    26 H    0.976    27 H    0.975    28 H    0.970
                            11 N    0.958
    13   6 C    3.929 --    29 H    0.976    31 H    0.975    30 H    0.974
                            11 N    0.958
    14   6 C    3.922 --    33 H    0.976    32 H    0.975    34 H    0.959
                            11 N    0.957
    15   1 H    0.994 --     1 C    0.978
    16   1 H    0.997 --     1 C    0.976
    17   1 H    0.998 --     1 C    0.976
    18   1 H    0.996 --     4 C    0.966
    19   1 H    0.998 --     5 C    0.966
    20   1 H    0.999 --     7 C    0.969
    21   1 H    0.997 --     8 C    0.965
    22   1 H    0.996 --     9 C    0.969
    23   1 H    0.992 --     9 C    0.955
    24   1 H    0.993 --    10 C    0.968
    25   1 H    0.992 --    10 C    0.966
    26   1 H    0.990 --    12 C    0.976
    27   1 H    0.990 --    12 C    0.975
    28   1 H    0.989 --    12 C    0.970
    29   1 H    0.990 --    13 C    0.976
    30   1 H    0.990 --    13 C    0.974
    31   1 H    0.990 --    13 C    0.975
    32   1 H    0.991 --    14 C    0.975
    33   1 H    0.991 --    14 C    0.976
    34   1 H    0.988 --    14 C    0.959
 ---------------------------------------------------------------------------

molecular dipole:
                 x           y           z       tot (Debye)
 q only:        1.622      -2.913      12.630
   full:        1.806      -2.870      12.676      33.353

           -------------------------------------------------
          | TOTAL ENERGY              -42.479726286720 Eh   |
          | GRADIENT NORM               0.000308608955 Eh/α |
          | HOMO-LUMO GAP               4.008447610753 eV   |
           -------------------------------------------------

 * finished run on 2024/12/20 at 07:21:10.864
