   * xtb version 6.7.1 (edcfbbe) compiled by 'conda@3ef47c1a292c' on 2024-11-25

   ID    Z sym.   atoms
    1    6 C      1, 3
    2   16 S      2
    3    7 N      4, 5
    4    1 H      6-12

          program call               : xtb C1369.xyz --opt --namespace C1369 --charge +1
          :  Hamiltonian                  GFN2-xTB          :
 * total energy  :   -16.5149116 Eh     change       -0.2457554E-09 Eh
 * total energy  :   -16.5162757 Eh     change       -0.1364093E-02 Eh
 * total energy  :   -16.5164162 Eh     change       -0.1404928E-03 Eh
 * total energy  :   -16.5164526 Eh     change       -0.3642379E-04 Eh
 * total energy  :   -16.5164636 Eh     change       -0.1100269E-04 Eh
 * total energy  :   -16.5164654 Eh     change       -0.1728611E-05 Eh
   *** GEOMETRY OPTIMIZATION CONVERGED AFTER 6 ITERATIONS ***

 final structure:
================
12
 xtb: 6.7.1 (edcfbbe)
C            0.99042215532379        0.03549924694863        0.04500657965846
S            0.34801408254664        1.22248756135460        1.25743155631001
C            0.96820845334709        0.64701690152124        2.76643893204522
N            1.72772421311968       -0.43084268410155        2.86191622220323
N            0.64194057960782        1.34748859482382        3.84073343667909
H            0.61041301862205        0.38085038297411       -0.91367949183283
H            0.59919941472738       -0.95881823054312        0.24052212188458
H            2.07611585581910        0.06262951574830        0.02305411096054
H            2.07757889728014       -0.74652967708885        3.75514160375240
H            1.98199419552381       -0.97129852648425        2.05025141973064
H            0.06176856563397        2.16838017743855        3.75627295037184
H            0.95562056844853        1.09075673740852        4.76519055823683

          :  Hamiltonian                  GFN2-xTB          :
         :: total energy             -16.516465362618 Eh    ::
         :: gradient norm              0.000703066913 Eh/a0 ::
         :: HOMO-LUMO gap              3.670128432834 eV    ::
         :: SCC energy               -16.723391851229 Eh    ::
         :: -> dispersion             -0.006220309255 Eh    ::
         :: repulsion energy           0.206926488611 Eh    ::

    * Orbital Energies and Occupations

         #    Occupation            Energy/Eh            Energy/eV
      -------------------------------------------------------------
         1        2.0000           -0.9190949             -25.0098
       ...           ...                  ...                  ...
         3        2.0000           -0.8510293             -23.1577
         4        2.0000           -0.7924646             -21.5641
         5        2.0000           -0.7753945             -21.0996
         6        2.0000           -0.7707287             -20.9726
         7        2.0000           -0.7579393             -20.6246
         8        2.0000           -0.7338598             -19.9693
         9        2.0000           -0.7185158             -19.5518
        10        2.0000           -0.6838182             -18.6076
        11        2.0000           -0.6688468             -18.2002
        12        2.0000           -0.6523891             -17.7524
        13        2.0000           -0.6378272             -17.3562
        14        2.0000           -0.6258017             -17.0289
        15        2.0000           -0.5657137             -15.3939 (HOMO)
        16                         -0.4308390             -11.7237 (LUMO)
        17                         -0.3798672             -10.3367
        18                         -0.3271297              -8.9017
        19                         -0.1988098              -5.4099
        20                         -0.1933423              -5.2611
        21                         -0.1718243              -4.6756
        22                         -0.1386064              -3.7717
        23                         -0.1049806              -2.8567
        24                         -0.0344478              -0.9374
        25                         -0.0204733              -0.5571
        26                          0.0324994               0.8844
       ...                                ...                  ...
        32                          0.3509723               9.5504
      -------------------------------------------------------------
                  HL-Gap            0.1348747 Eh            3.6701 eV

     #   Z          covCN         q      C6AA      α(0)
     1   6 C        3.744    -0.097    22.427     6.756
     2  16 S        2.061     0.056   138.779    19.827
     3   6 C        2.795     0.189    23.964     8.019
     4   7 N        2.679    -0.205    25.467     7.495
     5   7 N        2.721    -0.199    25.328     7.475
     6   1 H        0.925     0.117     1.635     2.000
     7   1 H        0.925     0.093     1.846     2.124
     8   1 H        0.925     0.093     1.846     2.124
     9   1 H        0.860     0.234     0.950     1.526
    10   1 H        0.860     0.239     0.928     1.509
    11   1 H        0.860     0.244     0.907     1.492
    12   1 H        0.860     0.236     0.939     1.518

Wiberg/Mayer (AO) data.
largest (>0.10) Wiberg bond orders for each atom

     #   Z sym  total        # sym  WBO       # sym  WBO       # sym  WBO
 ---------------------------------------------------------------------------
     1   6 C    3.948 --     2 S    1.006     7 H    0.973     8 H    0.973
                             6 H    0.963
     2  16 S    2.473 --     3 C    1.201     1 C    1.006
     3   6 C    3.972 --     5 N    1.374     4 N    1.372     2 S    1.201
     4   7 N    3.453 --     3 C    1.372     9 H    0.918    10 H    0.915
                             5 N    0.126
     5   7 N    3.460 --     3 C    1.374    11 H    0.922    12 H    0.919
                             4 N    0.126
     6   1 H    0.986 --     1 C    0.963
     7   1 H    0.991 --     1 C    0.973
     8   1 H    0.991 --     1 C    0.973
     9   1 H    0.945 --     4 N    0.918
    10   1 H    0.943 --     4 N    0.915
    11   1 H    0.940 --     5 N    0.922
    12   1 H    0.944 --     5 N    0.919
 ---------------------------------------------------------------------------

molecular dipole:
                 x           y           z       tot (Debye)
 q only:        2.163       0.658       4.841
   full:        2.314       0.451       4.892      13.802

           -------------------------------------------------
          | TOTAL ENERGY              -16.516465362618 Eh   |
          | GRADIENT NORM               0.000703066913 Eh/α |
          | HOMO-LUMO GAP               3.670128432834 eV   |
           -------------------------------------------------

 * finished run on 2024/12/20 at 07:21:21.667
